/*--------------------------------*- C++ -*----------------------------------*\
| =========                 |                                                 |
| \\      /  F ield         | OpenFOAM: The Open Source CFD Toolbox           |
|  \\    /   O peration     | Version:  2406                                  |
|   \\  /    A nd           | Website:  www.openfoam.com                      |
|    \\/     M anipulation  |                                                 |
\*---------------------------------------------------------------------------*/
FoamFile
{
    version     2.0;
    format      ascii;
    arch        "LSB;label=32;scalar=64";
    class       volVectorField;
    location    "13";
    object      U;
}
// * * * * * * * * * * * * * * * * * * * * * * * * * * * * * * * * * * * * * //

dimensions      [0 1 -1 0 0 0 0];

internalField   nonuniform List<vector> 
34560
(
(0.064809624 -0.00083306655 -0.015380871)
(0.20804689 -0.0014413739 -0.049706119)
(0.38394301 -0.0025111966 -0.089602142)
(0.58489043 -0.0034857401 -0.13173829)
(0.79553438 -0.0050455953 -0.16922088)
(0.9936832 -0.0074801911 -0.19498353)
(1.1554937 -0.010140852 -0.20410516)
(1.2719268 -0.013032739 -0.19875419)
(1.3491288 -0.014652244 -0.18510393)
(0.078911517 -0.0012911229 -0.017972837)
(0.24925697 -0.0023157463 -0.057687482)
(0.45246599 -0.0036137272 -0.10258343)
(0.67628148 -0.0044676351 -0.14822286)
(0.90106551 -0.0056499454 -0.18625051)
(1.1018316 -0.0075750367 -0.20905425)
(1.2559429 -0.0095735871 -0.21265114)
(1.3586204 -0.011314223 -0.20099149)
(1.4233349 -0.012281777 -0.1804777)
(0.093385315 -0.0013682171 -0.019938246)
(0.29062669 -0.0022233917 -0.063894819)
(0.51962869 -0.0033016433 -0.11261596)
(0.76329162 -0.00392239 -0.16083153)
(0.99843291 -0.0049691359 -0.19916338)
(1.1987799 -0.0069498656 -0.21968618)
(1.3443828 -0.0091633545 -0.2195253)
(1.434483 -0.010715866 -0.20357036)
(1.4886979 -0.011749303 -0.18006965)
(0.10832587 -0.0015386191 -0.021813091)
(0.3324409 -0.0023724609 -0.069736457)
(0.58609379 -0.0032477182 -0.1218187)
(0.84745819 -0.0035546895 -0.17197985)
(1.0902582 -0.0043483127 -0.21017684)
(1.2884243 -0.0062035519 -0.22832054)
(1.4253185 -0.0084360654 -0.22491955)
(1.5039425 -0.0097207063 -0.20574367)
(1.5484213 -0.01040759 -0.18019863)
(0.1229617 -0.0015328825 -0.02339378)
(0.37285759 -0.002145981 -0.074747528)
(0.64949239 -0.0027059416 -0.12964941)
(0.92657837 -0.0027020587 -0.18132569)
(1.1753646 -0.0032887921 -0.21925719)
(1.3706681 -0.0049870869 -0.23521642)
(1.4991336 -0.0070922827 -0.22901785)
(1.5674345 -0.0080657595 -0.20731474)
(1.6029713 -0.008441549 -0.18031569)
(0.13698143 -0.0014734763 -0.024691071)
(0.41108209 -0.0019102373 -0.078937826)
(0.70872513 -0.0021934807 -0.13618521)
(0.99956441 -0.0019258803 -0.18906276)
(1.253036 -0.0023082758 -0.22669351)
(1.445253 -0.0037774334 -0.24071442)
(1.5657332 -0.0056069055 -0.2320415)
(1.6250248 -0.0063015682 -0.20844437)
(1.6524922 -0.0064118508 -0.18034027)
(0.15010327 -0.0013633633 -0.025797969)
(0.44642157 -0.001639743 -0.082518006)
(0.76286626 -0.0016826064 -0.14170692)
(1.0655238 -0.0012039663 -0.19549207)
(1.3226197 -0.0014032404 -0.2327459)
(1.511798 -0.0026211483 -0.2450112)
(1.6250599 -0.0041307964 -0.23419162)
(1.6764739 -0.0045995861 -0.2091296)
(1.6967496 -0.0045040755 -0.180148)
(0.16167827 -0.0012042036 -0.026695256)
(0.47737958 -0.0013544007 -0.085460792)
(0.81002084 -0.0012271385 -0.14622615)
(1.122711 -0.00063061356 -0.20069742)
(1.3827361 -0.00069804286 -0.23757671)
(1.5693296 -0.0016679795 -0.2483061)
(1.6765001 -0.0028533203 -0.23567082)
(1.7211764 -0.0031288913 -0.20942561)
(1.7351824 -0.0028809207 -0.17971118)
(0.17130982 -0.00098350698 -0.027387032)
(0.50301438 -0.0010281681 -0.087772751)
(0.84892291 -0.0008057493 -0.1497776)
(1.1697766 -0.00020291585 -0.20476937)
(1.4322586 -0.00020369177 -0.24130035)
(1.6169006 -0.00094967607 -0.25072502)
(1.7192312 -0.0018353589 -0.23658591)
(1.7583465 -0.0019612125 -0.20937268)
(1.7670935 -0.0016358321 -0.17907052)
(0.17876666 -0.00072638237 -0.027885887)
(0.52279308 -0.00072580597 -0.089472621)
(0.87885357 -0.00050701633 -0.15239756)
(1.2059182 -9.9086174e-06 -0.20776709)
(1.4703506 9.192334e-06 -0.24399052)
(1.6536192 -0.00051736321 -0.25236469)
(1.7523381 -0.001117463 -0.23704222)
(1.7871318 -0.0011346641 -0.20907037)
(1.791791 -0.00081010456 -0.17835772)
(0.18407379 -0.00047648245 -0.028249493)
(0.53668535 -0.00050940975 -0.090673552)
(0.89963542 -0.00037525875 -0.15420591)
(1.2307633 -4.8328268e-05 -0.20978845)
(1.4964132 -1.0515646e-05 -0.24572656)
(1.6786837 -0.00029854917 -0.2533246)
(1.7749284 -0.00062166761 -0.23716843)
(1.8067353 -0.00058199339 -0.20867735)
(1.8086036 -0.00033572087 -0.17773037)
(0.18656375 -0.00014078927 -0.028411346)
(0.54330152 -9.5840795e-05 -0.091241354)
(0.90966379 -6.4849833e-06 -0.15507385)
(1.2429022 0.00012897915 -0.21076717)
(1.5092964 0.0001374783 -0.24656553)
(1.6911987 1.6574155e-05 -0.25376947)
(1.7862871 -0.00012031936 -0.23718551)
(1.8166186 -0.00012900621 -0.20842976)
(1.8170915 -6.123429e-05 -0.17737563)
(0.18656375 0.000140774 -0.02841134)
(0.54330151 9.5778792e-05 -0.091241357)
(0.90966378 6.3715604e-06 -0.15507385)
(1.2429022 -0.0001291451 -0.21076715)
(1.5092964 -0.00013772052 -0.24656552)
(1.6911987 -1.6867638e-05 -0.25376948)
(1.7862871 0.00011997782 -0.23718551)
(1.8166186 0.0001285966 -0.20842975)
(1.8170915 6.0797724e-05 -0.17737562)
(0.1840738 0.00047647934 -0.028249491)
(0.53668536 0.00050936381 -0.090673539)
(0.89963543 0.00037516668 -0.15420593)
(1.2307633 4.820707e-05 -0.20978843)
(1.4964132 1.0326458e-05 -0.24572656)
(1.6786837 0.00029827731 -0.25332461)
(1.7749283 0.00062131187 -0.23716839)
(1.8067352 0.00058157681 -0.20867729)
(1.8086035 0.0003352815 -0.17773036)
(0.17876666 0.00072638476 -0.027885932)
(0.52279308 0.00072580854 -0.089472649)
(0.87885356 0.00050699362 -0.1523977)
(1.2059182 9.8492725e-06 -0.20776718)
(1.4703506 -9.3402478e-06 -0.24399056)
(1.6536191 0.00051710317 -0.25236467)
(1.752338 0.0011171059 -0.23704213)
(1.7871317 0.0011342641 -0.20907027)
(1.7917909 0.00080967898 -0.17835772)
(0.17130981 0.0009835228 -0.027387112)
(0.50301437 0.0010282227 -0.087772857)
(0.84892288 0.00080579188 -0.14977776)
(1.1697765 0.00020285951 -0.20476943)
(1.4322585 0.00020351879 -0.24130036)
(1.6169004 0.00094941408 -0.25072495)
(1.7192311 0.0018350453 -0.23658579)
(1.7583464 0.0019608711 -0.20937253)
(1.7670934 0.001635444 -0.17907048)
(0.16167827 0.0012041997 -0.026695259)
(0.47737956 0.0013543748 -0.085460817)
(0.81002079 0.001227114 -0.1462261)
(1.1227109 0.00063047915 -0.20069734)
(1.382736 0.00069782635 -0.23757672)
(1.5693294 0.0016677397 -0.24830605)
(1.6765 0.0028530855 -0.2356707)
(1.7211763 0.0031286319 -0.2094254)
(1.7351821 0.0028805904 -0.17971099)
(0.15010326 0.0013633691 -0.025797897)
(0.44642153 0.001639664 -0.08251802)
(0.76286621 0.0016825271 -0.14170682)
(1.0655237 0.0012038535 -0.19549202)
(1.3226195 0.0014030673 -0.23274603)
(1.5117978 0.0026209716 -0.24501123)
(1.6250597 0.0041306152 -0.2341915)
(1.6764738 0.0045993993 -0.20912931)
(1.6967494 0.004503802 -0.18014766)
(0.13698141 0.0014734918 -0.024691081)
(0.41108205 0.0019102349 -0.078937843)
(0.70872506 0.0021934419 -0.13618521)
(0.99956433 0.0019258687 -0.18906289)
(1.2530359 0.0023081727 -0.22669367)
(1.4452528 0.003777351 -0.24071444)
(1.5657331 0.0056067667 -0.23204134)
(1.6250247 0.0063014227 -0.208444)
(1.6524921 0.0064115824 -0.18033984)
(0.12296169 0.0015328939 -0.02339375)
(0.37285757 0.0021459486 -0.074747531)
(0.64949235 0.0027058716 -0.12964949)
(0.92657833 0.002702033 -0.18132577)
(1.1753645 0.0032887415 -0.21925725)
(1.370668 0.0049870233 -0.23521641)
(1.4991335 0.0070922304 -0.22901764)
(1.5674344 0.0080655979 -0.20731427)
(1.6029711 0.0084412526 -0.18031514)
(0.10832586 0.0015386299 -0.021813083)
(0.33244089 0.0023724207 -0.069736552)
(0.58609377 0.0032476805 -0.12181882)
(0.84745816 0.0035546207 -0.17197997)
(1.0902582 0.0043483035 -0.21017695)
(1.2884243 0.0062035327 -0.22832054)
(1.4253185 0.008436115 -0.22491928)
(1.5039424 0.009720428 -0.20574294)
(1.5484212 0.010407283 -0.18019808)
(0.093385315 0.0013682402 -0.019938277)
(0.29062669 0.0022234138 -0.063894928)
(0.5196287 0.0033016986 -0.11261604)
(0.76329163 0.0039224059 -0.16083161)
(0.99843292 0.0049691536 -0.19916341)
(1.1987799 0.006949893 -0.2196861)
(1.3443828 0.0091633815 -0.21952466)
(1.4344829 0.010715879 -0.2035696)
(1.4886978 0.011749279 -0.18006969)
(0.078911526 0.0012911288 -0.017972837)
(0.249257 0.0023157365 -0.057687483)
(0.45246605 0.0036137522 -0.10258337)
(0.67628158 0.004467662 -0.1482228)
(0.90106563 0.0056499238 -0.18625038)
(1.1018317 0.007574965 -0.20905386)
(1.255943 0.0095735196 -0.21265057)
(1.3586205 0.011314614 -0.20099142)
(1.4233348 0.012281995 -0.18047774)
(0.064809644 0.00083306192 -0.015380854)
(0.20804696 0.0014413308 -0.04970608)
(0.38394313 0.0025111585 -0.089602058)
(0.58489063 0.0034857471 -0.13173811)
(0.79553465 0.0050456495 -0.16922048)
(0.9936835 0.007480138 -0.19498316)
(1.1554939 0.010140718 -0.20410524)
(1.2719269 0.013032856 -0.19875411)
(1.3491287 0.014652237 -0.1851037)
(0.042482826 0.001432448 0.0010542435)
(0.1502832 0.0032154131 0.0013578966)
(0.30387484 0.0032055607 -0.0027245317)
(0.50612938 -0.00056106142 -0.014029368)
(0.74466152 -0.0094858005 -0.033400814)
(0.99040264 -0.022970262 -0.057136049)
(1.2085128 -0.038418761 -0.078620573)
(1.3734762 -0.051892608 -0.091476673)
(1.4747888 -0.060737551 -0.094834787)
(0.048508335 0.0012756333 0.00068878246)
(0.17174826 0.0022950803 -0.00012544406)
(0.34670257 0.00087156485 -0.0064050349)
(0.57375119 -0.0049915615 -0.021057745)
(0.83283136 -0.016167888 -0.044037579)
(1.0863612 -0.031006328 -0.069596773)
(1.2972086 -0.046217954 -0.089779951)
(1.4468033 -0.058176697 -0.099390737)
(1.5345137 -0.064784657 -0.098629903)
(0.054203726 0.0014758073 0.00058699835)
(0.19211899 0.0024548811 -0.00080559523)
(0.38735931 0.00044077784 -0.0086544152)
(0.63749174 -0.0065807946 -0.025762119)
(0.91424734 -0.018893242 -0.051096404)
(1.1719099 -0.033887152 -0.077244409)
(1.3728121 -0.047912644 -0.095525883)
(1.5072986 -0.058229414 -0.10259006)
(1.5839832 -0.063336398 -0.099388287)
(0.060048344 0.0015568983 0.00037604347)
(0.21269294 0.0024139594 -0.0017135818)
(0.42781838 -4.2375607e-05 -0.011137505)
(0.69987939 -0.0077550357 -0.030461493)
(0.99267313 -0.020448602 -0.057412612)
(1.2527388 -0.034878833 -0.083415681)
(1.4431778 -0.047309724 -0.099531814)
(1.563372 -0.055936481 -0.10445054)
(1.6297377 -0.059955178 -0.099611551)
(0.065636085 0.0015984004 0.00015542796)
(0.23238247 0.0023757209 -0.0025715176)
(0.46649475 -0.00030679286 -0.013370111)
(0.7592814 -0.0082525427 -0.034520404)
(1.0667667 -0.020730527 -0.062489381)
(1.3287508 -0.034164066 -0.08820466)
(1.5095001 -0.044919562 -0.1023892)
(1.6165465 -0.051947926 -0.10568869)
(1.6729755 -0.055017455 -0.099861023)
(0.070968722 0.0015867308 -8.116609e-05)
(0.25108607 0.0023129886 -0.0033970144)
(0.50303855 -0.00039809813 -0.01535477)
(0.81500531 -0.0081503816 -0.03789115)
(1.1358009 -0.019882438 -0.066416932)
(1.3994385 -0.031956541 -0.091706066)
(1.571801 -0.041034217 -0.10441142)
(1.6669754 -0.046606272 -0.106517)
(1.7140772 -0.048900615 -0.10035857)
(0.07611663 0.0014908469 -0.00032439587)
(0.26886279 0.0021263523 -0.004188373)
(0.53731045 -0.00048279922 -0.017136639)
(0.86664059 -0.0076965147 -0.040753155)
(1.1991266 -0.018255629 -0.06953001)
(1.4639604 -0.02870703 -0.094150006)
(1.6292241 -0.036135797 -0.1058179)
(1.7141803 -0.040470769 -0.107083)
(1.7529937 -0.042208519 -0.10106849)
(0.080700348 0.0013253787 -0.00055261935)
(0.28466802 0.0018557921 -0.0048897547)
(0.56771254 -0.00051190187 -0.018632438)
(0.91230425 -0.0068794008 -0.043045434)
(1.2550356 -0.015938337 -0.071845648)
(1.5210095 -0.024634695 -0.095802824)
(1.6804897 -0.030545305 -0.10670021)
(1.7571263 -0.033921844 -0.10736614)
(1.7889939 -0.035305486 -0.10158572)
(0.08454733 0.0010939396 -0.00075332856)
(0.29795986 0.0015039563 -0.0054757222)
(0.59331674 -0.00049741934 -0.01981507)
(0.95078947 -0.0057563436 -0.044755744)
(1.3021502 -0.01307382 -0.073426398)
(1.5691923 -0.019948163 -0.096705147)
(1.7241857 -0.024486566 -0.10695784)
(1.794418 -0.027084816 -0.1072528)
(1.8206985 -0.028138958 -0.10130154)
(0.087566267 0.00081797722 -0.00091286579)
(0.30843027 0.0011095654 -0.0059221722)
(0.61352075 -0.00041585023 -0.020670506)
(0.98115374 -0.0043525171 -0.045912865)
(1.339238 -0.0097397002 -0.074371028)
(1.607138 -0.014733743 -0.097038081)
(1.7587471 -0.017997947 -0.10660272)
(1.8243636 -0.019859327 -0.10654777)
(1.8462756 -0.020547024 -0.099910019)
(0.089971393 0.00050601534 -0.0010255436)
(0.31643864 0.0006793252 -0.0062293244)
(0.62847263 -0.00028084276 -0.021233204)
(1.0030145 -0.0027190617 -0.046610846)
(1.3653657 -0.0060146459 -0.074840723)
(1.6335552 -0.0090478973 -0.096999002)
(1.7827389 -0.01103519 -0.10606625)
(1.8452216 -0.01215974 -0.10551423)
(1.8641269 -0.01251389 -0.098439911)
(0.090970151 0.00015264919 -0.0010797706)
(0.31999058 0.00017604245 -0.0063708447)
(0.63543372 -0.00017281762 -0.021478908)
(1.0135723 -0.0010082632 -0.046896602)
(1.378291 -0.0021161893 -0.074987163)
(1.6468127 -0.0031199269 -0.096861672)
(1.7948823 -0.003765181 -0.10565248)
(1.8558333 -0.004117184 -0.10478404)
(1.8732268 -0.0042061234 -0.097533241)
(0.090970149 -0.00015263554 -0.0010797712)
(0.31999057 -0.000176035 -0.0063708506)
(0.63543371 0.00017279653 -0.021478912)
(1.0135723 0.001008158 -0.0468966)
(1.378291 0.0021159587 -0.074987165)
(1.6468127 0.0031195884 -0.096861672)
(1.7948823 0.003764776 -0.10565247)
(1.8558332 0.0041167313 -0.10478402)
(1.8732267 0.0042057131 -0.097533229)
(0.089971387 -0.00050599489 -0.0010255469)
(0.31643862 -0.00067930449 -0.0062293351)
(0.62847259 0.00028084155 -0.021233221)
(1.0030145 0.0027189909 -0.046610852)
(1.3653656 0.0060144604 -0.074840734)
(1.6335551 0.0090475902 -0.096998992)
(1.7827388 0.011034802 -0.1060662)
(1.8452215 0.012159299 -0.10551415)
(1.8641267 0.012513485 -0.098439877)
(0.087566255 -0.00081795688 -0.00091287947)
(0.30843023 -0.0011095354 -0.0059222019)
(0.61352067 0.00041586902 -0.020670571)
(0.98115361 0.004352479 -0.045912913)
(1.3392378 0.009739554 -0.074371054)
(1.6071378 0.014733465 -0.097038041)
(1.7587469 0.017997584 -0.10660261)
(1.8243633 0.019858918 -0.10654763)
(1.8462753 0.020546634 -0.099909965)
(0.084547312 -0.0010939194 -0.00075335817)
(0.2979598 -0.0015039163 -0.0054757933)
(0.59331662 0.00049745593 -0.019815162)
(0.95078928 0.0057563123 -0.044755804)
(1.3021499 0.013073676 -0.073426412)
(1.569192 0.019947904 -0.096705067)
(1.7241855 0.024486243 -0.10695769)
(1.7944177 0.027084462 -0.1072526)
(1.8206981 0.028138589 -0.10130144)
(0.080700327 -0.0013253619 -0.00055263703)
(0.28466795 -0.0018557751 -0.0048898308)
(0.56771242 0.00051191807 -0.018632474)
(0.91230407 0.0068793385 -0.043045456)
(1.2550354 0.015938182 -0.071845651)
(1.5210092 0.024634473 -0.095802739)
(1.6804894 0.030545044 -0.10670004)
(1.757126 0.03392156 -0.10736586)
(1.7889935 0.035305146 -0.10158551)
(0.076116612 -0.0014908255 -0.00032439095)
(0.26886273 -0.0021263524 -0.0041884389)
(0.53731034 0.00048279965 -0.017136652)
(0.86664043 0.0076964612 -0.040753211)
(1.1991264 0.018255507 -0.069530079)
(1.4639601 0.028706872 -0.094149954)
(1.6292239 0.0361356 -0.1058177)
(1.71418 0.040470547 -0.10708262)
(1.7529934 0.042208215 -0.10106812)
(0.070968708 -0.0015867048 -8.1168653e-05)
(0.25108603 -0.0023129729 -0.0033970781)
(0.50303847 0.00039811717 -0.015354829)
(0.8150052 0.0081503889 -0.03789128)
(1.1358008 0.019882384 -0.066417028)
(1.3994383 0.031956461 -0.091705992)
(1.5718008 0.041034085 -0.10441115)
(1.6669752 0.046606099 -0.10651652)
(1.714077 0.048900352 -0.10035809)
(0.065636079 -0.001598372 0.00015541784)
(0.23238245 -0.0023757055 -0.002571619)
(0.46649472 0.00030681723 -0.013370248)
(0.75928136 0.0082525715 -0.034520556)
(1.0667666 0.020730527 -0.062489443)
(1.3287507 0.034164065 -0.088204558)
(1.5095 0.044919519 -0.10238887)
(1.6165464 0.051947795 -0.10568813)
(1.6729753 0.055017257 -0.099860499)
(0.060048348 -0.0015568709 0.00037602478)
(0.21269295 -0.0024139428 -0.0017136937)
(0.42781839 4.2417656e-05 -0.011137636)
(0.69987939 0.0077550787 -0.030461619)
(0.99267312 0.020448665 -0.057412676)
(1.2527387 0.034878923 -0.08341558)
(1.4431777 0.047309825 -0.099531448)
(1.5633719 0.055936463 -0.10444996)
(1.6297376 0.059955072 -0.099611111)
(0.054203738 -0.001475784 0.00058697774)
(0.19211903 -0.0024548633 -0.00080568333)
(0.38735937 -0.00044072099 -0.0086545073)
(0.63749181 0.0065808723 -0.025762226)
(0.9142474 0.018893364 -0.051096461)
(1.1719099 0.033887328 -0.077244327)
(1.3728122 0.047912922 -0.095525566)
(1.5072987 0.058229728 -0.10258964)
(1.5839831 0.063336388 -0.099387935)
(0.048508357 -0.0012756234 0.00068877635)
(0.17174833 -0.0022950835 -0.00012547439)
(0.3467027 -0.00087153663 -0.006405064)
(0.57375137 0.0049916274 -0.021057797)
(0.83283155 0.016167989 -0.044037613)
(1.0863614 0.031006471 -0.069596762)
(1.2972088 0.04621822 -0.089779883)
(1.4468035 0.058177175 -0.099390359)
(1.5345137 0.064784829 -0.098629438)
(0.042482861 -0.0014324477 0.0010542468)
(0.15028331 -0.003215425 0.0013578962)
(0.30387503 -0.0032055707 -0.0027245369)
(0.50612964 0.00056105896 -0.014029369)
(0.74466184 0.0094857925 -0.033400781)
(0.99040298 0.022970223 -0.05713606)
(1.2085131 0.038418784 -0.078620581)
(1.3734765 0.051892821 -0.091476157)
(1.474789 0.060737635 -0.094834277)
(0.032013698 0.00037875846 0.00028259251)
(0.11757485 0.00083389888 0.00035689749)
(0.24713244 0.00066483608 -0.00087996268)
(0.42982459 -0.0012286163 -0.0046866219)
(0.66252485 -0.0066068745 -0.01243629)
(0.92068618 -0.016866341 -0.024454549)
(1.1607978 -0.031060302 -0.038665831)
(1.3451954 -0.044595774 -0.049701923)
(1.4576367 -0.053866134 -0.054759415)
(0.034365907 -1.4207407e-06 -8.1684858e-05)
(0.1277781 -0.00035966651 -0.00078001844)
(0.27087778 -0.0014824962 -0.0030175634)
(0.4727566 -0.0044782385 -0.0081298628)
(0.72627464 -0.011174922 -0.017472664)
(0.99855835 -0.022757612 -0.031003107)
(1.239021 -0.037545341 -0.045515725)
(1.4117323 -0.050446191 -0.055205573)
(1.5118126 -0.058040423 -0.058116594)
(0.036099222 -0.00023166619 -0.00025998491)
(0.13594287 -0.0011123893 -0.0013801623)
(0.29074067 -0.0028641947 -0.0042469645)
(0.50942697 -0.0065647996 -0.010235403)
(0.78079048 -0.013990744 -0.020598503)
(1.0638185 -0.025990565 -0.034895359)
(1.3020018 -0.040279443 -0.049010637)
(1.4633933 -0.051919983 -0.057203394)
(1.553948 -0.058113803 -0.058223584)
(0.037849371 -0.00046871044 -0.0004004183)
(0.1439338 -0.0018498852 -0.0018461433)
(0.30983699 -0.0041458902 -0.0052240394)
(0.54419226 -0.0083812517 -0.011936334)
(0.83177875 -0.016257035 -0.023085216)
(1.1239686 -0.028298299 -0.037803929)
(1.3591018 -0.041683591 -0.051176711)
(1.5098565 -0.051821571 -0.057746152)
(1.5916186 -0.056714334 -0.057165121)
(0.039426102 -0.00062366132 -0.00045696676)
(0.15128221 -0.0023510725 -0.0020598515)
(0.32758655 -0.0050344724 -0.0057719889)
(0.57671535 -0.0096350423 -0.013038363)
(0.87964707 -0.017728795 -0.024855434)
(1.1803706 -0.029538805 -0.039664362)
(1.4126456 -0.041801318 -0.052149228)
(1.5536955 -0.050387336 -0.057197547)
(1.6269859 -0.054014538 -0.05534456)
(0.040970847 -0.00071011994 -0.00045831775)
(0.15834009 -0.0026398892 -0.002099058)
(0.34447486 -0.0055478561 -0.0060115815)
(0.60758402 -0.010314452 -0.013696874)
(0.92501555 -0.01833714 -0.025977056)
(1.2335309 -0.029545285 -0.040530761)
(1.4632844 -0.040494566 -0.051954252)
(1.5956261 -0.047550859 -0.055571106)
(1.6608425 -0.050055852 -0.052613477)
(0.042630858 -0.00074776951 -0.00043313876)
(0.1654436 -0.0027591265 -0.0020429607)
(0.36087066 -0.0057322361 -0.0060485975)
(0.63697301 -0.010445056 -0.013979068)
(0.96785196 -0.018079782 -0.026477636)
(1.2833862 -0.028302228 -0.040625104)
(1.5107487 -0.037761058 -0.050709212)
(1.6352958 -0.043323555 -0.052966184)
(1.6928875 -0.044858569 -0.04899999)
(0.044159918 -0.00072388116 -0.00038517041)
(0.17190733 -0.002669435 -0.0019032994)
(0.37569671 -0.0055208244 -0.0058973077)
(0.66352485 -0.0099350336 -0.013905102)
(1.0066068 -0.016844199 -0.026378285)
(1.3285047 -0.02572395 -0.039895222)
(1.5538683 -0.033536644 -0.048564091)
(1.6716637 -0.037686332 -0.049639282)
(1.7222495 -0.038420898 -0.044928249)
(0.045469666 -0.0006408151 -0.00032686539)
(0.17743371 -0.0023683844 -0.0017194308)
(0.38839757 -0.0048927747 -0.0056249077)
(0.6864344 -0.0087339293 -0.013587039)
(1.0400318 -0.014564124 -0.025846719)
(1.3674934 -0.021783184 -0.038668314)
(1.5912253 -0.027841513 -0.046024611)
(1.7033504 -0.030736751 -0.046069397)
(1.7478919 -0.030945313 -0.041191394)
(0.046531263 -0.00050208881 -0.00026850853)
(0.18189697 -0.0018628141 -0.0015276941)
(0.39863645 -0.0038528979 -0.0053072711)
(0.70492401 -0.006845265 -0.013149222)
(1.06696 -0.01127609 -0.025116418)
(1.3988349 -0.016588086 -0.037267223)
(1.6212597 -0.020850383 -0.04366495)
(1.7288577 -0.022717727 -0.042974984)
(1.7686689 -0.022685315 -0.038514014)
(0.047522653 -0.00032171413 -0.00022366906)
(0.18564458 -0.0011949629 -0.0013769678)
(0.40664844 -0.002473374 -0.0050465328)
(0.71872111 -0.0043796905 -0.012767153)
(1.0864234 -0.0071502975 -0.024469347)
(1.4210434 -0.010390648 -0.036094031)
(1.6422982 -0.01290001 -0.04178263)
(1.7467113 -0.013935327 -0.040808842)
(1.783225 -0.013862757 -0.036607816)
(0.047854633 -0.00011350564 -0.00019982495)
(0.1871218 -0.000418947 -0.0012947397)
(0.41014759 -0.00086021745 -0.0048971425)
(0.72518924 -0.0015121853 -0.012538671)
(1.09594 -0.0024533873 -0.024087993)
(1.4321456 -0.0035427053 -0.035436578)
(1.6529317 -0.0043712212 -0.040771228)
(1.7558013 -0.0047016051 -0.039699005)
(1.7906538 -0.0046676303 -0.03559877)
(0.04785463 0.00011352197 -0.00019982635)
(0.18712179 0.00041896789 -0.0012947466)
(0.41014758 0.00086022574 -0.0048971507)
(0.72518922 0.0015121313 -0.012538677)
(1.0959399 0.002453221 -0.024087992)
(1.4321456 0.0035424235 -0.035436564)
(1.6529316 0.004370858 -0.040771199)
(1.7558013 0.0047012134 -0.039698963)
(1.7906537 0.0046672901 -0.035598733)
(0.047522646 0.00032173213 -0.00022367256)
(0.18564456 0.0011949903 -0.0013769844)
(0.4066484 0.0024733951 -0.0050465532)
(0.71872104 0.0043796547 -0.012767168)
(1.0864233 0.0071501517 -0.024469343)
(1.4210433 0.010390384 -0.036093988)
(1.642298 0.01289966 -0.041782539)
(1.7467111 0.013934944 -0.040808713)
(1.7832247 0.013862422 -0.036607702)
(0.046531252 0.00050210885 -0.00026851337)
(0.18189693 0.0018628488 -0.0015277299)
(0.39863639 0.0038529358 -0.0053073063)
(0.7049239 0.0068452546 -0.01314925)
(1.0669598 0.011275975 -0.025116413)
(1.3988347 0.016587852 -0.037267146)
(1.6212594 0.020850061 -0.043664792)
(1.7288574 0.022717367 -0.04297476)
(1.7686686 0.022684993 -0.038513811)
(0.045469654 0.00064084033 -0.00032687184)
(0.17743368 0.0023684262 -0.0017194902)
(0.3883975 0.0048928286 -0.0056249571)
(0.68643428 0.0087339438 -0.013587081)
(1.0400317 0.01456404 -0.025846709)
(1.3674932 0.021782988 -0.038668203)
(1.5912251 0.027841235 -0.046024386)
(1.70335 0.030736437 -0.046069064)
(1.7478915 0.030945018 -0.041191083)
(0.044159907 0.00072391322 -0.00038518081)
(0.1719073 0.0026694829 -0.001903378)
(0.37569664 0.0055208925 -0.005897375)
(0.66352475 0.0099350693 -0.013905167)
(1.0066066 0.016844151 -0.026378276)
(1.3285046 0.025723806 -0.039895086)
(1.5538681 0.033536433 -0.048563806)
(1.6716634 0.037686091 -0.049638842)
(1.7222491 0.03842065 -0.044927818)
(0.042630848 0.0007478095 -0.00043315639)
(0.16544357 0.0027591889 -0.0020430527)
(0.3608706 0.0057323254 -0.006048693)
(0.63697293 0.01044512 -0.013979166)
(0.96785185 0.018079778 -0.026477646)
(1.2833861 0.028302147 -0.040624961)
(1.5107485 0.037760924 -0.050708884)
(1.6352955 0.043323408 -0.052965651)
(1.6928871 0.044858383 -0.04899946)
(0.040970841 0.00071016491 -0.0004583358)
(0.15834007 0.0026399609 -0.0020991545)
(0.34447482 0.0055479613 -0.0060116942)
(0.60758398 0.010314546 -0.013696997)
(0.92501549 0.018337181 -0.025977083)
(1.2335308 0.029545267 -0.040530617)
(1.4632843 0.040494506 -0.0519539)
(1.5956259 0.0475508 -0.055570504)
(1.6608422 0.050055725 -0.052612902)
(0.039426103 0.00062371061 -0.0004569927)
(0.15128221 0.0023511487 -0.0020599717)
(0.32758656 0.0050345968 -0.0057721305)
(0.57671536 0.0096351668 -0.013038515)
(0.87964707 0.017728883 -0.024855484)
(1.1803705 0.02953885 -0.039664236)
(1.4126455 0.041801321 -0.052148871)
(1.5536953 0.050387328 -0.057196901)
(1.6269857 0.054014463 -0.055343981)
(0.037849376 0.00046876315 -0.00040044758)
(0.14393381 0.0018499703 -0.0018462625)
(0.30983701 0.0041460323 -0.0052241844)
(0.54419228 0.0083814016 -0.011936489)
(0.83177876 0.016257162 -0.023085286)
(1.1239686 0.028298396 -0.037803822)
(1.3591018 0.041683639 -0.051176339)
(1.5098564 0.051821567 -0.057745473)
(1.5916185 0.056714311 -0.057164552)
(0.036099231 0.0002317136 -0.00026001536)
(0.1359429 0.0011124642 -0.0013802772)
(0.29074072 0.0028643212 -0.0042471108)
(0.50942702 0.0065649333 -0.010235569)
(0.78079052 0.013990862 -0.020598594)
(1.0638185 0.025990682 -0.034895258)
(1.3020018 0.040279564 -0.04901025)
(1.4633932 0.051920077 -0.057202754)
(1.5539479 0.058113811 -0.058223)
(0.034365923 1.4557704e-06 -8.1711989e-05)
(0.12777815 0.00035971778 -0.00078011209)
(0.27087786 0.0014825759 -0.0030176848)
(0.4727567 0.0044783077 -0.0081299926)
(0.72627473 0.011174961 -0.017472722)
(0.99855843 0.022757652 -0.031003007)
(1.2390211 0.037545473 -0.045515399)
(1.4117323 0.050446472 -0.055204948)
(1.5118126 0.058040659 -0.058116071)
(0.032013722 -0.00037874778 0.00028258211)
(0.11757492 -0.00083388503 0.00035685941)
(0.24713255 -0.0006648247 -0.00088002225)
(0.42982472 0.001228595 -0.0046866781)
(0.66252497 0.0066068 -0.012436282)
(0.92068626 0.01686623 -0.024454427)
(1.1607979 0.031060231 -0.038665513)
(1.3451955 0.044595887 -0.049701185)
(1.4576368 0.053866325 -0.0547591)
(0.037241286 3.6221154e-05 5.5178961e-05)
(0.13345848 -0.00022505632 -5.3928327e-05)
(0.27402736 -0.0012445193 -0.00056358226)
(0.46537972 -0.003650506 -0.0019071913)
(0.70196322 -0.008191813 -0.0048404609)
(0.96018752 -0.015277026 -0.010088534)
(1.2004758 -0.023931433 -0.016555714)
(1.3873264 -0.032579785 -0.022738135)
(1.5009174 -0.039396651 -0.026920513)
(0.03984336 -2.1590874e-05 4.2696688e-06)
(0.14397972 -0.00050040404 -0.0002319733)
(0.29724673 -0.0019470214 -0.00096471641)
(0.50540543 -0.0051149807 -0.0027404293)
(0.75905092 -0.010842659 -0.0064551418)
(1.0278864 -0.019385978 -0.012797329)
(1.2665595 -0.029125336 -0.020194599)
(1.4412535 -0.037744299 -0.026454992)
(1.5430422 -0.043575627 -0.030051847)
(0.041741156 1.8863632e-06 1.9485918e-05)
(0.15212774 -0.00053721009 -0.00022033167)
(0.31585122 -0.0022335203 -0.0010466904)
(0.53794346 -0.0059324161 -0.0031025933)
(0.80534973 -0.012476483 -0.0073973458)
(1.0815419 -0.021913739 -0.014575973)
(1.3165127 -0.032071859 -0.022599948)
(1.4795981 -0.040225903 -0.028797811)
(1.5722957 -0.045129641 -0.031774235)
(0.043595683 -2.2763805e-05 -3.5167402e-06)
(0.15986969 -0.00068278297 -0.0003046611)
(0.33320868 -0.0026349279 -0.0012654984)
(0.56784638 -0.0067820566 -0.0036109273)
(0.84733149 -0.013946975 -0.0084717577)
(1.129508 -0.023875858 -0.016283245)
(1.3606377 -0.033951843 -0.024558128)
(1.5134105 -0.041400614 -0.03047548)
(1.5980059 -0.045372346 -0.032714237)
(0.04520113 -7.842192e-05 -3.9131449e-05)
(0.16673053 -0.00089817748 -0.00041642592)
(0.34880521 -0.003108172 -0.001510159)
(0.59498196 -0.0076462259 -0.0041195452)
(0.88579417 -0.015306896 -0.0095205502)
(1.1736388 -0.025303616 -0.01756075)
(1.4016612 -0.034914971 -0.025764374)
(1.545474 -0.041456995 -0.031164743)
(1.622386 -0.044396203 -0.032552263)
(0.046705416 -0.00018198881 -8.5629411e-05)
(0.17309387 -0.0012211997 -0.00054020423)
(0.36319365 -0.0036936404 -0.0017230794)
(0.62002123 -0.0085267581 -0.0044972621)
(0.92141229 -0.016270375 -0.009986276)
(1.2147579 -0.025908819 -0.017878874)
(1.4403611 -0.034697559 -0.025676642)
(1.5763355 -0.040124787 -0.030318724)
(1.6458566 -0.042053066 -0.030912529)
(0.048265764 -0.00030945961 -0.00012098283)
(0.17934167 -0.0015795723 -0.00060831505)
(0.3768785 -0.0042513296 -0.0017730846)
(0.64344897 -0.0091647589 -0.0044794448)
(0.95424726 -0.016616864 -0.0097027039)
(1.2527578 -0.02551896 -0.017186487)
(1.4764593 -0.033192221 -0.02433128)
(1.6056149 -0.037434925 -0.028181487)
(1.6681557 -0.038436074 -0.028129825)
(0.04964544 -0.00041136479 -0.0001272102)
(0.18484358 -0.0018324176 -0.00057565868)
(0.38891685 -0.0045567604 -0.001610194)
(0.66409456 -0.0092369718 -0.0040079779)
(0.98330689 -0.016046375 -0.008764965)
(1.2866791 -0.023865274 -0.015638394)
(1.5090595 -0.03020947 -0.021996358)
(1.6324267 -0.033256921 -0.025117756)
(1.6886192 -0.033491018 -0.024676807)
(0.050767617 -0.00044608229 -0.00010299641)
(0.18934994 -0.0018491447 -0.00044231823)
(0.39884791 -0.0043726603 -0.0012335893)
(0.68119651 -0.0085118736 -0.0032083164)
(1.0077539 -0.014320097 -0.0073904203)
(1.3155439 -0.020745016 -0.013561517)
(1.537083 -0.025642051 -0.01913114)
(1.6556899 -0.027613733 -0.021668066)
(1.7063677 -0.027352476 -0.021181877)
(0.051634427 -0.0003991146 -6.0518599e-05)
(0.19285245 -0.0015918906 -0.00025892308)
(0.4065977 -0.0036453687 -0.00077479203)
(0.69458619 -0.0069093288 -0.0023043463)
(1.0270157 -0.011366208 -0.0059001804)
(1.338403 -0.016140961 -0.011387592)
(1.5593705 -0.019566941 -0.016301164)
(1.6742542 -0.020697511 -0.018478512)
(1.7204974 -0.02025515 -0.018232726)
(0.052463545 -0.00027677053 -1.8139703e-05)
(0.19583405 -0.0010786273 -8.7479564e-05)
(0.4126786 -0.0024238826 -0.00037189593)
(0.70451295 -0.0045180236 -0.001538536)
(1.0408066 -0.0073250035 -0.004665321)
(1.3544496 -0.010262855 -0.0096207318)
(1.5748543 -0.012269007 -0.014049105)
(1.6870905 -0.012817544 -0.01608488)
(1.7302327 -0.012451348 -0.016109933)
(0.052704095 -9.9109811e-05 6.4296795e-06)
(0.1969015 -0.00038255076 1.0252093e-05)
(0.41516483 -0.00085282505 -0.00014380999)
(0.70895536 -0.0015774402 -0.0011068025)
(1.0473545 -0.0025382427 -0.003974407)