/*--------------------------------*- C++ -*----------------------------------*\
  =========                 |
  \\      /  F ield         | OpenFOAM: The Open Source CFD Toolbox
   \\    /   O peration     | Website:  https://openfoam.org
    \\  /    A nd           | Version:  10
     \\/     M anipulation  |
\*---------------------------------------------------------------------------*/
FoamFile
{
    format      ascii;
    class       volScalarField;
    location    "26";
    object      ddt0(T);
}
// * * * * * * * * * * * * * * * * * * * * * * * * * * * * * * * * * * * * * //

dimensions      [0 0 -1 1 0 0 0];

internalField   nonuniform List<scalar> 
10000
(
1197.35
225.268
326.686
329.662
328.649
328.671
328.728
328.742
328.746
328.748
328.75
328.751
328.753
328.754
328.756
328.757
328.759
328.76
328.762
328.763
328.765
328.766
328.767
328.769
328.77
328.771
328.772
328.774
328.775
328.776
328.777
328.778
328.78
328.781
328.782
328.783
328.784
328.785
328.786
328.787
328.788
328.789
328.789
328.79
328.791
328.792
328.793
328.793
328.794
328.795
328.796
328.796
328.797
328.797
328.798
328.799
328.799
328.8
328.8
328.801
328.801
328.802
328.802
328.802
328.803
328.803
328.804
328.804
328.804
328.804
328.805
328.805
328.805
328.806
328.806
328.806
328.806
328.806
328.806
328.807
328.807
328.807
328.807
328.807
328.807
328.807
328.807
328.808
328.808
328.808
328.808
328.808
328.808
328.808
328.808
328.824
328.942
328.657
313.882
296.267
290.302
-255.755
-104.338
-109.548
-112.709
-112.786
-112.701
-112.683
-112.679
-112.675
-112.671
-112.666
-112.662
-112.657
-112.653
-112.648
-112.644
-112.64
-112.636
-112.631
-112.627
-112.623
-112.619
-112.615
-112.611
-112.607
-112.604
-112.6
-112.596
-112.593
-112.589
-112.586
-112.582
-112.579
-112.576
-112.573
-112.57
-112.567
-112.564
-112.561
-112.558
-112.555
-112.553
-112.55
-112.547
-112.545
-112.543
-112.54
-112.538
-112.536
-112.534
-112.532
-112.53
-112.528
-112.526
-112.525
-112.523
-112.522
-112.52
-112.519
-112.517
-112.516
-112.515
-112.513
-112.512
-112.511
-112.51
-112.509
-112.508
-112.507
-112.506
-112.506
-112.505
-112.504
-112.503
-112.503
-112.502
-112.502
-112.501
-112.501
-112.5
-112.5
-112.499
-112.499
-112.499
-112.499
-112.498
-112.498
-112.498
-112.498
-112.497
-112.497
-112.497
-112.498
-112.5
-112.487
-112.305
-111.662
-115.96
-98.4385
373.657
-121.951
23.0068
14.3452
10.8441
10.8349
10.9489
10.9738
10.9811
10.9881
10.9956
11.0032
11.0107
11.0182
11.0256
11.0329
11.0402
11.0474
11.0544
11.0614
11.0684
11.0752
11.0819
11.0885
11.095
11.1015
11.1078
11.114
11.1201
11.1261
11.1319
11.1377
11.1433
11.1489
11.1543
11.1596
11.1647
11.1698
11.1747
11.1795
11.1841
11.1887
11.1931
11.1974
11.2016
11.2056
11.2095
11.2133
11.217
11.2206
11.224
11.2273
11.2305
11.2336
11.2365
11.2394
11.2421
11.2448
11.2473
11.2497
11.252
11.2542
11.2564
11.2584
11.2603
11.2621
11.2639
11.2655
11.2671
11.2686
11.27
11.2713
11.2726
11.2738
11.2749
11.2759
11.2769
11.2778
11.2787
11.2795
11.2802
11.2809
11.2816
11.2822
11.2827
11.2832
11.2836
11.284
11.2844
11.2847
11.285
11.2853
11.2854
11.2844
11.2783
11.2664
11.3415
11.7465
8.72535
12.442
376.437
-126.087
15.492
6.20712
2.73702
2.76961
2.89588
2.92489
2.93518
2.94521
2.95575
2.96634
2.97684
2.98726
2.99759
3.00782
3.01794
3.02795
3.03785
3.04763
3.05728
3.06681
3.0762
3.08546
3.09457
3.10355
3.11238
3.12106
3.12959
3.13796
3.14618
3.15423
3.16212
3.16985
3.17741
3.1848
3.19203
3.19908
3.20595
3.21265
3.21918
3.22554
3.23172
3.23772
3.24355
3.2492
3.25469
3.26
3.26514
3.2701
3.27491
3.27954
3.28401
3.28832
3.29246
3.29645
3.30029
3.30397
3.3075
3.31088
3.31412
3.31721
3.32017
3.32299
3.32569
3.32825
3.33069
3.333
3.3352
3.33728
3.33925
3.34112
3.34288
3.34453
3.34609
3.34756
3.34893
3.35022
3.35142
3.35253
3.35357
3.35454
3.35543
3.35625
3.357
3.35768
3.35831
3.35887
3.35937
3.35982
3.36022
3.36061
3.36102
3.36098
3.35688
3.34109
3.36171
3.71267
3.40098
3.39185
375.619
-128.808
12.4223
3.1644
-0.258549
-0.208619
-0.0769962
-0.0449148
-0.0316698
-0.0186315
-0.00507641
0.00851075
0.0220023
0.035383
0.048648
0.0617896
0.0747993
0.0876689
0.100391
0.11296
0.125368
0.137612
0.149686
0.161585
0.173304
0.18484
0.196188
0.207344
0.218304
0.229065
0.239623
0.249974
0.260116
0.270045
0.27976
0.289257
0.298535
0.307593
0.316427
0.325039
0.333426
0.341588
0.349526
0.357239
0.364728
0.371993
0.379035
0.385856
0.392458
0.398841
0.405008
0.410961
0.416702
0.422235
0.427561
0.432685
0.437608
0.442335
0.446869
0.451214
0.455373
0.459351
0.463151
0.466777
0.470234
0.473526
0.476657
0.479632
0.482454
0.485129
0.48766
0.490053
0.492311
0.494439
0.496442
0.498322
0.500086
0.501736
0.503277
0.504713
0.506047
0.507284
0.508427
0.509479
0.510444
0.511325
0.512125
0.512847
0.513492
0.514064
0.51457
0.515045
0.515614
0.516317
0.515184
0.502815
0.478163
0.559176
0.622504
0.552834
375.643
-128.876
12.4106
3.19232
-0.213483
-0.157463
-0.0225825
0.012442
0.028682
0.0447408
0.0613101
0.0778946
0.0943628
0.110698
0.126892
0.142937
0.158822
0.174536
0.190071
0.205419
0.220573
0.235525
0.25027
0.264802
0.279114
0.293202
0.307061
0.320685
0.33407
0.34721
0.360103
0.372743
0.385127
0.397252
0.409114
0.42071
0.432039
0.443098
0.453885
0.464399
0.474639
0.484605
0.494296
0.503713
0.512856
0.521726
0.530324
0.538652
0.546711
0.554504
0.562033
0.569301
0.57631
0.583064
0.589567
0.595821
0.601832
0.607603
0.613138
0.618441
0.623519
0.628374
0.633013
0.637439
0.641659
0.645677
0.649499
0.65313
0.656575
0.65984
0.66293
0.66585
0.668606
0.671203
0.673647
0.675943
0.678095
0.680109
0.681989
0.683742
0.68537
0.68688
0.688274
0.689558
0.690736
0.691811
0.692787
0.693667
0.694456
0.695153
0.69576
0.696294
0.69686
0.69776
0.698887
0.696099
0.680664
0.677018
0.686099
0.699603
375.692
-128.803
12.5103
3.30392
-0.0965649
-0.0372829
0.100543
0.138553
0.157812
0.176891
0.196467
0.216039
0.235474
0.254753
0.273867
0.292804
0.311552
0.330101
0.348439
0.366556
0.384444
0.402095
0.419502
0.436657
0.453553
0.470184
0.486544
0.502628
0.518428
0.53394
0.54916
0.564081
0.578699
0.593011
0.607013
0.620701
0.634073
0.647126
0.659858
0.672269
0.684355
0.696118
0.707557
0.718671
0.729462
0.739931
0.750079
0.759907
0.769419
0.778616
0.787502
0.796079
0.804351
0.812322
0.819996
0.827377
0.834471
0.841281
0.847812
0.854071
0.860063
0.865792
0.871266
0.876489
0.881469
0.88621
0.890719
0.895004
0.899068
0.902921
0.906566
0.910012
0.913264
0.916328
0.919211
0.921919
0.924458
0.926834
0.929053
0.93112
0.933041
0.934822
0.936467
0.937981
0.93937
0.940638
0.941789
0.942828
0.943758
0.944582
0.945297
0.945903
0.946433
0.947088
0.948272
0.949283
0.945951
0.938248
0.926287
0.952035
375.705
-128.787
12.533
3.33066
-0.0667276
-0.00449676
0.136316
0.177345
0.199627
0.221717
0.244288
0.266836
0.289226
0.311437
0.333459
0.355277
0.376878
0.39825
0.419379
0.440254
0.460866
0.481206
0.501263
0.521031
0.540501
0.559665
0.578517
0.59705
0.615257
0.633131
0.650667
0.66786
0.684704
0.701194
0.717327
0.733098
0.748505
0.763544
0.778214
0.792512
0.806437
0.819989
0.833167
0.845972
0.858404
0.870465
0.882155
0.893478
0.904436
0.915031
0.925267
0.935148
0.944677
0.95386
0.9627
0.971202
0.979373
0.987217
0.994741
1.00195
1.00885
1.01545
1.02176
1.02777
1.03351
1.03897
1.04416
1.04909
1.05378
1.05821
1.06241
1.06638
1.07012
1.07365
1.07697
1.08009
1.08301
1.08575
1.0883
1.09069
1.0929
1.09495
1.09684
1.09858
1.10018
1.10164
1.10297
1.10417
1.10524
1.10619
1.10701
1.10772
1.10829
1.10879
1.10948
1.11063
1.11138
1.10859
1.09253
1.12113
375.708
-128.782
12.5403
3.34104
-0.0533894
0.0118397
0.155673
0.199725
0.225021
0.25011
0.275663
0.301174
0.326506
0.351637
0.376552
0.401239
0.42568
0.449861
0.473769
0.49739
0.520714
0.543729
0.566425
0.588794
0.610826
0.632512
0.653844
0.674815
0.695417
0.715642
0.735485
0.754939
0.773997
0.792656
0.81091
0.828754
0.846186
0.863202
0.879799
0.895976
0.911731
0.927063
0.941972
0.956459
0.970524
0.984169
0.997394
1.0102
1.0226
1.03459
1.04617
1.05734
1.06812
1.07851
1.08851
1.09813
1.10737
1.11624
1.12475
1.13291
1.14071
1.14818
1.15531
1.16211
1.1686
1.17477
1.18065
1.18623
1.19152
1.19654
1.20129
1.20577
1.21001
1.214
1.21775
1.22128
1.22458
1.22768
1.23057
1.23326
1.23576
1.23808
1.24022
1.24219
1.244
1.24565
1.24714
1.2485
1.24971
1.25078
1.25172
1.25253
1.25319
1.25371
1.25416
1.25489
1.25638
1.25649
1.23488
1.27043
375.71
-128.778
12.5474
3.35118
-0.0402425
0.0280094
0.174865
0.22193
0.250226
0.2783
0.30682
0.335279
0.363538
0.391573
0.419368
0.446908
0.474174
0.501151
0.527823
0.554176
0.580197
0.605874
0.631195
0.656152
0.680732
0.704926
0.728726
0.752122
0.775107
0.797671
0.819808
0.841511
0.862773
0.883588
0.903951
0.923858
0.943303
0.962285
0.980799
0.998845
1.01642
1.03352
1.05015
1.06631
1.082
1.09722
1.11197
1.12626
1.14009
1.15345
1.16637
1.17884
1.19086
1.20244
1.2136
1.22432
1.23463
1.24452
1.25402
1.26311
1.27181
1.28014
1.28809
1.29568
1.30291
1.30979
1.31634
1.32256
1.32847
1.33406
1.33935
1.34436
1.34908
1.35352
1.35771
1.36164
1.36532
1.36877
1.37199
1.37499
1.37778
1.38036
1.38275
1.38495
1.38696
1.3888
1.39047
1.39198
1.39332
1.39452
1.39557
1.39648
1.39724
1.39783
1.39826
1.39875
1.40039
1.4026
1.37335
1.41806
375.711
-128.774
12.555
3.36175
-0.0266503
0.0446189
0.194484
0.244546
0.275826
0.306868
0.338339
0.369729
0.400899
0.431822
0.462481
0.492857
0.522932
0.552688
0.582108
0.611177
0.639879
0.668203
0.696135
0.723663
0.750777
0.777466
0.803719
0.829526
0.854879
0.879768
0.904186
0.928125
0.951576
0.974535
0.996996
1.01895
1.0404
1.06133
1.08175
1.10166
1.12104
1.1399
1.15824
1.17606
1.19337
1.21015
1.22642
1.24217
1.25742
1.27216
1.28641
1.30015
1.31341
1.32618
1.33848
1.35031
1.36167
1.37258
1.38305
1.39307
1.40267
1.41185
1.42061
1.42898
1.43695
1.44454
1.45176
1.45862
1.46513
1.47129
1.47713
1.48264
1.48784
1.49274
1.49736
1.50169
1.50575
1.50955
1.5131
1.5164
1.51947
1.52232
1.52495
1.52737
1.52959
1.53162
1.53346
1.53512
1.5366
1.53792
1.53908
1.54007
1.54092
1.54159
1.54206
1.54245
1.5442
1.54842
1.51136
1.5652
375.713
-128.769
12.5625
3.37236
-0.0130364
0.0612343
0.214091
0.267133
0.301378
0.33537
0.369774
0.404078
0.43814
0.471932
0.505436
0.538631
0.571498
0.604015
0.636166
0.667932
0.6993
0.730253
0.760778
0.790863
0.820494
0.84966
0.87835
0.906554
0.93426
0.961459
0.988143
1.0143
1.03993
1.06502
1.08956
1.11355
1.13699
1.15987
1.18218
1.20392
1.2251
1.24571
1.26575
1.28522
1.30413
1.32247
1.34024
1.35745
1.37411
1.39022
1.40578
1.42079
1.43528
1.44923
1.46267
1.47558
1.488
1.49992
1.51135
1.5223
1.53278
1.5428
1.55238
1.56151
1.57022
1.57851
1.58639
1.59388
1.60099
1.60772
1.61409
1.62011
1.62579
1.63114
1.63618
1.64091
1.64534
1.64949
1.65336
1.65697
1.66032
1.66343
1.6663
1.66894
1.67137
1.67358
1.67559
1.6774
1.67902
1.68046
1.68172
1.68281
1.68373
1.68448
1.68499
1.68534
1.68715
1.69324
1.64935
1.71118
375.715
-128.765
12.5701
3.38289
0.000487061
0.0777398
0.233569
0.28957
0.326761
0.363684
0.401
0.438198
0.475133
0.511774
0.548103
0.584098
0.619736
0.654995
0.689858
0.724304
0.758317
0.791881
0.824982
0.857605
0.889736
0.921362
0.952473
0.983054
1.0131
1.04259
1.07152
1.09989
1.12768
1.15488
1.18149
1.2075
1.23291
1.25771
1.2819
1.30548
1.32844
1.35079
1.37251
1.39362
1.41411
1.43399
1.45326
1.47192
1.48998
1.50744
1.5243
1.54058
1.55628
1.57141
1.58597
1.59997
1.61343
1.62634
1.63873
1.6506
1.66196
1.67282
1.68319
1.69309
1.70253
1.71151
1.72005
1.72817
1.73587
1.74316
1.75006
1.75658
1.76274
1.76854
1.77399
1.77911
1.78391
1.78841
1.7926
1.79651
1.80014
1.80351
1.80662
1.80948
1.8121
1.8145
1.81667
1.81863
1.82039
1.82194
1.82331
1.82449
1.82549
1.8263
1.82686
1.82718
1.82901
1.83665
1.78736
1.85563
375.716
-128.76
12.5776
3.39334
0.0139062
0.0941198
0.252899
0.311839
0.351954
0.391785
0.431993
0.472063
0.511848
0.551319
0.590452
0.629224
0.667612
0.705594
0.743147
0.780252
0.816891
0.853047
0.888703
0.923844
0.958456
0.992524
1.02604
1.05898
1.09134
1.12311
1.15427
1.18483
1.21476
1.24406
1.27272
1.30074
1.3281
1.35482
1.38087
1.40626
1.43099
1.45506
1.47845
1.50119
1.52326
1.54467
1.56541
1.58551
1.60495
1.62375
1.64192
1.65944
1.67635
1.69263
1.70831
1.72339
1.73787
1.75178
1.76511
1.77789
1.79012
1.80181
1.81298
1.82363
1.83379
1.84346
1.85265
1.86139
1.86967
1.87752
1.88495
1.89197
1.89859
1.90483
1.9107
1.91621
1.92138
1.92621
1.93072
1.93493
1.93883
1.94245
1.9458
1.94888
1.9517
1.95427
1.95661
1.95872
1.96061
1.96229
1.96375
1.96502
1.9661
1.96697
1.96758
1.96789
1.96971
1.97848
1.92532
1.99843
375.718
-128.756
12.585
3.4037
0.027216
0.110367
0.272074
0.333929
0.376945
0.419661
0.462737
0.505655
0.548269
0.590545
0.632459
0.673987
0.715103
0.755784
0.796006
0.835748
0.874992
0.913718
0.951908
0.989547
1.02662
1.06311
1.099
1.13429
1.16895
1.20297
1.23635
1.26907
1.30113
1.33251
1.3632
1.39321
1.42252
1.45112
1.47902
1.50622
1.5327
1.55847
1.58352
1.60786
1.6315
1.65442
1.67664
1.69815
1.71897
1.7391
1.75854
1.77731
1.79541
1.81284
1.82962
1.84576
1.86127
1.87616
1.89043
1.90411
1.9172
1.92971
1.94166
1.95307
1.96394
1.97428
1.98412
1.99347
2.00233
2.01073
2.01868
2.02619
2.03327
2.03995
2.04623
2.05212
2.05765
2.06282
2.06765
2.07214
2.07632
2.08019
2.08377
2.08706
2.09008
2.09284
2.09534
2.09759
2.09961
2.1014
2.10297
2.10433
2.10548
2.10642
2.10708
2.10739
2.10919
2.11869
2.06306
2.13952
375.719
-128.751
12.5923
3.41397
0.0404093
0.126473
0.291082
0.355827
0.401719
0.447296
0.493214
0.538957
0.584374
0.62943
0.674101
0.71836
0.762181
0.805537
0.848404
0.890761
0.932586
0.973859
1.01456
1.05468
1.09419
1.13308
1.17133
1.20893
1.24587
1.28213
1.3177
1.35258
1.38674
1.42018
1.45289
1.48486
1.51609
1.54658
1.57631
1.60528
1.6335
1.66096
1.68765
1.71359
1.73877
1.76319
1.78686
1.80979
1.83197
1.85341
1.87412
1.89411
1.91339
1.93196
1.94984
1.96703
1.98355
1.9994
2.01461
2.02917
2.04311
2.05644
2.06917
2.08131
2.09289
2.1039
2.11438
2.12433
2.13377
2.14271
2.15117
2.15917
2.16671
2.17381
2.1805
2.18677
2.19265
2.19816
2.20329
2.20808
2.21253
2.21665
2.22045
2.22395
2.22717
2.2301
2.23276
2.23516
2.23731
2.23921
2.24088
2.24233
2.24355
2.24455
2.24526
2.24559
2.24736
2.25724
2.20039
2.27887
375.721
-128.747
12.5996
3.42415
0.0534779
0.142428
0.309912
0.37752
0.426261
0.474672
0.523408
0.571948
0.620142
0.667953
0.715355
0.76232
0.808819
0.854825
0.900314
0.94526
0.989642
1.03344
1.07663
1.1192
1.16112
1.20239
1.24298
1.28288
1.32207
1.36055
1.3983
1.4353
1.47154
1.50702
1.54173
1.57565
1.60879
1.64113
1.67267
1.70341
1.73335
1.76247
1.79079
1.81831
1.84502
1.87092
1.89603
1.92035
1.94387
1.96662
1.98859
2.00979
2.03024
2.04993
2.06889
2.08712
2.10464
2.12145
2.13757
2.15302
2.1678
2.18193
2.19543
2.2083
2.22057
2.23225
2.24336
2.2539
2.26391
2.27339
2.28235
2.29083
2.29882
2.30635
2.31343
2.32008
2.32631
2.33214
2.33759
2.34266
2.34737
2.35173
2.35576
2.35947
2.36287
2.36598
2.3688
2.37134
2.37362
2.37563
2.3774
2.37893
2.38023
2.38129
2.38205
2.38241
2.38414
2.3941
2.3371
2.41646
375.722
-128.743
12.6068
3.43421
0.0664142
0.158222
0.328553
0.398996
0.450558
0.501775
0.553299
0.604609
0.655553
0.706091
0.756197
0.805841
0.854992
0.903622
0.951705
0.999215
1.04613
1.09242
1.13808
1.18307
1.22739
1.27101
1.31391
1.35609
1.39751
1.43818
1.47808
1.51718
1.55549
1.59299
1.62967
1.66553
1.70055
1.73473
1.76806
1.80054
1.83218
1.86296
1.89289
1.92196
1.95018
1.97756
2.00409
2.02978
2.05464
2.07867
2.10188
2.12428
2.14588
2.16669
2.18672
2.20597
2.22448
2.24224
2.25926
2.27558
2.29119
2.30611
2.32036
2.33396
2.34692
2.35925
2.37098
2.38211
2.39268
2.40268
2.41215
2.42109
2.42953
2.43748
2.44495
2.45197
2.45855
2.4647
2.47045
2.4758
2.48077
2.48537
2.48962
2.49354
2.49713
2.5004
2.50338
2.50606
2.50846
2.51059
2.51246
2.51407
2.51544
2.51656
2.51737
2.51777
2.51947
2.52926
2.47296
2.55227
375.724
-128.738
12.614
3.44417
0.0792112
0.173847
0.346994
0.420242
0.474597
0.52859
0.582873
0.636924
0.690588
0.743825
0.796606
0.8489
0.900675
0.951902
1.00255
1.0526
1.10201
1.15078
1.19887
1.24627
1.29295
1.3389
1.38409
1.42851
1.47215
1.51499
1.55701
1.5982
1.63855
1.67804
1.71668
1.75444
1.79132
1.82732
1.86242
1.89663
1.92995
1.96236
1.99388
2.02449
2.05421
2.08304
2.11097
2.13802
2.16419
2.1895
2.21393
2.23752
2.26026
2.28216
2.30324
2.32352
2.34299
2.36169
2.37961
2.39678
2.41321
2.42892
2.44391
2.45822
2.47186
2.48483
2.49717
2.50889
2.52
2.53053
2.54049
2.5499
2.55877
2.56713
2.57499
2.58237
2.58929
2.59576
2.6018
2.60743
2.61265
2.61749
2.62197
2.62608
2.62985
2.6333
2.63642
2.63924
2.64177
2.64401
2.64597
2.64767
2.6491
2.65028
2.65115
2.65159
2.65325
2.6627
2.60778
2.68628
375.725
-128.734
12.621
3.45402
0.0918628
0.189295
0.365228
0.44125
0.498365
0.555103
0.612115
0.668876
0.72523
0.781136
0.836562
0.891477
0.945847
0.99964
1.05283
1.10538
1.15728
1.20848
1.25899
1.30876
1.35778
1.40602
1.45348
1.50013
1.54595
1.59093
1.63505
1.6783
1.72066
1.76213
1.8027
1.84234
1.88106
1.91886
1.95571
1.99163
2.0266
2.06063
2.09371
2.12585
2.15705
2.1873
2.21663
2.24502
2.27249
2.29905
2.32469
2.34944
2.37331
2.3963
2.41842
2.43969
2.46013
2.47975
2.49855
2.51656
2.5338
2.55028
2.56601
2.58102
2.59533
2.60894
2.62188
2.63417
2.64582
2.65686
2.6673
2.67717
2.68647
2.69524
2.70348
2.71122
2.71847
2.72525
2.73158
2.73748
2.74296
2.74803
2.75272
2.75703
2.76098
2.76459
2.76787
2.77082
2.77347
2.77582
2.77787
2.77965
2.78116
2.78239
2.78331
2.7838
2.78542
2.79439
2.74137
2.81849
375.727
-128.73
12.628
3.46374
0.104363
0.204559
0.383244
0.462008
0.521851
0.581302
0.641011
0.70045
0.759463
0.818006
0.876046
0.933551
0.990484
1.04681
1.10251
1.15754
1.21188
1.26551
1.31839
1.3705
1.42183
1.47235
1.52205
1.57089
1.61887
1.66597
1.71216
1.75745
1.8018
1.84522
1.88769
1.9292
1.96974
2.0093
2.04788
2.08548
2.12209
2.15771
2.19234
2.22599
2.25864
2.29031
2.321
2.35072
2.37947
2.40726
2.43411
2.46001
2.48498
2.50904
2.53219
2.55445
2.57583
2.59635
2.61603
2.63487
2.6529
2.67014
2.6866
2.7023
2.71726
2.7315
2.74503
2.75788
2.77007
2.78161
2.79253
2.80285
2.81257
2.82174
2.83035
2.83844
2.84602
2.85311
2.85973
2.86589
2.87161
2.87691
2.88181
2.88632
2.89045
2.89422
2.89764
2.90073
2.90349
2.90594
2.90809
2.90995
2.91152
2.91282
2.91378
2.91433
2.9159
2.9243
2.87353
2.94886
375.728
-128.726
12.6348
3.47335
0.116707
0.219632
0.401036
0.482507
0.545045
0.607176
0.669548
0.731632
0.793271
0.854418
0.915041
0.975103
1.03457
1.0934
1.15158
1.20905
1.26581
1.32182
1.37705
1.43149
1.4851
1.53786
1.58976
1.64077
1.69088
1.74007
1.78831
1.8356
1.88193
1.92727
1.97161
2.01496
2.05729
2.09861
2.13889
2.17815
2.21638
2.25357
2.28973
2.32485
2.35894
2.39201
2.42405
2.45507
2.48509
2.5141
2.54212
2.56915
2.59522
2.62033
2.64449
2.66772
2.69003
2.71145
2.73198
2.75165
2.77046
2.78844
2.80562
2.822
2.8376
2.85245
2.86657
2.87997
2.89268
2.90472
2.91611
2.92686
2.93701
2.94656
2.95555
2.96398
2.97188
2.97927
2.98616
2.99259
2.99855
3.00408
3.00918
3.01388
3.01818
3.02211
3.02568
3.02889
3.03177
3.03433
3.03657
3.0385
3.04014
3.04149
3.04251
3.04311
3.04464
3.0524
3.00413
3.07738
375.729
-128.722
12.6416
3.48283
0.12889
0.234508
0.418597
0.50274
0.567937
0.632713
0.697714
0.762409
0.826639
0.890357
0.953528
1.01611
1.07808
1.13939
1.2
1.2599
1.31904
1.3774
1.43495
1.49167
1.54753
1.60251
1.65659
1.70974
1.76195
1.8132
1.86346
1.91274
1.961
2.00824
2.05444
2.09959
2.14369
2.18673
2.2287
2.2696
2.30942
2.34816
2.38582
2.4224
2.45791
2.49235
2.52572
2.55803
2.58929
2.6195
2.64868
2.67683
2.70397
2.73011
2.75527
2.77946
2.80269
2.82499
2.84636
2.86683
2.88641
2.90513
2.923
2.94005
2.95629
2.97175
2.98644
3.00038
3.01361
3.02613
3.03798
3.04917
3.05972
3.06965
3.079
3.08777
3.09598
3.10367
3.11084
3.11752
3.12372
3.12946
3.13477
3.13965
3.14412
3.14821
3.15191
3.15526
3.15825
3.1609
3.16323
3.16525
3.16695
3.16835
3.16942
3.17007
3.17157
3.17867
3.133
3.20401
375.731
-128.718
12.6483
3.49218
0.140907
0.249183
0.435918
0.522698
0.590519
0.657904
0.725497
0.792769
0.859555
0.925809
0.991493
1.05657
1.121
1.18475
1.24777
1.31005
1.37154
1.43222
1.49206
1.55104
1.60912
1.66628
1.72251
1.77777
1.83205
1.88533
1.93759
1.98881
2.03898
2.08809
2.13612
2.18306
2.2289
2.27364
2.31727
2.35978
2.40116
2.44143
2.48057
2.5186
2.5555
2.59129
2.62597
2.65954
2.69202
2.72342
2.75374
2.78299
2.81119
2.83835
2.86449
2.88961
2.91375
2.93691
2.95911
2.98037
3.00071
3.02015
3.03871
3.05641
3.07328
3.08932
3.10458
3.11906
3.13278
3.14579
3.15808
3.16969
3.18065
3.19096
3.20065
3.20975
3.21828
3.22625
3.23369
3.24062
3.24705
3.25301
3.25851
3.26357
3.26821
3.27245
3.27629
3.27976
3.28286
3.28562
3.28803
3.29012
3.29189
3.29335
3.29445
3.29516
3.29662
3.30305
3.26002
3.32874
375.732
-128.714
12.6549
3.50139
0.152753
0.263649
0.452994
0.542373
0.61278
0.682738
0.752888
0.822698
0.892004
0.960758
1.02892
1.09645
1.16331
1.22946
1.29487
1.35949
1.4233
1.48627
1.54836
1.60956
1.66983
1.72914
1.78748
1.84482
1.90114
1.95643
2.01065
2.06379
2.11585
2.1668
2.21663
2.26533
2.31289
2.3593
2.40455
2.44865
2.49158
2.53335
2.57395
2.61339
2.65167
2.68879
2.72475
2.75957
2.79326
2.82581
2.85725
2.88759
2.91683
2.94499
2.97209
2.99814
3.02316
3.04717
3.07018
3.09222
3.1133
3.13345
3.15269
3.17103
3.18851
3.20513
3.22094
3.23594
3.25016
3.26363
3.27637
3.2884
3.29974
3.31042
3.32046
3.32988
3.33871
3.34696
3.35466
3.36183
3.36849
3.37466
3.38036
3.3856
3.3904
3.39478
3.39876
3.40235
3.40556
3.40841
3.41091
3.41307
3.4149
3.41641
3.41756
3.41832
3.41975
3.42553
3.38509
3.45152
375.733
-128.71
12.6614
3.51048
0.164425
0.277902
0.469819
0.561758
0.634714
0.707206
0.779874
0.852186
0.923975
0.995192
1.06579
1.13574
1.205
1.27352
1.34126
1.4082
1.47429
1.53951
1.60383
1.66721
1.72963
1.79107
1.85149
1.91088
1.96921
2.02646
2.08262
2.13766
2.19156
2.24433
2.29593
2.34636
2.3956
2.44366
2.49052
2.53618
2.58063
2.62388
2.66591
2.70674
2.74637
2.7848
2.82203
2.85808
2.89294
2.92664
2.95918
2.99058
3.02084
3.04998
3.07803
3.10498
3.13087
3.15571
3.17953
3.20233
3.22414
3.24498
3.26488
3.28386
3.30193
3.31913
3.33547
3.35098
3.36569
3.37962
3.39278
3.40522
3.41694
3.42798
3.43836
3.4481
3.45722
3.46575
3.47371
3.48112
3.488
3.49437
3.50025
3.50566
3.51062
3.51515
3.51926
3.52296
3.52628
3.52923
3.53181
3.53404
3.53593
3.53749
3.53869
3.5395
3.5409
3.54604
3.50811
3.57232
375.735
-128.706
12.6678
3.51942
0.175919
0.291937
0.486386
0.580846
0.656311
0.731298
0.806447
0.881222
0.955456
1.0291
1.1021
1.17443
1.24604
1.31689
1.38694
1.45616
1.5245
1.59194
1.65844
1.72397
1.78851
1.85204
1.91451
1.97591
2.03622
2.09541
2.15347
2.21037
2.2661
2.32064
2.37399
2.42612
2.47703
2.5267
2.57514
2.62233
2.66828
2.71298
2.75642
2.79862
2.83958
2.87929
2.91776
2.95501
2.99104
3.02586
3.05948
3.09192
3.12318
3.15329
3.18226
3.21011
3.23685
3.26251
3.2871
3.31065
3.33318
3.3547
3.37525
3.39484
3.4135
3.43126
3.44813
3.46414
3.47932
3.49369
3.50728
3.52012
3.53222
3.54361
3.55431
3.56436
3.57377
3.58257
3.59077
3.59841
3.60551
3.61208
3.61814
3.62372
3.62884
3.63351
3.63774
3.64156
3.64498
3.64802
3.65068
3.65298
3.65493
3.65654
3.65778
3.65864
3.66001
3.66457
3.629
3.69111
375.736
-128.702
12.6741
3.52822
0.187229
0.305748
0.502689
0.599631
0.677565
0.755007
0.832596
0.909794
0.986434
1.06246
1.13783
1.2125
1.28643
1.35958
1.43189
1.50335
1.5739
1.64352
1.71217
1.77982
1.84645
1.91202
1.97651
2.03989
2.10215
2.16325
2.22317
2.2819
2.33943
2.39572
2.45078
2.50458
2.55712
2.60839
2.65838
2.70708
2.75449
2.80062
2.84545
2.88899
2.93124
2.97222
3.01191
3.05034
3.08751
3.12343
3.15811
3.19157
3.22382
3.25488
3.28475
3.31347
3.34105
3.36751
3.39287
3.41715
3.44037
3.46257
3.48375
3.50394
3.52318
3.54148
3.55886
3.57537
3.59101
3.60582
3.61982
3.63304
3.64551
3.65724
3.66827
3.67861
3.6883
3.69736
3.70581
3.71368
3.72098
3.72775
3.73399
3.73973
3.745
3.7498
3.75416
3.75809
3.76161
3.76474
3.76748
3.76984
3.77185
3.77351
3.77479
3.7757
3.77705
3.78106
3.7477
3.80783
375.737
-128.699
12.6803
3.53688
0.198354
0.319332
0.518723
0.618105
0.698467
0.778324
0.858313
0.937895
1.0169
1.09527
1.17297
1.24994
1.32615
1.40155
1.4761
1.54975
1.62248
1.69424
1.76501
1.83474
1.90342
1.97101
2.03748
2.10281
2.16697
2.22994
2.2917
2.35224
2.41152
2.46954
2.52627
2.58172
2.63586
2.68869
2.7402
2.79038
2.83924
2.88676
2.93295
2.97781
3.02134
3.06355
3.10445
3.14403
3.18232
3.21932
3.25504
3.2895
3.32271
3.3547
3.38546
3.41504
3.44343
3.47068
3.49678
3.52178
3.54569
3.56853
3.59033
3.61112
3.63092
3.64975
3.66764
3.68462
3.70071
3.71595
3.73035
3.74395
3.75677
3.76884
3.78018
3.79082
3.80078
3.8101
3.81878
3.82687
3.83438
3.84133
3.84774
3.85365
3.85906
3.86399
3.86847
3.87251
3.87613
3.87934
3.88215
3.88459
3.88665
3.88835
3.88968
3.89063
3.89196
3.89547
3.86414
3.92246
375.738
-128.695
12.6863
3.54539
0.209288
0.332684
0.534483
0.636263
0.719011
0.801242
0.883589
0.965512
1.04684
1.12752
1.2075
1.28674
1.36519
1.4428
1.51954
1.59536
1.67022
1.74409
1.81693
1.88871
1.9594
2.02897
2.09738
2.16462
2.23066
2.29548
2.35904
2.42134
2.48235
2.54206
2.60045
2.6575
2.71322
2.76758
2.82058
2.87222
2.92248
2.97138
3.0189
3.06505
3.10984
3.15326
3.19533
3.23605
3.27543
3.31349
3.35023
3.38567
3.41983
3.45272
3.48436
3.51476
3.54396
3.57197
3.59881
3.62451
3.64908
3.67256
3.69497
3.71634
3.73668
3.75603
3.77441
3.79186
3.8084
3.82405
3.83884
3.85281
3.86597
3.87837
3.89001
3.90093
3.91116
3.92072
3.92964
3.93794
3.94565
3.95278
3.95937
3.96542
3.97097
3.97604
3.98063
3.98478
3.98849
3.99178
3.99467
3.99717
3.99929
4.00103
4.0024
4.00339
4.0047
4.00776
3.9783
4.03496
375.739
-128.691
12.6923
3.55375
0.220029
0.345798
0.549963
0.654099
0.739191
0.823752
0.908415
0.992639
1.07625
1.15919
1.24142
1.32288
1.40353
1.48332
1.5622
1.64015
1.7171
1.79304
1.86792
1.94171
2.01437
2.08588
2.15621
2.22533
2.29321
2.35983
2.42516
2.48919
2.5519
2.61326
2.67327
2.73191
2.78916
2.84503
2.89949
2.95255
3.00421
3.05445
3.10327
3.15069
3.19671
3.24132
3.28453
3.32636
3.36682
3.40591
3.44365
3.48005
3.51513
3.5489
3.5814
3.61262
3.6426
3.67136
3.69892
3.7253
3.75053
3.77463
3.79763
3.81955
3.84043
3.86029
3.87915
3.89705
3.91402
3.93007
3.94525
3.95957
3.97308
3.98578
3.99772
4.00892
4.01941
4.02921
4.03835
4.04686
4.05476
4.06207
4.06882
4.07502
4.08071
4.0859
4.09061
4.09485
4.09865
4.10203
4.10499
4.10754
4.10972
4.11151
4.11291
4.11394
4.11524
4.1179
4.09012
4.14528
375.741
-128.688
12.6982
3.56195
0.230572
0.358673
0.565159
0.671607
0.758999
0.845848
0.932785
1.01927
1.10512
1.19028
1.27471
1.35835
1.44116
1.52308
1.60408
1.68411
1.76312
1.84109
1.91797
1.99372
2.06833
2.14174
2.21394
2.2849
2.35458
2.42297
2.49004
2.55577
2.62014
2.68313
2.74472
2.80491
2.86368
2.92101
2.97691
3.03137
3.08438
3.13593
3.18604
3.2347
3.28191
3.32769
3.37203
3.41494
3.45645
3.49655
3.53526
3.5726
3.60859
3.64323
3.67655
3.70858
3.73932
3.76881
3.79707
3.82412
3.84998
3.87469
3.89827
3.92074
3.94214
3.96249
3.98182
4.00016
4.01754
4.03399
4.04954
4.06421
4.07804
4.09106
4.10328
4.11475
4.12549
4.13552
4.14488
4.15359
4.16167
4.16915
4.17606
4.18241
4.18823
4.19354
4.19835
4.2027
4.20659
4.21004
4.21307
4.21569
4.21791
4.21974
4.22118
4.22225
4.22354
4.22584
4.19959
4.25338
375.742
-128.684
12.7039
3.57
0.240916
0.371302
0.580067
0.688782
0.778431
0.867524
0.95669
1.04539
1.13344
1.22078
1.30737
1.39315
1.47807
1.56209
1.64515
1.72722
1.80825
1.88821
1.96705
2.04474
2.12124
2.19652
2.27056
2.34332
2.41477
2.4849
2.55367
2.62106
2.68705
2.75163
2.81478
2.87649
2.93673
2.99551
3.05282
3.10864
3.16297
3.21582
3.26718
3.31705
3.36544
3.41235
3.45779
3.50177
3.5443
3.58539
3.62505
3.66331
3.70017
3.73567
3.7698
3.8026
3.8341
3.8643
3.89324
3.92094
3.94742
3.97272
3.99686
4.01987
4.04177
4.0626
4.08239
4.10116
4.11895
4.13578
4.15168
4.1667
4.18084
4.19415
4.20666
4.21839
4.22937
4.23963
4.2492
4.2581
4.26636
4.27401
4.28106
4.28756
4.2935
4.29893
4.30385
4.30829
4.31226
4.31579
4.31888
4.32156
4.32383
4.3257
4.32718
4.32828
4.32956
4.33156
4.30668
4.35924
375.743
-128.681
12.7096
3.57789
0.251057
0.383684
0.594681
0.705619
0.797481
0.888773
0.980125
1.07099
1.1612
1.25067
1.33938
1.42726
1.51425
1.60032
1.68542
1.76949
1.85249
1.9344
2.01516
2.09474
2.1731
2.25021
2.32605
2.40057
2.47376
2.54558
2.61602
2.68504
2.75263
2.81876
2.88343
2.94662
3.00832
3.06851
3.12718
3.18434
3.23997
3.29408
3.34666
3.39772
3.44726
3.49528
3.54179
3.58681
3.63034
3.6724
3.71299
3.75214
3.78987
3.82619
3.86111
3.89468
3.9269
3.95779
3.9874
4.01573
4.04282
4.06869
4.09338
4.1169
4.1393
4.1606
4.18083
4.20002
4.2182
4.2354
4.25165
4.26699
4.28145
4.29505
4.30782
4.3198
4.33102
4.3415
4.35127
4.36036
4.36879
4.3766
4.3838
4.39043
4.3965
4.40203
4.40706
4.41159
4.41564
4.41924
4.4224
4.42513
4.42745
4.42937
4.43088
4.43201
4.43328
4.43501
4.41136
4.46282
375.744
-128.678
12.7151
3.58563
0.260992
0.395815
0.608999
0.722115
0.816143
0.90959
1.00308
1.09608
1.18839
1.27996
1.37074
1.46067
1.5497
1.63777
1.72485
1.81089
1.89583
1.97964
2.06228
2.14371
2.22389
2.3028
2.3804
2.45665
2.53153
2.60501
2.67707
2.74769
2.81684
2.8845
2.95066
3.0153
3.07841
3.13998
3.19999
3.25846
3.31536
3.3707
3.42447
3.47669
3.52735
3.57646
3.62402
3.67005
3.71456
3.75755
3.79906
3.83908
3.87765
3.91477
3.95047
3.98477
4.0177
4.04927
4.07952
4.10847
4.13615
4.16258
4.1878
4.21183
4.23471
4.25646
4.27711
4.29671
4.31527
4.33283
4.34943
4.36508
4.37984
4.39372
4.40675
4.41898
4.43042
4.44111
4.45107
4.46034
4.46894
4.4769
4.48425
4.491
4.49719
4.50284
4.50796
4.51257
4.51671
4.52038
4.5236
4.52638
4.52875
4.5307
4.53224
4.53341
4.53467
4.53616
4.51363
4.56409
375.745
-128.674
12.7205
3.5932
0.27072
0.407692
0.623017
0.738266
0.834415
0.929971
1.02556
1.12063
1.21501
1.30863
1.40144
1.49338
1.58439
1.67444
1.76346
1.85141
1.93824
2.02392
2.1084
2.19164
2.27361
2.35427
2.43359
2.51153
2.58807
2.66318
2.73683
2.809
2.87967
2.94882
3.01644
3.0825
3.14699
3.2099
3.27123
3.33097
3.38911
3.44565
3.5006
3.55394
3.60569
3.65586
3.70445
3.75147
3.79693
3.84084
3.88323
3.9241
3.96349
4.00139
4.03784
4.07287
4.10648
4.13872
4.16959
4.19914
4.22739
4.25437
4.2801
4.30462
4.32796
4.35015
4.37123
4.39121
4.41014
4.42805
4.44498
4.46094
4.47598
4.49013
4.50342
4.51588
4.52754
4.53843
4.54858
4.55803
4.56679
4.5749
4.58238
4.58926
4.59556
4.60131
4.60652
4.61123
4.61544
4.61917
4.62245
4.62529
4.6277
4.62969