/*--------------------------------*- C++ -*----------------------------------*\
  =========                 |
  \\      /  F ield         | OpenFOAM: The Open Source CFD Toolbox
   \\    /   O peration     | Website:  https://openfoam.org
    \\  /    A nd           | Version:  10
     \\/     M anipulation  |
\*---------------------------------------------------------------------------*/
FoamFile
{
    format      ascii;
    class       volScalarField;
    location    "26";
    object      T;
}
// * * * * * * * * * * * * * * * * * * * * * * * * * * * * * * * * * * * * * //

dimensions      [0 0 0 1 0 0 0];

internalField   nonuniform List<scalar> 
10000
(
374.983
361.28
356.593
354.535
353.416
352.707
352.211
351.84
351.548
351.311
351.111
350.94
350.791
350.658
350.539
350.43
350.33
350.238
350.151
350.071
349.994
349.922
349.853
349.787
349.724
349.664
349.605
349.549
349.495
349.442
349.391
349.342
349.294
349.247
349.201
349.157
349.114
349.072
349.03
348.99
348.951
348.913
348.876
348.839
348.804
348.769
348.735
348.702
348.669
348.638
348.607
348.577
348.547
348.519
348.491
348.464
348.437
348.411
348.386
348.362
348.338
348.315
348.293
348.271
348.25
348.229
348.209
348.19
348.171
348.154
348.136
348.12
348.103
348.088
348.073
348.059
348.045
348.032
348.02
348.008
347.997
347.986
347.976
347.967
347.958
347.95
347.942
347.935
347.928
347.922
347.917
347.912
347.908
347.904
347.901
347.898
347.897
347.895
347.894
347.894
388.604
374.823
367.147
362.664
359.833
357.906
356.507
355.438
354.589
353.891
353.304
352.797
352.354
351.959
351.603
351.279
350.981
350.705
350.447
350.205
349.976
349.76
349.554
349.357
349.168
348.987
348.812
348.643
348.481
348.323
348.17
348.022
347.878
347.737
347.601
347.468
347.338
347.212
347.089
346.968
346.851
346.736
346.624
346.515
346.408
346.304
346.202
346.103
346.006
345.911
345.819
345.728
345.64
345.554
345.471
345.389
345.31
345.232
345.157
345.083
345.012
344.943
344.876
344.81
344.747
344.685
344.626
344.568
344.513
344.459
344.407
344.357
344.309
344.262
344.218
344.175
344.134
344.095
344.058
344.022
343.989
343.957
343.927
343.898
343.872
343.847
343.824
343.802
343.783
343.765
343.749
343.734
343.721
343.71
343.701
343.694
343.688
343.684
343.681
343.68
393.213
382.265
374.511
369.141
365.35
362.578
360.473
358.82
357.479
356.365
355.416
354.594
353.87
353.223
352.638
352.104
351.612
351.156
350.729
350.328
349.95
349.59
349.248
348.921
348.607
348.306
348.016
347.736
347.465
347.203
346.948
346.701
346.461
346.228
346.001
345.779
345.563
345.353
345.148
344.948
344.752
344.561
344.375
344.193
344.015
343.841
343.672
343.506
343.344
343.187
343.032
342.882
342.735
342.592
342.453
342.317
342.185
342.056
341.93
341.808
341.689
341.574
341.461
341.353
341.247
341.145
341.045
340.949
340.857
340.767
340.68
340.597
340.517
340.439
340.365
340.294
340.226
340.161
340.099
340.04
339.984
339.931
339.88
339.833
339.789
339.747
339.709
339.673
339.641
339.611
339.584
339.56
339.539
339.52
339.505
339.492
339.482
339.476
339.471
339.47
395.193
386.514
379.489
374.042
369.847
366.582
363.99
361.888
360.146
358.672
357.404
356.294
355.31
354.426
353.624
352.889
352.211
351.579
350.988
350.432
349.906
349.406
348.93
348.474
348.037
347.617
347.213
346.822
346.444
346.078
345.722
345.377
345.042
344.716
344.398
344.089
343.787
343.493
343.206
342.926
342.653
342.386
342.125
341.871
341.622
341.379
341.142
340.91
340.684
340.463
340.248
340.037
339.832
339.632
339.437
339.247
339.062
338.881
338.705
338.535
338.368
338.207
338.05
337.897
337.75
337.606
337.468
337.333
337.203
337.078
336.957
336.84
336.728
336.62
336.516
336.416
336.321
336.23
336.143
336.06
335.982
335.908
335.837
335.771
335.709
335.651
335.597
335.548
335.502
335.46
335.422
335.389
335.359
335.333
335.312
335.294
335.281
335.271
335.265
335.263
396.234
389.11
382.89
377.689
373.417
369.914
367.019
364.598
362.544
360.777
359.234
357.871
356.652
355.551
354.546
353.621
352.764
351.965
351.216
350.509
349.839
349.203
348.595
348.013
347.455
346.918
346.4
345.9
345.416
344.947
344.491
344.049
343.619
343.201
342.794
342.397
342.01
341.633
341.264
340.905
340.554
340.211
339.876
339.549
339.23
338.918
338.614
338.316
338.026
337.742
337.465
337.195
336.932
336.675
336.424
336.18
335.942
335.71
335.484
335.264
335.051
334.843
334.642
334.446
334.256
334.072
333.894
333.721
333.554
333.393
333.238
333.088
332.943
332.804
332.671
332.543
332.421
332.304
332.192
332.086
331.985
331.889
331.799
331.714
331.634
331.56
331.491
331.427
331.368
331.314
331.266
331.223
331.184
331.152
331.124
331.101
331.083
331.071
331.064
331.061
396.865
390.803
385.272
380.409
376.219
372.638
369.576
366.942
364.659
362.658
360.888
359.307
357.88
356.581
355.39
354.289
353.264
352.306
351.405
350.553
349.745
348.975
348.239
347.534
346.857
346.205
345.576
344.968
344.379
343.808
343.254
342.716
342.192
341.683
341.186
340.702
340.231
339.77
339.321
338.883
338.455
338.037
337.628
337.229
336.84
336.459
336.087
335.724
335.37
335.024
334.686
334.356
334.034
333.72
333.414
333.116
332.825
332.542
332.267
331.999
331.738
331.484
331.238
330.999
330.767
330.543
330.325
330.114
329.91
329.714
329.524
329.34
329.164
328.994
328.832
328.675
328.526
328.383
328.247
328.117
327.994
327.877
327.767
327.663
327.565
327.475
327.39
327.312
327.24
327.175
327.115
327.063
327.016
326.976
326.942
326.914
326.893
326.878
326.869
326.866
397.282
391.969
386.987
382.456
378.414
374.845
371.705
368.939
366.492
364.312
362.357
360.591
358.983
357.509
356.148
354.884
353.703
352.595
351.549
350.559
349.617
348.719
347.859
347.034
346.241
345.476
344.738
344.024
343.332
342.661
342.009
341.376
340.76
340.16
339.575
339.005
338.449
337.907
337.377
336.861
336.356
335.863
335.381
334.911
334.451
334.002
333.563
333.135
332.717
332.308
331.91
331.52
331.141
330.77
330.409
330.057
329.714
329.38
329.055
328.738
328.43
328.131
327.841
327.558
327.285
327.019
326.762
326.513
326.273
326.04
325.816
325.6
325.392
325.191
324.999
324.815
324.638
324.469
324.308
324.155
324.01
323.872
323.742
323.619
323.504
323.397
323.297
323.205
323.12
323.043
322.973
322.91
322.856
322.808
322.768
322.735
322.71
322.692
322.681
322.678
397.576
392.804
388.253
384.014
380.136
376.625
373.464
370.621
368.06
365.745
363.642
361.721
359.957
358.327
356.814
355.401
354.076
352.827
351.645
350.523
349.454
348.431
347.452
346.511
345.604
344.73
343.885
343.067
342.274
341.504
340.756
340.029
339.321
338.632
337.96
337.305
336.666
336.042
335.433
334.838
334.257
333.69
333.135
332.594
332.065
331.548
331.043
330.549
330.067
329.597
329.138
328.689
328.252
327.825
327.409
327.004
326.608
326.223
325.849
325.484
325.129
324.784
324.45
324.124
323.809
323.503
323.207
322.92
322.643
322.375
322.116
321.867
321.627
321.396
321.175
320.962
320.759
320.564
320.379
320.202
320.034
319.875
319.725
319.584
319.452
319.328
319.213
319.107
319.009
318.92
318.839
318.767
318.704
318.649
318.603
318.565
318.536
318.515
318.503
318.499
397.79
393.421
389.205
385.215
381.493
378.058
374.907
372.023
369.385
366.969
364.747
362.699
360.801
359.035
357.385
355.837
354.378
352.998
351.689
350.442
349.25
348.11
347.015
345.961
344.945
343.963
343.014
342.094
341.202
340.336
339.494
338.674
337.876
337.098
336.34
335.601
334.879
334.175
333.487
332.815
332.159
331.518
330.891
330.279
329.681
329.096
328.525
327.967
327.422
326.89
326.371
325.864
325.369
324.886
324.415
323.956
323.509
323.074
322.65
322.237
321.835
321.445
321.066
320.698
320.341
319.995
319.66
319.335
319.022
318.718
318.426
318.144
317.872
317.611
317.36
317.119
316.889
316.669
316.459
316.259
316.069
315.889
315.719
315.559
315.409
315.269
315.139
315.019
314.908
314.807
314.716
314.635
314.563
314.501
314.449
314.406
314.373
314.349
314.336
314.331
397.95
393.887
389.934
386.148
382.566
379.21
376.084
373.183
370.494
368.001
365.686
363.531
361.518
359.633
357.861
356.19
354.609
353.107
351.678
350.313
349.006
347.752
346.546
345.383
344.261
343.176
342.125
341.106
340.117
339.156
338.221
337.31
336.424
335.559
334.716
333.893
333.09
332.306
331.54
330.792
330.061
329.347
328.649
327.966
327.3
326.648
326.011
325.389
324.782
324.189
323.609
323.044
322.492
321.953
321.428
320.916
320.417
319.931
319.458
318.998
318.55
318.115
317.692
317.281
316.883
316.497
316.122
315.76
315.41
315.072
314.745
314.43
314.127
313.836
313.556
313.287
313.03
312.784
312.55
312.327
312.115
311.914
311.724
311.546
311.378
311.222
311.077
310.942
310.819
310.706
310.605
310.514
310.434
310.364
310.306
310.258
310.221
310.195
310.18
310.175
398.073
394.243
390.497
386.877
383.416
380.134
377.04
374.134
371.411
368.86
366.47
364.225
362.115
360.125
358.244
356.461
354.767
353.153
351.612
350.135
348.719
347.356
346.044
344.777
343.552
342.366
341.217
340.101
339.017
337.963
336.937
335.938
334.964
334.014
333.087
332.182
331.299
330.436
329.593
328.769
327.964
327.177
326.408
325.657
324.922
324.204
323.502
322.817
322.147
321.493
320.854
320.23
319.622
319.028
318.449
317.884
317.334
316.798
316.276
315.768
315.274
314.794
314.327
313.874
313.435
313.008
312.596
312.196
311.81
311.436
311.076
310.728
310.394
310.072
309.763
309.467
309.183
308.912
308.653
308.407
308.173
307.951
307.742
307.545
307.36
307.188
307.027
306.879
306.743
306.618
306.506
306.406
306.318
306.241
306.177
306.124
306.083
306.055
306.038
306.032
398.167
394.519
390.936
387.45
384.089
380.873
377.811
374.908
372.161
369.565
367.112
364.793
362.597
360.515
358.536
356.652
354.855
353.136
351.49
349.909
348.388
346.923
345.508
344.141
342.817
341.534
340.288
339.079
337.902
336.758
335.643
334.556
333.496
332.462
331.453
330.467
329.505
328.564
327.645
326.746
325.868
325.01
324.171
323.35
322.548
321.764
320.998
320.249
319.518
318.804
318.106
317.425
316.76
316.111
315.478
314.861
314.26
313.674
313.103
312.548
312.008
311.483
310.973
310.478
309.998
309.532
309.08
308.644
308.221
307.813
307.419
307.039
306.673
306.321
305.984
305.66
305.349
305.053
304.77
304.501
304.245
304.003
303.774
303.559
303.356
303.168
302.992
302.83
302.681
302.545
302.422
302.313
302.216
302.133
302.062
302.004
301.96
301.928
301.91
301.904
398.24
394.734
391.278
387.9
384.621
381.46
378.428
375.529
372.765
370.133
367.628
365.244
362.974
360.809
358.742
356.766
354.874
353.058
351.313
349.633
348.014
346.45
344.938
343.474
342.055
340.678
339.34
338.038
336.772
335.539
334.337
333.164
332.02
330.904
329.814
328.748
327.708
326.69
325.696
324.724
323.774
322.844
321.936
321.047
320.179
319.33
318.5
317.688
316.896
316.121
315.365
314.627
313.906
313.202
312.516
311.847
311.195
310.56
309.942
309.34
308.754
308.184
307.631
307.094
306.573
306.068
305.578
305.104
304.646
304.203
303.776
303.364
302.967
302.585
302.218
301.867
301.53
301.208
300.902
300.609
300.332
300.069
299.821
299.587
299.368
299.163
298.973
298.797
298.635
298.487
298.354
298.235
298.13
298.04
297.963
297.901
297.852
297.818
297.798
297.792
398.297
394.9
391.545
388.251
385.039
381.923
378.915
376.021
373.242
370.579
368.03
365.589
363.253
361.014
358.867
356.807
354.826
352.92
351.083
349.31
347.597
345.94
344.335
342.778
341.267
339.798
338.37
336.98
335.626
334.306
333.019
331.763
330.537
329.339
328.169
327.026
325.908
324.816
323.747
322.703
321.681
320.682
319.704
318.749
317.814
316.9
316.007
315.134
314.281
313.447
312.633
311.838
311.061
310.304
309.565
308.844
308.142
307.458
306.791
306.143
305.512
304.898
304.302
303.723
303.162
302.617
302.09
301.579
301.085
300.608
300.147
299.703
299.275
298.864
298.469
298.09
297.727
297.38
297.049
296.734
296.435
296.152
295.884
295.632
295.396
295.175
294.97
294.78
294.606
294.447
294.303
294.175
294.062
293.964
293.882
293.814
293.762
293.725
293.704
293.697
398.34
395.029
391.751
388.523
385.363
382.283
379.294
376.401
373.609
370.919
368.33
365.839
363.442
361.137
358.917
356.778
354.716
352.725
350.801
348.941
347.139
345.392
343.698
342.052
340.452
338.896
337.38
335.904
334.465
333.061
331.69
330.353
329.046
327.769
326.52
325.3
324.107
322.94
321.799
320.682
319.59
318.522
317.477
316.454
315.455
314.477
313.521
312.587
311.674
310.781
309.909
309.058
308.227
307.416
306.624
305.853
305.1
304.367
303.654
302.959
302.283
301.626
300.987
300.367
299.765
299.182
298.616
298.069
297.54
297.028
296.534
296.058
295.6
295.159
294.736
294.329
293.941
293.569
293.214
292.877
292.556
292.252
291.966
291.695
291.442
291.206
290.985
290.782
290.595
290.425
290.271
290.133
290.012
289.907
289.819
289.747
289.691
289.651
289.628
289.621
398.374
395.127
391.908
388.731
385.61
382.556
379.58
376.687
373.882
371.166
368.54
366.002
363.551
361.183
358.896
356.684
354.546
352.476
350.47
348.527
346.64
344.809
343.029
341.297
339.612
337.97
336.371
334.81
333.288
331.802
330.351
328.933
327.547
326.192
324.867
323.571
322.304
321.064
319.85
318.663
317.502
316.365
315.253
314.165
313.101
312.061
311.043
310.048
309.075
308.125
307.196
306.289
305.403
304.539
303.696
302.873
302.072
301.29
300.529
299.789
299.068
298.367
297.686
297.025
296.384
295.762
295.159
294.575
294.011
293.465
292.939
292.431
291.942
291.472
291.02
290.587
290.172
289.776
289.398
289.038
288.696
288.372
288.066
287.778
287.507
287.255
287.02
286.803
286.604
286.422
286.258
286.111
285.982
285.87
285.776
285.699
285.639
285.597
285.572
285.564
398.399
395.2
392.025
388.885
385.792
382.757
379.788
376.892
374.071
371.33
368.669
366.088
363.586
361.161
358.81
356.531
354.32
352.175
350.093
348.07
346.103
344.19
342.328
340.514
338.746
337.023
335.341
333.7
332.097
330.531
329
327.504
326.041
324.61
323.21
321.84
320.499
319.187
317.903
316.646
315.417
314.213
313.035
311.882
310.755
309.651
308.573
307.517
306.486
305.478
304.493
303.531
302.592
301.675
300.78
299.907
299.056
298.227
297.419
296.633
295.868
295.125
294.402
293.7
293.019
292.358
291.718
291.099
290.499
289.92
289.361
288.822
288.303
287.804
287.324
286.864
286.424
286.002
285.601
285.218
284.855
284.511
284.186
283.88
283.593
283.325
283.076
282.845
282.634
282.441
282.266
282.11
281.973
281.854
281.754
281.672
281.609
281.564
281.538
281.529
398.417
395.253
392.109
388.995
385.921
382.897
379.93
377.026
374.189
371.422
368.728
366.105
363.555
361.075
358.665
356.322
354.043
351.827
349.672
347.573
345.529
343.538
341.597
339.704
337.857
336.054
334.293
332.572
330.891
329.247
327.639
326.067
324.528
323.022
321.548
320.106
318.693
317.311
315.957
314.632
313.335
312.065
310.822
309.605
308.415
307.25
306.111
304.997
303.907
302.842
301.801
300.785
299.792
298.823
297.877
296.955
296.055
295.179
294.325
293.494
292.685
291.898
291.134
290.392
289.672
288.973
288.296
287.641
287.007
286.394
285.803
285.233
284.684
284.155
283.648
283.161
282.695
282.25
281.825
281.42
281.036
280.672
280.328
280.004
279.701
279.417
279.153
278.909
278.685
278.481
278.296
278.132
277.986
277.861
277.755
277.668
277.601
277.554
277.526
277.517
398.429
395.288
392.165
389.068
386.005
382.985
380.015
377.1
374.244
371.451
368.723
366.061
363.464
360.932
358.465
356.061
353.718
351.435
349.209
347.038
344.921
342.855
340.838
338.869
336.945
335.065
333.227
331.43
329.672
327.952
326.269
324.622
323.009
321.43
319.884
318.37
316.887
315.435
314.013
312.621
311.257
309.922
308.615
307.335
306.083
304.857
303.658
302.486
301.339
300.218
299.122
298.051
297.006
295.985
294.989
294.017
293.07
292.146
291.247
290.371
289.518
288.69
287.884
287.102
286.343
285.606
284.893
284.202
283.534
282.888
282.265
281.664
281.085
280.528
279.993
279.48
278.989
278.519
278.071
277.644
277.239
276.855
276.493
276.151
275.831
275.532
275.254
274.997
274.76
274.545
274.35
274.176
274.023
273.891
273.779
273.688
273.617
273.567
273.537
273.528
398.436
395.31
392.198
389.109
386.05
383.029
380.051
377.121
374.245
371.425
368.663
365.961
363.319
360.738
358.217
355.754
353.35
351.002
348.709
346.469
344.281
342.142
340.052
338.009
336.011
334.056
332.144
330.272
328.44
326.646
324.89
323.169
321.484
319.834
318.217
316.633
315.081
313.561
312.072
310.613
309.184
307.785
306.415
305.073
303.759
302.474
301.216
299.986
298.782
297.605
296.455
295.331
294.234
293.162
292.116
291.095
290.1
289.13
288.185
287.265
286.37
285.499
284.653
283.831
283.033
282.26
281.51
280.784
280.082
279.403
278.748
278.117
277.508
276.923
276.36
275.821
275.305
274.811
274.34
273.892
273.466
273.062
272.681
272.322
271.986
271.671
271.379
271.109
270.86
270.634
270.429
270.246
270.085
269.946
269.828
269.732
269.658
269.605
269.574
269.564
398.439
395.319
392.212
389.124
386.062
383.034
380.044
377.097
374.198
371.35
368.554
365.813
363.127
360.497
357.923
355.405
352.941
350.53
348.173
345.866
343.61
341.402
339.242
337.127
335.057
333.03
331.045
329.1
327.196
325.33
323.502
321.71
319.955
318.234
316.548
314.896
313.276
311.689
310.134
308.61
307.117
305.654
304.222
302.819
301.445
300.1
298.784
297.497
296.237
295.006
293.802
292.626
291.476
290.354
289.259
288.19
287.148
286.132
285.142
284.178
283.241
282.328
281.442
280.581
279.745
278.934
278.148
277.388
276.652
275.941
275.254
274.592
273.954
273.341
272.751
272.186
271.645
271.127
270.634
270.164
269.717
269.294
268.895
268.519
268.166
267.836
267.529
267.246
266.985
266.748
266.533
266.342
266.173
266.027
265.903
265.803
265.725
265.67
265.637
265.627
398.439
395.318
392.208
389.116
386.046
383.006
380.001
377.034
374.11
371.232
368.401
365.621
362.892
360.215
357.589
355.016
352.495
350.025
347.604
345.234
342.911
340.636
338.407
336.224
334.084
331.986
329.931
327.916
325.941
324.005
322.107
320.246
318.421
316.632
314.878
313.158
311.472
309.819
308.199
306.611
305.055
303.53
302.037
300.573
299.14
297.738
296.364
295.021
293.706
292.42
291.163
289.935
288.735
287.563
286.419
285.302
284.213
283.152
282.118
281.111
280.131
279.178
278.251
277.351
276.477
275.63
274.809
274.014
273.245
272.501
271.783
271.091
270.424
269.783
269.167
268.576
268.01
267.469
266.953
266.461
265.994
265.552
265.134
264.741
264.372
264.027
263.707
263.41
263.138
262.889
262.665
262.465
262.288
262.135
262.006
261.901
261.819
261.762
261.727
261.717
398.436
395.308
392.19
389.088
386.006
382.951
379.926
376.936
373.985
371.076
368.21
365.391
362.618
359.894
357.219
354.593
352.016
349.487
347.007
344.574
342.188
339.847
337.552
335.301
333.093
330.928
328.804
326.72
324.677
322.672
320.706
318.777
316.884
315.028
313.208
311.422
309.671
307.953
306.269
304.619
303
301.414
299.86
298.338
296.846
295.386
293.956
292.557
291.188
289.849
288.54
287.26
286.01
284.788
283.596
282.433
281.298
280.192
279.114
278.064
277.042
276.048
275.082
274.144
273.233
272.349
271.493
270.664
269.861
269.086
268.337
267.615
266.92
266.251
265.608
264.992
264.401
263.837
263.298
262.785
262.298
261.837
261.401
260.991
260.606
260.246
259.912
259.602
259.318
259.059
258.825
258.616
258.431
258.272
258.137
258.027
257.942
257.882
257.846
257.835
398.43
395.29
392.16
389.043
385.945
382.87
379.824
376.809
373.829
370.887
367.985
365.126
362.311
359.541
356.816
354.138
351.507
348.921
346.382
343.889
341.44
339.037
336.677
334.361
332.087
329.855
327.665
325.514
323.404
321.332
319.299
317.303
315.345
313.423
311.537
309.687
307.872
306.091
304.345
302.632
300.953
299.307
297.693
296.112
294.564
293.047
291.561
290.108
288.685
287.293
285.932
284.602
283.302
282.032
280.792
279.582
278.402
277.251
276.13
275.038
273.975
272.941
271.936
270.959
270.011
269.092
268.201
267.338
266.503
265.696
264.917
264.165
263.441
262.745
262.076
261.434
260.82
260.232
259.671
259.138
258.631
258.15
257.696
257.269
256.868
256.494
256.146
255.824
255.528
255.258
255.014
254.796
254.604
254.438
254.298
254.184
254.095
254.032
253.995
253.984
398.422
395.266
392.119
388.984
385.866
382.769
379.697
376.655
373.644
370.669
367.73
364.831
361.973
359.157
356.384
353.655
350.97
348.329
345.733
343.181
340.672
338.207
335.784
333.405
331.067
328.77
326.515
324.299
322.123
319.986
317.888
315.827
313.804
311.818
309.868
307.955
306.077
304.234
302.426
300.653
298.914
297.208
295.537
293.898
292.293
290.72
289.18
287.672
286.197
284.753
283.341
281.961
280.612
279.294
278.007
276.752
275.526
274.332
273.168
272.034
270.93
269.857
268.813
267.799
266.814
265.859
264.934
264.037
263.17
262.332
261.523
260.742
259.99
259.267
258.571
257.905
257.266
256.656
256.073
255.519
254.992
254.493
254.021
253.577
253.161
252.772
252.41
252.075
251.768
251.487
251.234
251.007
250.808
250.635
250.49
250.371
250.279
250.214
250.175
250.163
398.412
395.237
392.069
388.912
385.771
382.649
379.55
376.478
373.435
370.425
367.449
364.51
361.609
358.747
355.926
353.147
350.41
347.715
345.062
342.452
339.885
337.359
334.876
332.434
330.034
327.674
325.355
323.076
320.836
318.635
316.473
314.349
312.263
310.213
308.201
306.226
304.286
302.383
300.514
298.681
296.883
295.12
293.391
291.696
290.035
288.407
286.813
285.253
283.725
282.23
280.768
279.338
277.941
276.576
275.243
273.942
272.672
271.434
270.228
269.053
267.909
266.796
265.714
264.663
263.643
262.653
261.693
260.764
259.865
258.995
258.156
257.347
256.567
255.817
255.096
254.404
253.742
253.109
252.505
251.93
251.383
250.866
250.377
249.916
249.484
249.08
248.705
248.358
248.039
247.748
247.485
247.25
247.043
246.864
246.713
246.59
246.494
246.427
246.387
246.374
398.401
395.202
392.011
388.83
385.663
382.513
379.385
376.281
373.205
370.159
367.144
364.164
361.22
358.313
355.445
352.616
349.827
347.079
344.372
341.705
339.08
336.496
333.953
331.451
328.99
326.569
324.187
321.846
319.544
317.281
315.056
312.87
310.721
308.611
306.537
304.501
302.501
300.537
298.61
296.719
294.863
293.042
291.257
289.506
287.79
286.109
284.462
282.849
281.27
279.725
278.213
276.735
275.29
273.878
272.499
271.154
269.84
268.56
267.312
266.096
264.912
263.761
262.641
261.553
260.497
259.473
258.479
257.517
256.587
255.687
254.818
253.98
253.173
252.396
251.65
250.934
250.248
249.593
248.967
248.372
247.806
247.27
246.763
246.287
245.839
245.421
245.032
244.673
244.343
244.041
243.769
243.526
243.312
243.126
242.97
242.842
242.743
242.673
242.631
242.618
398.388
395.164
391.946
388.738
385.542
382.363
379.204
376.067
372.956
369.873
366.819
363.798
360.811
357.859
354.944
352.066
349.226
346.425
343.664
340.943
338.261
335.62
333.018
330.457
327.936
325.455
323.013
320.611
318.248
315.923
313.638
311.391
309.182
307.01
304.877
302.781
300.722
298.7
296.714
294.765
292.853
290.976
289.135
287.33
285.56
283.826
282.126
280.462
278.832
277.237
275.677
274.151
272.659
271.201
269.778
268.388
267.032
265.709
264.42
263.164
261.941
260.751
259.594
258.47
257.379
256.32
255.293
254.299
253.337
252.408
251.51
250.643
249.809
249.006
248.235
247.495
246.786
246.108
245.461
244.846
244.261
243.707
243.183
242.69
242.227
241.795
241.393
241.022
240.68
240.369
240.087
239.836
239.614
239.422
239.26
239.128
239.026
238.953
238.91
238.897
398.374
395.121
391.875
388.638
385.412
382.201
379.009
375.838
372.691
369.57
366.477
363.414
360.383
357.386
354.424
351.497
348.608
345.755
342.941
340.166
337.429
334.731
332.073
329.454
326.874
324.334
321.833
319.371
316.948
314.564
312.219
309.912
307.644
305.414
303.221
301.067
298.95
296.87
294.828
292.822
290.854
288.922
287.027
285.168
283.345
281.558
279.807
278.092
276.413
274.769
273.161
271.588
270.05
268.547
267.079
265.645
264.246
262.882
261.552
260.257
258.995
257.768
256.574
255.414
254.288
253.196
252.137
251.111
250.118
249.158
248.231
247.337
246.476
245.647
244.851
244.087
243.355
242.656
241.988
241.353
240.749
240.177
239.636
239.127
238.649
238.203
237.788
237.405
237.052
236.73
236.44
236.18
235.951
235.753
235.586
235.45
235.344
235.269
235.224
235.21
398.359
395.076
391.799
388.53
385.273
382.029
378.803
375.596
372.411
369.252
366.118
363.014
359.94
356.898
353.889
350.914
347.975
345.071
342.205
339.376
336.585
333.832
331.118
328.443
325.806
323.208
320.649
318.129
315.648
313.205
310.802
308.436
306.11
303.822
301.571
299.36
297.186
295.05
292.951
290.89
288.867
286.881
284.932
283.02
281.145
279.307
277.506
275.741
274.013
272.321
270.666
269.046
267.462
265.915
264.403
262.927
261.486
260.081
258.711
257.376
256.077
254.812
253.582
252.387
251.227
250.101
249.009
247.952
246.929
245.94
244.984
244.063
243.175
242.321
241.5
240.713
239.958
239.237
238.549
237.894
237.271
236.681
236.124
235.599
235.107
234.646
234.219
233.823
233.459
233.128
232.828
232.56
232.324
232.12
231.948
231.807
231.698
231.621
231.575
231.56
398.343
395.028
391.719
388.417
385.126
381.848
378.586
375.342
372.12
368.921
365.747
362.6
359.482
356.395
353.34
350.317
347.329
344.375
341.458
338.576
335.732
332.925
330.156
327.425
324.732
322.078
319.462
316.885
314.347
311.847
309.386
306.963
304.58
302.235
299.928
297.66
295.43
293.239
291.085
288.97
286.893
284.854
282.852
280.889
278.963
277.074
275.223
273.41
271.633
269.894
268.192
266.526
264.898
263.306
261.751
260.233
258.751
257.306
255.896
254.523
253.186
251.884
250.619
249.389
248.195
247.036
245.913
244.824
243.771
242.753
241.77
240.821
239.907
239.028
238.183
237.372
236.595
235.853
235.144
234.469
233.828
233.221
232.647
232.107
231.6
231.126
230.685
230.278
229.903
229.562
229.253
228.977
228.734
228.524
228.346
228.201
228.089
228.009
227.962
227.947
398.326
394.978
391.634
388.298
384.972
381.658
378.36
375.079
371.817
368.578
365.363
362.174
359.013
355.881
352.779
349.709
346.672
343.669
340.701
337.768
334.871
332.011
329.188
326.402
323.655
320.945
318.273
315.64
313.046
310.49
307.973
305.495
303.055
300.654
298.292
295.969
293.684
291.439
289.231
287.063
284.933
282.841
280.788
278.774
276.797
274.859
272.959
271.097
269.274
267.488
265.74
264.03
262.357
260.722
259.125
257.565
256.042
254.557
253.109
251.698
250.323
248.986
247.685
246.421
245.194
244.002
242.847
241.729
240.646
239.599
238.588
237.613
236.673
235.769
234.9
234.066
233.267
232.504
231.775
231.081
230.422
229.797
229.207
228.651
228.129
227.642
227.189
226.77
226.385
226.033
225.716
225.432
225.182
224.966
224.783
224.634
224.518
224.436
224.388
224.372
398.309
394.925
391.547
388.175
384.813
381.462
378.126
374.807
371.506
368.227
364.97
361.738
358.533
355.356
352.208
349.091
346.006
342.954
339.936
336.952
334.004
331.091
328.215
325.376
322.575
319.811
317.085
314.397
311.747
309.136
306.564
304.031
301.537
299.081
296.665
294.287
291.949
289.65
287.39
285.169
282.987
280.844
278.741
276.676
274.65
272.663
270.715
268.806
266.936
265.104
263.311
261.557
259.841
258.163
256.524
254.923
253.361
251.836
250.35
248.901
247.49
246.117
244.782
243.484
242.224
241
239.814
238.666
237.554
236.479
235.44
234.438
233.473
232.544
231.652
230.795
229.975
229.191
228.442
227.729
227.052
226.41
225.804
225.233
224.697
224.196
223.731
223.3
222.904
222.543
222.217
221.926
221.669
221.446
221.259
221.106
220.987
220.902
220.852
220.837
398.291
394.871
391.457
388.048
384.649
381.261
377.886
374.528
371.187
367.867
364.568
361.294
358.045
354.823
351.629
348.466
345.333
342.232
339.165
336.131
333.131
330.167
327.239
324.348
321.493
318.676
315.896
313.155
310.451
307.787
305.161
302.573
300.025
297.516
295.047
292.616
290.225
287.874
285.562
283.29
281.057
278.864
276.71
274.596
272.522
270.487
268.492
266.536
264.62
262.743
260.906
259.108
257.349
255.63
253.95
252.309
250.707
249.144
247.619
246.134
244.687
243.279
241.91
240.579
239.286
238.031
236.814
235.636
234.495
233.392
232.327
231.299
230.309
229.356
228.44
227.561
226.72
225.915
225.147
224.415
223.72
223.061
222.439
221.853
221.303
220.789
220.312
219.87
219.463
219.093
218.758
218.459
218.195
217.967
217.774
217.617
217.495
217.408
217.357
217.341
398.272
394.816
391.364
387.918
384.481
381.054
377.641
374.243
370.862
367.5
364.16
360.842
357.55
354.283
351.044
347.834
344.654
341.505
338.388
335.305
332.256
329.241
326.262
323.319
320.412
317.542
314.71
311.916
309.16
306.442
303.763
301.123
298.522
295.961
293.439
290.956
288.514
286.111
283.748
281.425
279.142
276.9
274.697
272.535
270.413
268.331
266.29
264.288
262.327
260.406
258.525
256.685
254.884
253.123
251.403
249.722
248.081
246.48
244.919
243.397
241.915
240.473
239.069
237.705
236.381
235.095
233.848
232.641
231.472
230.341
229.249
228.196
227.181
226.204
225.265
224.365
223.502
222.677
221.889
221.139
220.427
219.752
219.114
218.513
217.949
217.422
216.932
216.479
216.062
215.683
215.339
215.032
214.762
214.528
214.33
214.169
214.044
213.955
213.903
213.886
398.254
394.759
391.269
387.786
384.31
380.844
377.391
373.953
370.531
367.128
363.745
360.385
357.048
353.737
350.453
347.197
343.97
340.773
337.609
334.476
331.378
328.313
325.284
322.29
319.332
316.411
313.527
310.681
307.873
305.103
302.372
299.681
297.028
294.415
291.842
289.308
286.815
284.362
281.949
279.577
277.245
274.954
272.703
270.494
268.325
266.197
264.11
262.063
260.058
258.093
256.17
254.287
252.445
250.644
248.884
247.164
245.485
243.847
242.249
240.692
239.175
237.698
236.262
234.866
233.509
232.193
230.917
229.68
228.483
227.326
226.208
225.13
224.09
223.09
222.128
221.206
220.322
219.477
218.671
217.903
217.173
216.481
215.828
215.213
214.635
214.095
213.593
213.129
212.703
212.313
211.962
211.647
211.37
211.131
210.928
210.763
210.635
210.544
210.49
210.473
398.234
394.701
391.173
387.651
384.136
380.631
377.138
373.659
370.196
366.751
363.327
359.923
356.543
353.187
349.858
346.556
343.282
340.039
336.827
333.646
330.499
327.385
324.306
321.262
318.254
315.282
312.348
309.451
306.592
303.771
300.99
298.247
295.544
292.88
290.257
287.673
285.13
282.628
280.166
277.745
275.365
273.026
270.729
268.472
266.258
264.084
261.952
259.862
257.813
255.806
253.84
251.916
250.033
248.192
246.393
244.635
242.919
241.244
239.61
238.018
236.466
234.956
233.488
232.06
230.673
229.326
228.021
226.756
225.532
224.348
223.204
222.1
221.037
220.014
219.03
218.086
217.182
216.317
215.492
214.706
213.959
213.252
212.583
211.953
211.362
210.81
210.296
209.821
209.384
208.986
208.626
208.305
208.021
207.776
207.568
207.399
207.268
207.175
207.12
207.102
398.215
394.643
391.076
387.514
383.959
380.414
376.881
373.362
369.858
366.371
362.904
359.458
356.034
352.634
349.26
345.912
342.593
339.303
336.044