/*--------------------------------*- C++ -*----------------------------------*\
| =========                 |                                                 |
| \\      /  F ield         | OpenFOAM: The Open Source CFD Toolbox           |
|  \\    /   O peration     | Version:  2406                                  |
|   \\  /    A nd           | Website:  www.openfoam.com                      |
|    \\/     M anipulation  |                                                 |
\*---------------------------------------------------------------------------*/
FoamFile
{
    version     2.0;
    format      ascii;
    arch        "LSB;label=32;scalar=64";
    class       volScalarField;
    location    "1";
    object      p;
}
// * * * * * * * * * * * * * * * * * * * * * * * * * * * * * * * * * * * * * //

dimensions      [0 2 -2 0 0 0 0];

internalField   nonuniform List<scalar> 
34560
(
1.6695878
1.674451
1.6795673
1.6854052
1.6945098
1.7104437
1.7336544
1.7611316
1.7858968
1.6400072
1.6450874
1.6502329
1.6569974
1.6691232
1.6903168
1.7193648
1.7497226
1.7730191
1.634621
1.6392366
1.6429105
1.6473609
1.6577584
1.6791471
1.7094587
1.7396832
1.7622933
1.6352377
1.6390337
1.641007
1.6431116
1.651233
1.6712951
1.7009593
1.7308213
1.7536207
1.6428339
1.6455921
1.6452311
1.6441177
1.6492303
1.6670903
1.6954756
1.7250197
1.747519
1.6608682
1.6620242
1.6585797
1.6529352
1.6532648
1.6675432
1.6938797
1.7224274
1.7444354
1.6847101
1.6841093
1.6774311
1.6670848
1.6621211
1.6720093
1.6958235
1.7230013
1.7448173
1.7135685
1.7109727
1.7007971
1.6854336
1.6747636
1.6799229
1.7009036
1.7265282
1.7488856
1.744918
1.7401944
1.7264802
1.7061239
1.6897621
1.6901822
1.7083041
1.7326287
1.7561315
1.775363
1.7685018
1.7514347
1.7264927
1.7048918
1.7009396
1.7166955
1.7401124
1.765086
1.8002369
1.7914666
1.7716158
1.7430797
1.7175139
1.710559
1.7238421
1.7470697
1.773643
1.8141325
1.8043696
1.7830817
1.7527094
1.7251607
1.7166
1.7279135
1.7516878
1.7793911
1.8141327
1.8043698
1.7830818
1.7527094
1.7251606
1.7165999
1.7279134
1.7516877
1.7793908
1.8002372
1.791467
1.7716161
1.7430798
1.7175137
1.7105587
1.7238417
1.7470691
1.7736423
1.7753635
1.7685025
1.7514354
1.7264931
1.7048918
1.7009392
1.7166948
1.7401115
1.7650853
1.7449201
1.7401963
1.7264818
1.7061249
1.6897623
1.6901817
1.7083031
1.7326276
1.756131
1.7135723
1.7109758
1.7007995
1.6854351
1.6747643
1.6799226
1.7009027
1.7265272
1.748885
1.6847136
1.6841123
1.6774338
1.667087
1.6621226
1.6720099
1.6958232
1.7230005
1.7448161
1.660871
1.662027
1.6585824
1.6529378
1.653267
1.6675446
1.6938801
1.7224267
1.7444334
1.6428368
1.645595
1.6452339
1.6441204
1.6492327
1.6670921
1.6954764
1.7250191
1.7475167
1.6352405
1.6390365
1.6410097
1.6431141
1.6512352
1.6712968
1.7009599
1.7308205
1.7536187
1.6346239
1.6392394
1.6429131
1.6473631
1.6577605
1.6791486
1.7094589
1.7396817
1.7622917
1.6400102
1.6450901
1.6502355
1.6569996
1.669125
1.6903181
1.7193649
1.7497212
1.7730172
1.6695902
1.6744533
1.6795695
1.6854072
1.6945114
1.7104449
1.7336554
1.7611317
1.7858953
1.4316778
1.4323088
1.432544
1.43235
1.4323577
1.4333953
1.4354794
1.4376152
1.4396168
1.4235879
1.4244926
1.42489
1.4247576
1.4250064
1.4267917
1.4302244
1.4342555
1.4382315
1.4204574
1.421577
1.4219415
1.4215301
1.4216216
1.4237696
1.428083
1.4331825
1.4381783
1.4234541
1.4247925
1.4250428
1.4241293
1.4237083
1.4257863
1.4304794
1.4363131
1.4422595
1.4326386
1.4341928
1.4342785
1.4327279
1.4315938
1.433379
1.4383569
1.4448322
1.4516823
1.4471401
1.4490374
1.4490812
1.4469586
1.4451321
1.446681
1.4519868
1.4590917
1.4667665
1.4668426
1.4691106
1.4691734
1.4665487
1.4641027
1.4655085
1.4712619
1.47905
1.4874735
1.490232
1.4929224
1.4931393
1.4902053
1.4873596
1.4888486
1.4952823
1.5038542
1.5129378
1.5151727
1.5183175
1.5188245
1.5158233
1.5128762
1.5147266
1.5220754
1.5315876
1.5412329
1.5385534
1.5421703
1.5430937
1.5402799
1.537542
1.5400079
1.5484271
1.5590025
1.5691238
1.5569516
1.5609742
1.5623219
1.5598264
1.5574673
1.5606253
1.5699936
1.5815674
1.5920765
1.5674448
1.5716379
1.5731903
1.5708768
1.568761
1.572348
1.5822605
1.59445
1.6051857
1.5674449
1.5716379
1.5731904
1.5708769
1.568761
1.572348
1.5822605
1.5944499
1.6051855
1.5569519
1.5609745
1.5623222
1.5598267
1.5574676
1.5606254
1.5699935
1.581567
1.5920759
1.5385541
1.542171
1.5430944
1.5402806
1.5375426
1.5400083
1.5484272
1.5590021
1.5691229
1.5151741
1.5183188
1.5188257
1.5158244
1.5128772
1.5147273
1.5220756
1.5315873
1.541232
1.4902338
1.4929242
1.493141
1.4902069
1.4873611
1.4888498
1.495283
1.5038541
1.5129369
1.4668447
1.4691127
1.4691755
1.4665508
1.4641048
1.4655102
1.4712631
1.4790501
1.4874725
1.4471422
1.4490397
1.4490837
1.4469613
1.4451348
1.4466834
1.4519884
1.4590922
1.4667656
1.432641
1.4341954
1.4342814
1.432731
1.431597
1.4333818
1.438359
1.444833
1.4516816
1.4234571
1.4247956
1.4250462
1.4241329
1.4237119
1.4257896
1.4304819
1.4363142
1.4422594
1.4204611
1.4215807
1.4219454
1.4215342
1.4216257
1.4237735
1.4280862
1.4331844
1.4381791
1.4235924
1.4244972
1.4248946
1.4247622
1.4250111
1.4267963
1.4302287
1.4342591
1.4382332
1.4316829
1.4323139
1.4325492
1.4323552
1.4323629
1.4334006
1.435485
1.4376204
1.4396196
1.3836226
1.3836398
1.3836515
1.3836637
1.383698
1.3838217
1.3841149
1.384634
1.3855653
1.3813867
1.3813876
1.3814045
1.3814828
1.3816674
1.3820412
1.3826971
1.383665
1.3849832
1.3799752
1.3799618
1.3799499
1.3799859
1.3801377
1.3805344
1.3813157
1.3825077
1.384036
1.3788712
1.3788483
1.3788202
1.3788287
1.3789398
1.3793062
1.3801214
1.3814521
1.3831714
1.3782084
1.3781807
1.3781356
1.3781047
1.3781476
1.3784376
1.3792229
1.3806224
1.3824818
1.3780447
1.3780102
1.3779435
1.3778616
1.3778106
1.3779799
1.3786743
1.3800688
1.3820024
1.3782585
1.3782287
1.3781529
1.3780312
1.3778877
1.3779206
1.3784869
1.3798179
1.381768
1.3787919
1.3787729
1.3786958
1.3785427
1.3783133
1.3782089
1.3786346
1.3798635
1.3817802
1.3795167
1.3795119
1.3794432
1.37927
1.3789701
1.3787431
1.3790344
1.3801547
1.3820076
1.380282
1.3802925
1.3802356
1.3800535
1.3797032
1.3793794
1.3795593
1.3805833
1.3823679
1.3809201
1.3809434
1.3808986
1.3807158
1.3803361
1.3799489
1.3800524
1.3810069
1.3827362
1.3812933
1.3813225
1.3812841
1.3811018
1.3807083
1.3802893
1.3803535
1.3812722
1.3829712
1.3812933
1.3813226
1.3812842
1.3811019
1.3807084
1.3802894
1.3803536
1.3812722
1.3829711
1.3809204
1.3809437
1.380899
1.3807162
1.3803366
1.3799493
1.3800526
1.3810069
1.3827359
1.3802826
1.3802931
1.3802362
1.3800542
1.379704
1.3793801
1.3795598
1.3805833
1.3823673
1.3795176
1.3795128
1.3794442
1.3792711
1.3789713
1.3787441
1.3790352
1.3801548
1.3820068
1.3787933
1.3787744
1.3786973
1.3785443
1.378315
1.3782104
1.3786357
1.3798638
1.3817792
1.3782604
1.3782306
1.3781549
1.3780334
1.3778901
1.3779227
1.3784885
1.3798184
1.381767
1.3780472
1.3780128
1.3779463
1.3778646
1.3778138
1.3779829
1.3786766
1.3800699
1.3820016
1.3782118
1.3781843
1.3781394
1.3781088
1.3781517
1.3784415
1.3792262
1.3806241
1.3824813
1.3788757
1.378853
1.3788251
1.3788338
1.378945
1.3793113
1.3801258
1.3814547
1.3831714
1.3799809
1.3799677
1.379956
1.3799922
1.3801442
1.3805408
1.3813213
1.3825113
1.3840367
1.3813936
1.3813946
1.3814117
1.3814901
1.3816749
1.3820485
1.3827039
1.3836697
1.3849847
1.3836303
1.3836476
1.3836592
1.3836715
1.3837058
1.3838295
1.3841222
1.3846398
1.3855679
1.4037507
1.4037009
1.4036495
1.4035978
1.4035669
1.403619
1.403799
1.4041055
1.4045517
1.4039055
1.4038553
1.4038074
1.4037659
1.4037609
1.4038603
1.404126
1.40459
1.4052662
1.4042369
1.4041891
1.4041461
1.4041115
1.4041184
1.4042403
1.4045409
1.4050558
1.405791
1.4047852
1.4047419
1.4047055
1.404677
1.4046903
1.4048207
1.4051348
1.4056691
1.4064369
1.4055352
1.4054983
1.4054704
1.4054483
1.4054661
1.4056003
1.4059198
1.4064622
1.4072335
1.4064287
1.4064046
1.406392
1.4063818
1.4064058
1.4065397
1.4068547
1.4073884
1.4081421
1.4074368
1.4074283
1.4074325
1.4074352
1.4074645
1.4075931
1.407893
1.4084026
1.4091193
1.4084831
1.4084926
1.4085166
1.4085336
1.408568
1.4086883
1.4089664
1.4094416
1.4101088
1.4094823
1.4095112
1.4095556
1.4095875
1.4096271
1.4097382
1.4099921
1.4104287
1.4110405
1.4103395
1.410387
1.4104512
1.4104977
1.4105428
1.4106457
1.4108771
1.4112779
1.4118363
1.4109713
1.4110338
1.4111137
1.4111714
1.4112206
1.4113171
1.4115311
1.411904
1.4124207
1.4113128
1.4113816
1.4114685
1.4115313
1.4115822
1.4116749
1.4118793
1.4122369
1.4127304
1.4113128
1.4113817
1.4114686
1.4115314
1.4115823
1.411675
1.4118794
1.4122369
1.4127303
1.4109714
1.411034
1.4111139
1.4111717
1.411221
1.4113175
1.4115314
1.4119041
1.4124205
1.4103398
1.4103873
1.4104517
1.4104983
1.4105434
1.4106464
1.4108777
1.4112782
1.411836
1.4094829
1.4095118
1.4095564
1.4095885
1.4096282
1.4097393
1.409993
1.4104291
1.4110401
1.408484
1.4084937
1.4085178
1.4085351
1.4085696
1.4086899
1.4089678
1.4094424
1.4101086
1.4074384
1.4074299
1.4074344
1.4074372
1.4074667
1.4075953
1.4078949
1.4084038
1.4091194
1.4064309
1.406407
1.4063945
1.4063845
1.4064088
1.4065427
1.4068573
1.4073902
1.4081427
1.4055382
1.4055015
1.4054738
1.4054519
1.4054698
1.405604
1.4059232
1.4064647
1.4072349
1.4047892
1.404746
1.4047098
1.4046815
1.404695
1.4048253
1.405139
1.4056726
1.4064393
1.4042419
1.4041941
1.4041513
1.4041168
1.4041239
1.4042457
1.4045461
1.4050604
1.4057949
1.4039112
1.4038611
1.4038133
1.4037719
1.4037669
1.4038664
1.404132
1.404596
1.4052719
1.403757
1.4037073
1.4036559
1.4036042
1.4035733
1.4036256
1.403806
1.4041131
1.4045591
1.2651026
1.2650941
1.2650837
1.2650846
1.2650915
1.2650858
1.265045
1.2649596
1.2649438
1.2649805
1.2649677
1.2649578
1.2649726
1.2650103
1.2650506
1.2650657
1.2650413
1.2650519
1.2649193
1.2649055
1.2648955
1.2649152
1.2649645
1.2650225
1.2650537
1.2650394
1.2650248
1.2648643
1.2648519
1.2648448
1.2648725
1.2649355
1.2650024
1.2650375
1.2650195
1.2649856
1.264832
1.264822
1.2648188
1.2648559
1.2649275
1.2650016
1.265035
1.2650077
1.2649539
1.2648256
1.2648184
1.2648196
1.2648629
1.2649425
1.2650197
1.2650457
1.2650033
1.2649262
1.2648372
1.2648332
1.2648393
1.2648897
1.2649761
1.265054
1.2650694
1.2650077
1.264905
1.2648654
1.2648648
1.2648756
1.2649322
1.2650239
1.2651004
1.2651033
1.2650205
1.264892
1.2649031
1.2649059
1.2649209
1.264983
1.2650786
1.2651526
1.2651431
1.2650395
1.2648864
1.2649424
1.2649479
1.2649665
1.2650327
1.2651312
1.2652023
1.2651817
1.2650609
1.2648864
1.2649734
1.264981
1.2650023
1.2650718
1.2651722
1.265241
1.2652124
1.2650792
1.2648894
1.2649914
1.2650001
1.2650228
1.2650938
1.2651951
1.2652626
1.2652298
1.2650902
1.2648923
1.2649915
1.2650001
1.2650229
1.2650939
1.2651952
1.2652628
1.2652299
1.2650903
1.2648922
1.2649735
1.2649811
1.2650025
1.2650721
1.2651726
1.2652415
1.2652127
1.2650793
1.2648892
1.2649427
1.2649482
1.2649669
1.2650333
1.2651319
1.2652031
1.2651824
1.2650612
1.2648861
1.2649036
1.2649065
1.2649217
1.2649839
1.2650798
1.2651538
1.2651441
1.2650401
1.2648862
1.2648662
1.2648658
1.2648768
1.2649337
1.2650256
1.2651022
1.2651049
1.2650215
1.2648921
1.2648386
1.2648348
1.2648411
1.2648917
1.2649784
1.2650564
1.2650716
1.2650093
1.2649057
1.2648277
1.2648206
1.2648221
1.2648657
1.2649455
1.2650229
1.2650487
1.2650056
1.2649278
1.2648349
1.2648251
1.2648221
1.2648596
1.2649314
1.2650055
1.2650387
1.2650109
1.2649568
1.2648683
1.264856
1.2648491
1.2648771
1.2649402
1.2650071
1.265042
1.2650239
1.2649904
1.2649244
1.2649107
1.2649008
1.2649207
1.2649699
1.2650279
1.2650592
1.2650455
1.2650321
1.2649866
1.2649738
1.2649639
1.2649788
1.2650165
1.2650569
1.2650727
1.2650498
1.2650622
1.2651094
1.2651009
1.2650905
1.2650915
1.2650987
1.2650938
1.2650544
1.2649709
1.2649563
1.2492556
1.2492546
1.24925
1.2492312
1.2492032
1.2491865
1.2492047
1.2492631
1.2493452
1.2492638
1.2492646
1.2492613
1.2492421
1.2492139
1.2492007
1.2492299
1.2493158
1.2494425
1.2492748
1.2492785
1.2492778
1.2492588
1.2492288
1.2492138
1.2492429
1.249332
1.2494703
1.2492828
1.2492891
1.2492914
1.2492742
1.2492447
1.2492294
1.2492582
1.2493488
1.2494982
1.2492943
1.249303
1.2493085
1.2492932
1.2492648
1.24925
1.2492797
1.2493726
1.2495298
1.2493132
1.2493236
1.2493314
1.2493182
1.2492897
1.2492755
1.2493056
1.2494
1.2495608
1.2493363
1.2493485
1.2493583
1.2493467
1.2493202
1.2493054
1.249335
1.2494295
1.2495911
1.2493625
1.2493764
1.249388
1.2493779
1.2493523
1.2493373
1.2493657
1.2494591
1.2496189
1.2493887
1.2494039
1.2494172
1.2494084
1.2493836
1.2493682
1.249395
1.2494867
1.2496434
1.249412
1.2494282
1.2494428
1.2494351
1.2494109
1.249395
1.2494202
1.2495099
1.2496633
1.2494301
1.2494471
1.2494625
1.2494555
1.2494315
1.249415
1.2494389
1.2495268
1.2496775
1.2494392
1.2494566
1.2494726
1.2494661
1.2494424
1.2494258
1.2494489
1.2495358
1.2496849
1.2494391
1.2494566
1.2494726
1.2494661
1.2494425
1.2494259
1.2494489
1.2495358
1.2496847
1.24943
1.2494471
1.2494626
1.2494557
1.2494317
1.2494153
1.2494391
1.2495268
1.249677
1.249412
1.2494283
1.249443
1.2494355
1.2494115
1.2493956
1.2494206
1.2495098
1.2496625
1.2493889
1.2494042
1.2494177
1.2494092
1.2493846
1.2493692
1.2493957
1.2494867
1.2496424
1.2493631
1.2493771
1.249389
1.2493792
1.2493539
1.2493389
1.2493669
1.2494595
1.2496179
1.2493375
1.2493499
1.24936
1.2493487
1.2493225
1.2493077
1.2493369
1.2494303
1.2495903
1.2493153
1.2493259
1.2493341
1.2493213
1.2492931
1.2492788
1.2493083
1.2494014
1.2495606
1.2492977
1.2493067
1.2493125
1.2492976
1.2492694
1.2492544
1.2492834
1.249375
1.2495305
1.2492879
1.2492944
1.249297
1.2492802
1.2492508
1.2492352
1.2492632
1.2493524
1.2495002
1.2492818
1.2492857
1.2492852
1.2492664
1.2492365
1.2492211
1.2492495
1.2493375
1.2494741
1.2492726
1.2492736
1.2492704
1.2492513
1.2492231
1.2492099
1.2492387
1.2493237
1.2494486
1.2492657
1.2492646
1.2492601
1.2492414
1.2492136
1.2491972
1.2492156
1.2492737
1.2493538
1.1522475
1.1522416
1.1522362
1.1522372
1.1522425
1.1522431
1.1522288
1.152194
1.1521728
1.152267
1.1522596
1.1522537
1.1522573
1.1522684
1.1522766
1.1522703
1.1522436
1.1522216
1.1523023
1.1522944
1.1522883
1.1522937
1.1523077
1.1523189
1.1523129
1.1522828
1.1522455
1.15234
1.1523322
1.1523269
1.1523345
1.1523517
1.1523645
1.1523562
1.152319
1.1522675
1.1523793
1.1523721
1.1523679
1.1523777
1.1523983
1.1524121
1.1524008
1.1523556
1.1522901
1.1524176
1.1524114
1.1524085
1.1524211
1.1524439
1.1524587
1.1524439
1.1523902
1.1523116
1.1524526
1.1524473
1.1524461
1.1524613
1.1524866
1.152502
1.1524837
1.1524218
1.1523311
1.1524835
1.1524793
1.1524796
1.1524969
1.1525244
1.1525404
1.1525188
1.1524495
1.1523482
1.1525091
1.1525059
1.1525076
1.1525268
1.1525562
1.1525726
1.1525481
1.1524727
1.1523626
1.1525289
1.1525264
1.1525293
1.1525499
1.1525808
1.1525974
1.1525708
1.1524906
1.1523737
1.1525419
1.15254
1.1525437
1.1525655
1.1525974
1.1526142
1.1525862
1.1525027
1.1523812
1.1525487
1.1525471
1.1525512
1.1525735
1.1526059
1.1526228
1.152594
1.1525089
1.1523848
1.1525485
1.152547
1.1525511
1.1525735
1.152606
1.1526228
1.152594
1.1525087
1.1523845
1.1525416
1.1525398
1.1525436
1.1525655
1.1525976
1.1526144
1.1525862
1.1525024
1.1523803
1.1525285
1.1525262
1.1525292
1.1525501
1.1525811
1.1525978
1.152571
1.1524901
1.1523723
1.1525089
1.1525058
1.1525078
1.1525272
1.1525569
1.1525733
1.1525485
1.1524722
1.1523608
1.1524837
1.1524797
1.1524803
1.152498
1.1525258
1.1525417
1.1525196
1.1524492
1.1523462
1.1524536
1.1524486
1.1524477
1.1524633
1.1524888
1.1525042
1.1524851
1.1524218
1.152329
1.1524198
1.1524139
1.1524113
1.1524244
1.1524474
1.152462
1.1524462
1.1523907
1.1523096
1.1523831
1.1523763
1.1523724
1.1523827
1.1524034
1.1524169
1.1524044
1.152357
1.1522886
1.1523459
1.1523384
1.1523335
1.1523415
1.1523588
1.1523712
1.1523616
1.1523218
1.1522668
1.1523107
1.152303
1.1522973
1.1523029
1.1523171
1.1523278
1.1523204
1.1522876
1.1522465
1.1522777
1.1522705
1.1522648
1.1522687
1.1522797
1.1522876
1.1522802
1.1522512
1.1522249
1.1522597
1.1522539
1.1522485
1.1522496
1.1522549
1.1522555
1.1522407
1.1522045
1.1521794
1.1028026
1.1028044
1.102805
1.1028003
1.102792
1.1027865
1.102792
1.1028115
1.1028362
1.1027889
1.1027914
1.1027923
1.102787
1.1027778
1.1027726
1.1027805
1.1028063
1.102844
1.1027747
1.102778
1.1027794
1.1027737
1.1027635
1.1027573
1.1027652
1.1027929
1.1028362
1.1027565
1.1027604
1.1027624
1.1027569
1.1027464
1.10274
1.1027485
1.102778
1.1028265
1.1027373
1.1027417
1.1027444
1.102739
1.1027284
1.1027222
1.1027314
1.102763
1.1028158
1.1027199
1.1027245
1.1027273
1.102722
1.1027111
1.1027049
1.1027149
1.1027483
1.1028043
1.1027038
1.1027087
1.1027117
1.1027064
1.1026954
1.1026891
1.1026996
1.1027345
1.1027926
1.1026902
1.1026951
1.1026982
1.1026929
1.1026819
1.1026754
1.1026863
1.1027221
1.1027815
1.102679
1.1026841
1.1026872
1.1026819
1.102671
1.1026641
1.1026752
1.1027117
1.1027716
1.1026707
1.1026757
1.1026789
1.1026735
1.1026625
1.1026557
1.1026667
1.1027036
1.1027641
1.1026652
1.1026703
1.1026735
1.1026681
1.1026569
1.1026501
1.102661
1.1026981
1.1027588
1.1026622
1.1026672
1.1026705
1.1026652
1.1026541
1.1026473
1.1026581
1.1026952
1.1027559
1.102662
1.1026671
1.1026704
1.1026652
1.1026541
1.1026473
1.1026581
1.102695
1.1027555
1.1026648
1.10267
1.1026733
1.102668
1.102657
1.1026502
1.102661
1.1026976
1.1027576
1.1026701
1.1026753
1.1026787
1.1026736
1.1026627
1.102656
1.1026667
1.1027029
1.1027623
1.1026786
1.1026838
1.1026873
1.1026823
1.1026716
1.1026647
1.1026754
1.1027109
1.1027693
1.1026902
1.1026953
1.1026988
1.1026938
1.1026832
1.1026766
1.1026869
1.1027214
1.1027789
1.1027046
1.1027098
1.1027131
1.1027083
1.1026976
1.1026912
1.102701
1.1027341
1.10279
1.1027219
1.1027269
1.1027301
1.1027253
1.1027146
1.1027082
1.1027173
1.1027486
1.1028021
1.1027411
1.1027459
1.102749
1.1027441
1.1027338
1.1027272
1.1027352
1.1027645
1.1028144
1.1027625
1.1027668
1.1027693
1.1027642
1.1027539
1.1027471
1.1027542
1.1027812
1.1028266
1.1027834
1.1027869
1.1027887
1.1027834
1.1027732
1.1027666
1.1027733
1.1027987
1.1028387
1.1028
1.1028027
1.1028038
1.1027987
1.1027896
1.1027842
1.1027913
1.1028154
1.1028498
1.1028152
1.1028171
1.1028178
1.1028132
1.102805
1.1027998
1.1028054
1.1028245
1.1028463
1.0272492
1.027247
1.0272451
1.0272455
1.0272476
1.0272486
1.0272455
1.0272365
1.0272295
1.0272601
1.0272574
1.0272552
1.0272561
1.0272592
1.0272616
1.0272596
1.0272515
1.0272434
1.0272763
1.0272733
1.027271
1.0272722
1.027276
1.0272788
1.0272763
1.0272665
1.027254
1.0272939
1.0272908
1.0272886
1.0272902
1.0272947
1.0272976
1.027294
1.0272817
1.0272646
1.0273119
1.0273089
1.0273068
1.027309
1.027314
1.027317
1.0273123
1.0272973
1.0272757
1.027329
1.0273261
1.0273244
1.0273271
1.0273327
1.0273357
1.0273299
1.0273123
1.0272865
1.0273444
1.0273418
1.0273404
1.0273436
1.0273499
1.027353
1.027346
1.027326
1.0272966
1.0273577
1.0273553
1.0273543
1.0273581
1.0273649
1.027368
1.0273601
1.027338
1.0273055
1.0273686
1.0273665
1.0273657
1.0273701
1.0273772
1.0273804
1.0273718
1.027348
1.0273128
1.0273768
1.0273748
1.0273744
1.0273792
1.0273867
1.0273899
1.0273808
1.0273556
1.0273183
1.0273821
1.0273803
1.0273801
1.0273852
1.027393
1.0273963
1.0273868
1.0273606
1.0273219
1.0273848
1.0273831
1.027383
1.0273883
1.0273962
1.0273996
1.0273898
1.0273631
1.0273235
1.0273846
1.0273829
1.0273829
1.0273882
1.0273962
1.0273996
1.0273898
1.0273629
1.0273231
1.0273816
1.02738
1.0273798
1.0273851
1.027393
1.0273964
1.0273867
1.0273601
1.0273207
1.0273762
1.0273744
1.0273741
1.0273792
1.0273869
1.0273902
1.0273808
1.0273548
1.0273164
1.027368
1.0273661
1.0273657
1.0273704
1.0273778
1.0273811
1.0273721
1.0273472
1.0273104
1.0273576
1.0273555
1.0273548
1.027359
1.0273661
1.0273693
1.0273608
1.0273374
1.0273028
1.027345
1.0273427
1.0273418
1.0273455
1.0273521
1.0273551
1.0273475
1.0273258
1.027294
1.0273308
1.0273284
1.0273271
1.0273303
1.0273362
1.0273392
1.0273324
1.0273128
1.0272844
1.0273155
1.0273128
1.0273112
1.0273139
1.0273192
1.027322
1.0273162
1.027299
1.0272745
1.0272996
1.0272969
1.0272951
1.0272972
1.0273018
1.0273044
1.0272997
1.0272852
1.027265
1.0272845
1.0272818
1.0272798
1.0272813
1.0272852
1.0272876
1.027284
1.0272723
1.0272567
1.0272705
1.0272679
1.027266
1.027267
1.0272702
1.0272724
1.0272696
1.0272601
1.0272492
1.027261
1.0272588
1.027257
1.0272574
1.0272596
1.0272608
1.0272577
1.0272483
1.0272388
0.96515341
0.96515424
0.96515467
0.96515355
0.96515128
0.96514963
0.96515092
0.96515632
0.96516381
0.96514847
0.96514937
0.96514976
0.96514836
0.96514583
0.96514433
0.96514647
0.96515372
0.96516439
0.96514327
0.9651443
0.96514472
0.96514308
0.9651402
0.96513853
0.96514099
0.96514915
0.96516176
0.96513692
0.96513805
0.96513853
0.96513678
0.96513374
0.96513202
0.96513477
0.96514377
0.96515815
0.96513015
0.96513137
0.96513189
0.9651301
0.96512691
0.96512516
0.96512821
0.96513802
0.96515392
0.96512368
0.96512491
0.96512542
0.96512356
0.9651202
0.96511842
0.96512173
0.96513222
0.96514931
0.96511751
0.96511877
0.96511928
0.96511735
0.96511396
0.96511214
0.96511565
0.96512669
0.96514465
0.96511203
0.9651133
0.96511381
0.96511185
0.9651084
0.96510656
0.9651102
0.96512165
0.96514018
0.96510738
0.96510866
0.96510919
0.9651072
0.96510372
0.96510185
0.9651056
0.9651173
0.96513617
0.96510374
0.96510503
0.96510556
0.96510358
0.96510011
0.96509818
0.96510198
0.96511383
0.96513285
0.96510122
0.96510253
0.96510307
0.9651011
0.96509761
0.96509571
0.9650995
0.96511138
0.96513038
0.96509981
0.96510113
0.96510171
0.96509978
0.96509632
0.96509444
0.96509821
0.96511002
0.96512888
0.96509961
0.96510097
0.9651016
0.96509972
0.96509631
0.96509445
0.96509818
0.96510985
0.96512847
0.96510078
0.96510216
0.96510282
0.965101
0.96509764
0.96509577
0.96509943
0.96511088
0.96512919
0.96510312
0.96510455
0.96510529
0.96510357
0.96510031
0.96509842
0.96510197
0.9651131
0.965131
0.96510682
0.96510831
0.96510912
0.96510749
0.9651043
0.96510245
0.96510581
0.96511651
0.96513384
0.96511186
0.9651134
0.96511427
0.96511273
0.9651096
0.96510778
0.96511088
0.965121
0.9651376
0.96511813
0.9651197
0.96512063
0.96511919
0.96511612
0.96511427
0.96511705
0.96512646
0.96514209
0.96512552
0.96512711
0.96512807
0.96512673
0.96512367
0.96512178
0.96512418
0.96513274
0.96514715
0.96513366
0.96513526
0.96513625
0.96513496
0.96513205
0.96513008
0.96513205
0.96513967
0.96515257
0.9651426
0.96514408
0.96514499
0.96514366
0.96514082
0.96513878
0.96514032
0.965147
0.96515816
0.96515132
0.96515264
0.9651534
0.96515209
0.96514932
0.96514729
0.96514857
0.9651545
0.96516378
0.96515871
0.9651598
0.9651604
0.96515921
0.96515673
0.96515497
0.96515625
0.96516168
0.96516911
0.96516498
0.96516585
0.96516635
0.96516531
0.96516312
0.96516152
0.96516262
0.96516722
0.96517207
0.89649419
0.89649357
0.89649304
0.89649314
0.89649375
0.89649428
0.89649402
0.89649259
0.89649171
0.8964974
0.89649659
0.89649592
0.89649603
0.8964968
0.89649759
0.89649763
0.89649669
0.89649601
0.89650259
0.89650166
0.8965009
0.89650102
0.89650187
0.89650268
0.89650258
0.89650124
0.89649962
0.89650841
0.89650742
0.89650663
0.89650679
0.89650772
0.89650849
0.89650806
0.896506
0.89650312
0.89651432
0.89651332
0.89651254
0.89651278
0.89651378
0.89651449
0.89651367
0.8965108
0.89650662
0.8965198
0.89651885
0.89651815
0.8965185
0.8965196
0.89652026
0.89651906
0.8965154
0.89651
0.89652469
0.8965238
0.89652319
0.89652368
0.89652489
0.89652552
0.89652398
0.89651961
0.89651312
0.89652885
0.89652802
0.89652751
0.89652814
0.89652946
0.89653008
0.89652826
0.89652326
0.89651587
0.89653218
0.89653143
0.89653102
0.89653177
0.89653321
0.89653382
0.89653177
0.89652626
0.89651813
0.89653463
0.89653395
0.89653363
0.89653451
0.89653605
0.89653665
0.89653443
0.89652853
0.89651981
0.89653618
0.89653555
0.89653532
0.8965363
0.89653793
0.89653855
0.89653621
0.89653
0.89652083
0.8965369
0.89653631
0.89653613
0.89653717
0.89653886
0.8965395
0.89653707
0.89653065
0.89652115
0.89653671
0.89653615
0.89653602
0.89653711
0.89653885
0.8965395
0.89653703
0.89653048
0.89652075
0.89653574
0.89653519
0.89653507
0.89653618
0.89653793
0.89653859
0.8965361
0.8965295
0.89651967
0.89653402
0.89653346
0.89653334
0.89653445
0.89653618
0.89653683
0.89653437
0.8965278
0.896518
0.8965316
0.89653104
0.8965309
0.89653197
0.89653367
0.89653431
0.89653189
0.89652544
0.89651585
0.89652861
0.89652803
0.89652786
0.89652888
0.8965305
0.89653111
0.89652877
0.89652253
0.89651334
0.89652516
0.89652456
0.89652434
0.89652528
0.89652681
0.89652738
0.89652515
0.89651923
0.89651061
0.8965214
0.89652077
0.8965205
0.89652134
0.89652274
0.89652327
0.89652118
0.89651568
0.89650783
0.89651748
0.89651684
0.89651651
0.89651723
0.89651849
0.89651897
0.89651707
0.89651211
0.89650523
0.89651364
0.89651298
0.8965126
0.89651319
0.8965143
0.89651474
0.8965131
0.8965088
0.89650295
0.89651014
0.89650949
0.89650906
0.8965095
0.89651045
0.89651091
0.89650966
0.89650622
0.89650148
0.89650713
0.8965065
0.89650604
0.89650636
0.8965072
0.89650777
0.89650708
0.89650452
0.89650066
0.89650529
0.8965047
0.89650423
0.89650442
0.89650517
0.89650589
0.89650566
0.89650368
0.89649998
0.8307941
0.83079429
0.83079439
0.83079416
0.83079375
0.83079356
0.8307941
0.83079564
0.83079744
0.83079307
0.83079325
0.8307933
0.83079293
0.83079238
0.83079217
0.83079296
0.83079503
0.83079783
0.83079219
0.83079238
0.83079241
0.83079195
0.83079125
0.83079091
0.83079165
0.83079389
0.83079729
0.83079111
0.83079131
0.83079133
0.83079082
0.83079005
0.83078964
0.83079036
0.8307927
0.83079653
0.83078995
0.83079015
0.83079014
0.8307896
0.83078878
0.83078834
0.8307891
0.83079156
0.83079568
0.83078877
0.83078897
0.83078895
0.83078837
0.83078752
0.83078707
0.83078787
0.83079046
0.83079476
0.8307876
0.8307878
0.83078777
0.83078718
0.8307863
0.83078585
0.83078669
0.83078938
0.83079382
0.8307865
0.83078671
0.83078668
0.83078608
0.8307852
0.83078474
0.83078561
0.83078837
0.83079286
0.83078553
0.83078574
0.83078572
0.83078513
0.83078424
0.83078378
0.83078466
0.83078745
0.83079196
0.83078471
0.83078494
0.83078493
0.83078435
0.83078347
0.83078301
0.83078389
0.83078667
0.83079114
0.8307841
0.83078434
0.83078435
0.83078379
0.83078293
0.83078247
0.83078333
0.83078607
0.83079046
0.83078372
0.83078397
0.83078401
0.83078348
0.83078264
0.83078219
0.83078303
0.83078569
0.83078994
0.83078357
0.83078386
0.83078393
0.83078345
0.83078265
0.83078219
0.830783
0.83078556
0.83078964
0.83078377
0.83078407
0.83078418
0.83078374
0.83078297
0.83078252
0.83078328
0.83078569
0.83078956
0.83078426
0.8307846
0.83078475
0.83078436
0.83078364
0.8307832
0.83078388
0.83078611
0.83078973
0.83078513
0.8307855
0.8307857
0.83078537
0.83078468
0.83078424
0.83078482
0.83078683
0.83079016
0.8307864
0.8307868
0.83078705
0.83078677
0.83078612
0.83078566
0.8307861
0.83078783
0.83079084
0.83078808
0.83078851
0.83078881
0.83078858
0.83078795
0.83078746
0.83078772
0.83078913
0.83079177
0.83079017
0.83079064
0.83079097
0.8307908
0.83079017
0.83078962
0.83078968
0.83079073
0.83079299
0.83079263
0.83079313
0.8307935
0.83079335
0.83079273
0.83079211
0.83079196
0.83079269
0.83079455
0.83079551
0.83079599
0.83079634
0.83079617
0.83079554
0.83079484
0.83079457
0.8307951
0.83079657
0.8307985
0.83079893
0.83079922
0.83079902
0.83079839
0.83079773
0.83079757
0.83079816
0.83079915
0.8308012
0.83080153
0.83080174
0.83080153
0.83080102
0.83080065
0.8308009
0.83080176
0.83080213
0.83080339
0.8308036
0.83080374
0.83080359
0.83080331
0.83080331
0.83080395
0.83080512
0.8308046
0.76384655
0.76384641
0.76384629
0.76384631
0.76384643
0.76384654
0.76384655
0.76384643
0.7638469
0.76384753
0.76384731
0.76384712
0.7638471
0.76384727
0.76384752
0.76384774
0.76384794
0.76384849
0.76384918
0.76384891
0.76384867
0.76384861
0.76384876
0.76384906
0.76384936
0.76384963
0.76385005
0.76385101
0.76385071
0.76385045
0.76385036
0.7638505
0.76385076
0.76385103
0.76385124
0.76385146
0.7638528
0.76385251
0.76385224
0.76385215
0.76385228
0.76385248
0.76385264
0.7638527
0.76385268
0.76385438
0.76385411
0.76385387
0.76385382
0.76385394
0.76385411
0.76385415
0.763854
0.76385371
0.76385574
0.7638555
0.76385529
0.76385527
0.76385542
0.76385556
0.76385549
0.76385513
0.76385457
0.76385685
0.76385663
0.76385646
0.76385649
0.76385667
0.7638568
0.76385663
0.76385608
0.76385525
0.7638577
0.76385751
0.76385738
0.76385745
0.76385766
0.76385779
0.76385755
0.76385683
0.76385577
0.7638583
0.76385813
0.76385804
0.76385815
0.7638584
0.76385853
0.76385824
0.76385738
0.7638561
0.76385865
0.76385851
0.76385845
0.7638586
0.76385889
0.76385902
0.76385869
0.76385772
0.76385627
0.76385881
0.76385869
0.76385865
0.76385883
0.76385914
0.76385928
0.76385892
0.76385785
0.76385625
0.76385875
0.76385865
0.76385863
0.76385885
0.76385918
0.76385933
0.76385893
0.76385779
0.76385608
0.76385854
0.76385844
0.76385844
0.76385867
0.76385902
0.76385917
0.76385875
0.76385756
0.76385575
0.76385817
0.76385808
0.76385809
0.76385834
0.76385869
0.76385884
0.7638584
0.76385716
0.7638553
0.76385768
0.76385759
0.76385761
0.76385786
0.76385821
0.76385836
0.7638579
0.76385663
0.76385474
0.76385709
0.76385701
0.76385703
0.76385728
0.76385762
0.76385775
0.76385728
0.76385599
0.76385412
0.76385646
0.76385637
0.76385638
0.76385662
0.76385695
0.76385706
0.76385657
0.7638553
0.76385347
0.7638558
0.76385572
0.76385572
0.76385594
0.76385624
0.76385633
0.76385584
0.7638546
0.76385285
0.76385518
0.76385509
0.76385508
0.76385527
0.76385555
0.76385562
0.76385514
0.76385396
0.76385231
0.76385464
0.76385455
0.76385452
0.76385468
0.76385492
0.76385497
0.76385454
0.76385346
0.76385195
0.76385422
0.76385412
0.76385407
0.76385419
0.7638544
0.76385447
0.76385413
0.76385322
0.76385188
0.76385392
0.7638538
0.76385373
0.76385382
0.76385402
0.76385414
0.76385396
0.76385328
0.76385208
0.76385381
0.76385369
0.7638536
0.76385366
0.76385386
0.76385407
0.76385409
0.76385369
0.76385257
0.6973737
0.69737373
0.69737373
0.69737366
0.69737355
0.69737347
0.69737358
0.69737399
0.69737475
0.69737391
0.69737391
0.69737387
0.69737377
0.69737363
0.69737357
0.69737376
0.6973744
0.69737553
0.69737423
0.69737422
0.69737416
0.69737403
0.69737389
0.69737385
0.69737411
0.69737482
0.69737599
0.69737453
0.69737451
0.69737444
0.69737429
0.69737413
0.69737411
0.6973744
0.69737514
0.69737626
0.69737473
0.69737471
0.69737464
0.69737448
0.69737431
0.69737428
0.69737457
0.6973753
0.69737638