/*--------------------------------*- C++ -*----------------------------------*\
| =========                 |                                                 |
| \\      /  F ield         | OpenFOAM: The Open Source CFD Toolbox           |
|  \\    /   O peration     | Version:  2406                                  |
|   \\  /    A nd           | Website:  www.openfoam.com                      |
|    \\/     M anipulation  |                                                 |
\*---------------------------------------------------------------------------*/
FoamFile
{
    version     2.0;
    format      ascii;
    arch        "LSB;label=32;scalar=64";
    class       surfaceScalarField;
    location    "1";
    object      phi;
}
// * * * * * * * * * * * * * * * * * * * * * * * * * * * * * * * * * * * * * //

dimensions      [0 3 -1 0 0 0 0];

oriented        oriented;

internalField   nonuniform List<scalar> 
101088
(
-0.00017064238
3.5149051e-05
-1.1381358e-05
-2.9224533e-05
-0.00038896595
0.00016243137
-5.4682685e-05
-0.00013585707
-0.00064504977
0.00041254406
-0.00014484634
-0.0003467878
-0.00090519921
0.00080916813
-0.00030042059
-0.00068651338
-0.00111312
0.0013031187
-0.0005150366
-0.0011218008
-0.0012269234
0.0017805994
-0.00073598041
-0.0015547766
-0.001264943
0.002137625
-0.00088012142
-0.0018788849
-0.0012934438
0.0023184
-0.00089151872
-0.0020312767
0.002291419
-0.00077983044
-0.0020060781
-0.0013499584
-0.00020701789
3.9151475e-05
-1.3006306e-05
-0.00046535412
0.00018238432
-6.3517089e-05
-0.0007559914
0.00046361137
-0.0001705124
-0.0010285401
0.00090319204
-0.00035682449
-0.0012133863
0.0014391849
-0.00061370891
-0.0012721943
0.0019502604
-0.00087636468
-0.0012391472
0.0023373758
-0.0010475208
-0.0011907996
0.0025438473
-0.0010655434
0.0025257381
-0.00094512625
-0.0011822067
-0.00024456444
4.1427112e-05
-1.4025267e-05
-0.00054445807
0.0001946244
-6.9959993e-05
-0.00087110195
0.00049642923
-0.00019098655
-0.0011593957
0.00096379817
-0.00040396331
-0.0013270741
0.0015232005
-0.00069681264
-0.0013374952
0.0020513486
-0.00099227006
-0.0012398853
0.0024595767
-0.001181215
-0.0011253573
0.0026915106
-0.0012011024
0.0026912827
-0.0010711871
-0.001059403
-0.00028159577
4.1849272e-05
-1.4467235e-05
-0.00062313887
0.0001983953
-7.3996356e-05
-0.00098596273
0.00050818436
-0.00020596275
-0.0012896313
0.00098442151
-0.00044092715
-0.0014429459
0.0015473054
-0.00076317381
-0.0014155069
0.0020783643
-0.0010834052
-0.0012694925
0.0025008188
-0.0012837414
-0.0011064242
0.0027567733
-0.0013004269
0.0027796524
-0.0011608411
-0.00099592232
-0.00031664326
3.9774401e-05
-1.4232611e-05
-0.00069758241
0.00019154839
-7.5187603e-05
-0.0010952367
0.00049535627
-0.00021450754
-0.0014165116
0.00096192874
-0.0004665012
-0.0015640578
0.0015107354
-0.00081193527
-0.0015123681
0.0020318136
-0.0011507016
-0.0013342573
0.002459952
-0.0013557043
-0.0011368147
0.0027350876
-0.0013662543
0.0027836232
-0.001217483
-0.00099226395
-0.00035048715
3.6096276e-05
-1.3371979e-05
-0.00077231242
0.00017672392
-7.3652043e-05
-0.0012098437
0.0004620713
-0.00021672223
-0.0015575982
0.00090120942
-0.00048075111
-0.0017102048
0.0014165569
-0.00084334536
-0.0016466838
0.0019117821
-0.0011937503
-0.0014489971
0.0023343173
-0.0013985806
-0.0012266432
0.0026200206
-0.0014010949
0.0026934206
-0.0012438971
-0.0010533682
-0.00038106276
3.0856288e-05
-1.1968129e-05
-0.00084126659
0.00015424413
-6.9571259e-05
-0.0013184674
0.00040909755
-0.00021261448
-0.0016967613
0.00080397789
-0.00048310029
-0.0018652156
0.0012689331
-0.00085619067
-0.0018050598
0.0017228813
-0.0012121219
-0.0016024885
0.0021254278
-0.0014127144
-0.0013673205
0.002410091
-0.0014063691
0.0025026537
-0.0012420682
-0.001171929
-0.00040821536
2.4496022e-05
-1.0089683e-05
-0.00090476676
0.00012578042
-6.3198855e-05
-0.0014229467
0.00033988337
-0.00020261778
-0.0018380765
0.00067566701
-0.00047426404
-0.0020336696
0.0010744383
-0.00085171611
-0.0019906954
0.0014707582
-0.0012078552
-0.0017938796
0.001833554
-0.001400982
-0.0015545282
0.0021030329
-0.001385319
0.002204779
-0.0012154231
-0.0013410027
-0.00043155428
1.7674946e-05
-7.9219714e-06
-0.00096199625
9.3840904e-05
-5.5257829e-05
-0.0015218584
0.000259409
-0.00018823139
-0.0019788319
0.00052336008
-0.00045650625
-0.0022104871
0.00084089932
-0.00083295014
-0.0021958753
0.0011626313
-0.0011848086
-0.0020139845
0.0014623073
-0.0013682281
-0.0017757846
0.0016976205
-0.0013427406
0.0017953079
-0.001168808
-0.0015461269
-0.00045053806
1.1150256e-05
-5.7637831e-06
-0.0010111881
6.1387922e-05
-4.6992851e-05
-0.0016112636
0.00017368058
-0.0001721366
-0.0021118553
0.00035570397
-0.00043407533
-0.0023838316
0.00057765046
-0.00080557746
-0.0024030578
0.00080731068
-0.0011499799
-0.0022413185
0.0010195375
-0.001322632
-0.0020073279
0.0011986839
-0.0012873004
0.0012766065
-0.0011107507
-0.0017624715
-0.00046411153
5.3726098e-06
-4.0322238e-06
-0.0010480284
3.0289164e-05
-4.0140047e-05
-0.0016807985
8.6958787e-05
-0.00015812021
-0.0022185111
0.00017971953
-0.00041304964
-0.0025260788
0.00029386813
-0.00077789313
-0.0025753111
0.00041503969
-0.0011137178
-0.0024368726
0.00052390962
-0.001276945
-0.0022073976
0.00062191308
-0.0012327642
0.00066564775
-0.0010547061
-0.0019498393
-0.00047116599
-5.7041268e-11
-2.9874795e-06
-0.0010676901
-2.6198658e-10
-3.5946844e-05
-0.0017189324
-6.3445253e-10
-0.0001493383
-0.0022787978
-1.0659675e-09
-0.00039947641
-0.0026088713
-1.2975754e-09
-0.00075962526
-0.0026747079
-1.3164545e-09
-0.0010897789
-0.0025528129
-1.0745597e-09
-0.0012474099
-0.0023271597
6.9609425e-11
-0.0011977206
1.3429823e-09
-0.0010189554
-0.0020623957
-0.00047116596
-5.3726991e-06
-2.9874818e-06
-0.00106769
-3.0289618e-05
-3.5946852e-05
-0.0017189323
-8.6959955e-05
-0.00014933831
-0.0022787975
-0.0001797216
-0.00039947642
-0.0026088709
-0.00029387075
-0.00075962523
-0.0026747075
-0.00041504234
-0.0010897789
-0.0025528126
-0.0005239117
-0.0012474099
-0.0023271593
-0.00062191288
-0.0011977205
-0.00066564519
-0.0010189554
-0.0020623951
-0.00046411155
-1.1150343e-05
-4.0322306e-06
-0.0010480283
-6.138834e-05
-4.0140076e-05
-0.0016807984
-0.00017368167
-0.00015812028
-0.0022185109
-0.00035570591
-0.00041304974
-0.0025260785
-0.00057765304
-0.00077789324
-0.0025753106
-0.0008073134
-0.0011137178
-0.0024368719
-0.0010195396
-0.0012769451
-0.0022073965
-0.0011986839
-0.0012327643
-0.0012766043
-0.0010547061
-0.0019498377
-0.0004505379
-1.7675099e-05
-5.7637892e-06
-0.0010111877
-9.3841461e-05
-4.6992871e-05
-0.0016112629
-0.00025941016
-0.00017213664
-0.0021118546
-0.00052336187
-0.00043407534
-0.0023838309
-0.00084090158
-0.00080557746
-0.0024030568
-0.0011626338
-0.0011499799
-0.0022413173
-0.0014623095
-0.0013226321
-0.0020073263
-0.0016976208
-0.0012873005
-0.001795306
-0.0011107506
-0.0017624696
-0.0004315542
-2.4496174e-05
-7.9219766e-06
-0.00096199607
-0.00012578099
-5.5257851e-05
-0.0015218581
-0.00033988452
-0.00018823143
-0.0019788316
-0.0006756687
-0.0004565063
-0.0022104866
-0.0010744404
-0.00083295022
-0.0021958745
-0.0014707608
-0.0011848087
-0.0020139831
-0.0018335564
-0.0013682283
-0.0017757829
-0.0021030335
-0.0013427407
-0.0022047771
-0.001168808
-0.0015461252
-0.00040821541
-3.0856338e-05
-1.0089688e-05
-0.00090476701
-0.00015424451
-6.3198882e-05
-0.0014229472
-0.00040909855
-0.00020261784
-0.0018380769
-0.00080397952
-0.00047426414
-0.0020336698
-0.0012689354
-0.00085171628
-0.0019906952
-0.0017228841
-0.0012078554
-0.0017938789
-0.0021254305
-0.0014009823
-0.0015545268
-0.0024100921
-0.0013853191
-0.0025026518
-0.0012154232
-0.0013410015
-0.00038106278
-3.6096315e-05
-1.1968136e-05
-0.00084126668
-0.00017672422
-6.9571295e-05
-0.0013184677
-0.00046207213
-0.00021261457
-0.0016967616
-0.00090121081
-0.00048310044
-0.001865216
-0.0014165592
-0.0008561909
-0.0018050601
-0.0019117848
-0.0012121221
-0.0016024886
-0.0023343201
-0.0014127147
-0.0013673197
-0.0026200225
-0.0014063693
-0.002693419
-0.0012420683
-0.0011719276
-0.00035048726
-3.9774438e-05
-1.3371991e-05
-0.00077231282
-0.00019154855
-7.3652099e-05
-0.0012098444
-0.00049535683
-0.00021672237
-0.001557599
-0.00096192986
-0.00048075136
-0.0017102058
-0.0015107373
-0.00084334572
-0.001646685
-0.0020318161
-0.0011937506
-0.0014489982
-0.0024599549
-0.0013985809
-0.0012266434
-0.0027350902
-0.0014010951
-0.0027836233
-0.0012438972
-0.0010533668
-0.00031664327
-4.1849282e-05
-1.4232617e-05
-0.00069758249
-0.00019839536
-7.518763e-05
-0.001095237
-0.00050818468
-0.0002145076
-0.0014165123
-0.0009844223
-0.00046650131
-0.0015640588
-0.0015473068
-0.00081193538
-0.0015123695
-0.0020783662
-0.0011507016
-0.001334259
-0.0025008212
-0.0013557043
-0.0011368161
-0.0027567762
-0.0013662544
-0.0027796542
-0.001217483
-0.00099226339
-0.0002815957
-4.142711e-05
-1.4467238e-05
-0.00062313881
-0.00019462438
-7.3996362e-05
-0.00098596293
-0.00049642917
-0.00020596276
-0.0012896319
-0.00096379843
-0.00044092715
-0.001442947
-0.0015232014
-0.00076317374
-0.0014155083
-0.0020513504
-0.0010834051
-0.0012694942
-0.0024595788
-0.0012837413
-0.0011064263
-0.0026915133
-0.0013004269
-0.0026912856
-0.0011608411
-0.0009959232
-0.00024456438
-3.9151428e-05
-1.4025265e-05
-0.00054445807
-0.00018238414
-6.9959981e-05
-0.00087110214
-0.00046361102
-0.00019098652
-0.0011593962
-0.00090319189
-0.00040396323
-0.0013270751
-0.0014391853
-0.00069681249
-0.0013374968
-0.0019502617
-0.00099226982
-0.0012398872
-0.0023373775
-0.0011812148
-0.0011253591
-0.00254385
-0.0012011023
-0.0025257418
-0.0010711871
-0.0010594041
-0.00020701788
-3.514899e-05
-1.3006306e-05
-0.00046535411
-0.00016243115
-6.3517085e-05
-0.00075599144
-0.00041254366
-0.00017051238
-0.0010285404
-0.00080916772
-0.00035682445
-0.0012133871
-0.0013031185
-0.00061370882
-0.0012721954
-0.0017806004
-0.00087636456
-0.0012391483
-0.0021376266
-0.0010475208
-0.0011908006
-0.0023184029
-0.0010655435
-0.0022914225
-0.00094512624
-0.0011822077
-0.00017064234
-1.1381361e-05
-2.9224528e-05
-0.00038896571
-5.4682694e-05
-0.00013585707
-0.00064504903
-0.00014484636
-0.00034678787
-0.00090519775
-0.00030042061
-0.00068651369
-0.001113118
-0.00051503661
-0.0011218014
-0.0012269219
-0.00073598045
-0.0015547771
-0.0012649434
-0.0008801215
-0.0018788846
-0.0012934458
-0.00089151887
-0.0020312777
-0.00077983053
-0.0020060806
-0.0013499614
1.6290557e-06
-9.1048645e-07
-1.1522726e-05
-5.7720181e-07
6.8865624e-06
-5.2742802e-06
-5.3463331e-05
-1.2025866e-06
1.5498026e-05
-1.6809162e-05
-0.00013750693
8.5827044e-07
2.4906447e-05
-4.3246949e-05
-0.00027828012
1.1698044e-05
3.289293e-05
-9.3791646e-05
-0.00046988561
4.0654149e-05
4.2319842e-05
-0.00017006584
-0.00066823529
9.289381e-05
6.0320734e-05
-0.00025917887
-0.00079998851
0.00016104504
9.1830669e-05
-0.00033837042
-0.00081200092
0.00022734268
-0.00038376984
-0.00071030442
0.00027433343
0.00013174109
2.6550702e-06
-2.9459675e-06
-1.3625893e-05
1.1363034e-05
-1.4117281e-05
-6.338203e-05
2.5539599e-05
-3.8091204e-05
-0.00016340688
4.0095958e-05
-8.3615979e-05
-0.00033101176
4.9518462e-05
-0.00015836173
-0.00055856127
5.5567409e-05
-0.00025920722
-0.00079327223
6.6550085e-05
-0.00036786331
-0.00094981905
8.9306983e-05
-0.00045779968
-0.00096887096
-0.00050432366
-0.00085994621
0.00012468075
3.9744614e-06
-5.4675455e-06
-1.5478159e-05
1.6868947e-05
-2.479327e-05
-7.2178501e-05
3.7323303e-05
-6.3090968e-05
-0.00018644119
5.688382e-05
-0.00012947777
-0.00037766208
6.6418956e-05
-0.00022890474
-0.00063580481
6.7204762e-05
-0.00035296798
-0.00089929514
6.9460461e-05
-0.00047887487
-0.0010724592
8.1783462e-05
-0.00057807415
-0.0010931509
-0.00062429694
-0.00097659754
0.00010716722
5.4664368e-06
-8.2720611e-06
-1.7129148e-05
2.3080049e-05
-3.6398669e-05
-8.0004526e-05
5.0400462e-05
-8.9527001e-05
-0.00020684706
7.4940258e-05
-0.00017635038
-0.00041859427
8.3750091e-05
-0.00029842114
-0.00070246724
7.8413847e-05
-0.00044252267
-0.00098851424
7.1271302e-05
-0.0005831367
-0.001172337
7.309495e-05
-0.00068918962
-0.0011911351
-0.00073268679
-0.0010665533
8.7196987e-05
6.9701936e-06
-1.0988767e-05
-1.8486092e-05
2.9386538e-05
-4.7472244e-05
-8.653038e-05
6.3586249e-05
-0.00011421198
-0.00022402229
9.2741172e-05
-0.00021886808
-0.00045313843
0.00010028441
-0.00035949076
-0.00075840892
8.8419844e-05
-0.00051914603
-0.0010622136
7.2718391e-05
-0.00067033479
-0.0012528047
6.5328867e-05
-0.00078026293
-0.0012677914
-0.00081910245
-0.001135199
6.9460543e-05
8.5807295e-06
-1.335376e-05
-1.9587693e-05
3.617202e-05
-5.6826116e-05
-9.188944e-05
7.7818459e-05
-0.00013434921
-0.00023823145
0.00011203678
-0.00025206174
-0.00048177579
0.0001185311
-0.00040476474
-0.00080456574
0.0001008812
-0.00057301939
-0.001122227
7.7761822e-05
-0.00072888972
-0.0013169063
6.2452739e-05
-0.00083890172
-0.001327147
-0.00087160887
-0.001186848
5.7910089e-05
1.0013719e-05
-1.4875293e-05
-2.0460319e-05
4.2333729e-05
-6.2566846e-05
-9.6150555e-05
9.0856899e-05
-0.00014593756
-0.00024954929
0.00012967619
-0.00026943034
-0.00050455105
0.00013522981
-0.00042545391
-0.00084105504
0.00011284207
-0.00059366444
-0.0011690891
8.4365536e-05
-0.00074712667
-0.0013660009
6.3494446e-05
-0.00085289659
-0.0013715031
-0.00087861465
-0.001224419
5.2850967e-05
1.1212182e-05
-1.5099197e-05
-2.1077977e-05
4.7636482e-05
-6.2936056e-05
-9.9253973e-05
0.00010234283
-0.00014529919
-0.00025796247
0.00014543449
-0.00026507512
-0.00052171096
0.00015051929
-0.00041355315
-0.00086870163
0.00012475387
-0.00057129058
-0.0012044636
9.2859419e-05
-0.00071365986
-0.0014025544
6.8568598e-05
-0.00081006823
-0.0014038565
-0.0008288739
-0.0012510983
5.4503068e-05
1.2109382e-05
-1.366155e-05
-2.1468993e-05
5.1809816e-05
-5.65736e-05
-0.00010132076
0.00011171698
-0.00012966699
-0.00026377072
0.00015862035
-0.00023462052
-0.0005338642
0.00016379391
-0.00036310263
-0.00088857423
0.00013605719
-0.00049840098
-0.0012299615
0.00010235924
-0.00061953132
-0.0014286587
7.6624097e-05
-0.00070055648
-0.0014265172
-0.00071325736
-0.0012692598
6.1459371e-05
1.2729968e-05
-1.0464332e-05
-2.169098e-05
5.4879745e-05
-4.3126898e-05
-0.00010258933
0.00011894005
-9.8354638e-05
-0.00026750932
0.00016916906
-0.00017699815
-0.00054192671
0.00017498961
-0.00027253089
-0.00090196977
0.00014642426
-0.00037262089
-0.0012471947
0.00011199059
-0.00046162651
-0.0014461031
8.6305604e-05
-0.00052085519
-0.0014413167
-0.00052852865
-0.0012807394
7.1565608e-05
1.3099249e-05
-5.7361849e-06
-2.1859618e-05
5.6817776e-05
-2.3526375e-05
-0.0001034591
0.00012368382
-5.3423882e-05
-0.00026991703
0.00017631073
-9.5763159e-05
-0.00054691158
0.00018286858
-0.00014695833
-0.00091002355
0.00015426933
-0.00020043817
-0.0012573012
0.00011954407
-0.00024781924
-0.0014560271
9.4642387e-05
-0.00027931116
-0.0014494066
-0.00028287063
-0.0012867351
8.1013373e-05
1.3153331e-05
2.7884464e-11
-2.1877033e-05
5.7346015e-05
1.1423206e-10
-0.00010366605
0.00012529045
2.3585965e-10
-0.00027070686
0.00017891293
4.0472094e-10
-0.0005488625
0.00018583111
6.2320801e-10
-0.00091350245
0.00015750555
8.4658355e-10
-0.0012618924
0.00012289892
1.0251506e-09
-0.0014606235
9.9007761e-05
1.20909e-09
-0.0014531418
1.360707e-09
-0.0012894547
8.6635077e-05
1.3153342e-05
5.7362296e-06
-2.1877031e-05
5.7346039e-05
2.3526579e-05
-0.00010366604
0.00012529046
5.3424313e-05
-0.00027070684
0.00017891296
9.5763927e-05
-0.00054886245
0.00018583114
0.00014695955
-0.00091350237
0.00015750556
0.00020043983
-0.0012618923
0.00012289892
0.00024782127
-0.0014606234
9.9007803e-05
0.00027931357
-0.0014531417
0.00028287328
-0.0012894547
8.6635237e-05
1.3099251e-05
1.0464361e-05
-2.185962e-05
5.6817807e-05
4.3127064e-05
-0.00010345911
0.00012368386
9.8355004e-05
-0.00026991705
0.00017631079
0.00017699883
-0.0005469116
0.00018286862
0.00027253204
-0.00091002357
0.00015426935
0.00037262247
-0.0012573012
0.00011954407
0.00046162852
-0.0014560271
9.4642432e-05
0.0005208576
-0.0014494066
0.00052853117
-0.0012867351
8.1013631e-05
1.2729983e-05
1.3661564e-05
-2.1690977e-05
5.4879803e-05
5.6573712e-05
-0.00010258932
0.00011894018
0.0001296673
-0.00026750928
0.00016916917
0.00023462113
-0.00054192662
0.0001749897
0.00036310369
-0.00090196964
0.00014642436
0.00049840243
-0.0012471945
0.00011199064
0.00061953316
-0.001446103
8.6305605e-05
0.00070055878
-0.0014413166
0.00071325993
-0.0012807394
7.1565638e-05
1.210938e-05
1.5099207e-05
-2.1468992e-05
5.1809881e-05
6.2936126e-05
-0.00010132076
0.00011171706
0.00014529942
-0.0002637707
0.00015862042
0.00026507563
-0.00053386415
0.00016379402
0.00041355402
-0.00088857416
0.00013605735
0.00057129172
-0.0012299614
0.00010235936
0.00071366141
-0.0014286586
7.6624088e-05
0.00081007047
-0.0014265172
0.00082887682
-0.0012692599
6.1459075e-05
1.1212201e-05
1.4875313e-05
-2.107798e-05
4.7636523e-05
6.2566921e-05
-9.9253983e-05
0.00010234285
0.00014593776
-0.00025796249
0.00014543455
0.00026943075
-0.00052171097
0.0001505194
0.0004254545
-0.00086870163
0.00012475411
0.0005936652
-0.0012044636
9.2859698e-05
0.00074712788
-0.0014025544
6.8568803e-05
0.00085289869
-0.0014038565
0.00087861782
-0.0012510984
5.4502968e-05
1.0013728e-05
1.335378e-05
-2.0460324e-05
4.2333758e-05
5.6826185e-05
-9.6150574e-05
9.0856938e-05
0.00013434936
-0.00024954933
0.00012967632
0.00025206204
-0.0005045511
0.00013523
0.00040476503
-0.00084105512
0.00011284239
0.00057301978
-0.0011690891
8.436593e-05
0.00072889056
-0.0013660009
6.349488e-05
0.00083890353
-0.0013715031
0.00087161197
-0.001224419
5.2851445e-05
8.5807144e-06
1.0988782e-05
-1.9587703e-05
3.6171991e-05
4.74723e-05
-9.1889479e-05
7.7818476e-05
0.00011421205
-0.00023823154
0.00011203691
0.00021886818
-0.00048177594
0.00011853134
0.00035949082
-0.00080456595
0.00010088155
0.00051914616
-0.0011222272
7.7762224e-05
0.00067033537
-0.0013169064
6.2453244e-05
0.00078026444
-0.0013271471
0.00081910493
-0.001186848
5.7911023e-05
6.9702063e-06
8.2720596e-06
-1.8486097e-05
2.9386589e-05
3.6398697e-05
-8.6530394e-05
6.3586362e-05
8.9527e-05
-0.00022402231
9.2741352e-05
0.00017635035
-0.00045313847
0.00010028465
0.0002984211
-0.00075840895
8.8420151e-05
0.00044252268
-0.0010622136
7.2718676e-05
0.00058313716
-0.0012528046
6.5329162e-05
0.0006891909
-0.0012677913
0.0007326885
-0.0011351989
6.9461503e-05
5.4664309e-06
5.467544e-06
-1.7129149e-05
2.3080018e-05
2.4793288e-05
-8.0004525e-05
5.0400372e-05
6.309097e-05
-0.00020684705
7.4940143e-05
0.00012947772
-0.00041859424
8.3750004e-05
0.00022890469
-0.00070246716
7.8413879e-05
0.00035296786
-0.00098851411
7.1271478e-05
0.00047887512
-0.0011723368
7.3095275e-05
0.0005780752
-0.0011911349
0.00062429792
-0.0010665532
8.7197954e-05
3.9744722e-06
2.9459697e-06
-1.5478158e-05
1.6868949e-05
1.4117321e-05
-7.217849e-05
3.7323255e-05
3.8091299e-05
-0.00018644115
5.6883643e-05
8.3616094e-05
-0.00037766201
6.6418616e-05
0.00015836185
-0.00063580468
6.7204421e-05
0.00025920716
-0.00089929496
6.9460337e-05
0.00036786335
-0.001072459
8.1783752e-05
0.00045780026
-0.0010931507
0.00050432397
-0.0009765974
0.00010716805
2.6550658e-06
9.1049866e-07
-1.3625894e-05
1.1363004e-05
5.2743393e-06
-6.3382034e-05
2.5539539e-05
1.6809266e-05
-0.00016340688
4.0095851e-05
4.3247081e-05
-0.00033101176
4.9518238e-05
9.379192e-05
-0.00055856125
5.55671e-05
0.00017006594
-0.00079327218
6.6549746e-05
0.00025917893
-0.00094981897
8.9306402e-05
0.00033837103
-0.00096887087
0.00038376971
-0.0008599461
0.00012468054
1.6290709e-06
-1.1522729e-05
-5.7720801e-07
6.8866367e-06
-5.3463343e-05
-1.2025994e-06
1.5498193e-05
-0.00013750695
8.5826097e-07
2.4906746e-05
-0.00027828016
1.1698039e-05
3.2893456e-05
-0.00046988563
4.0654166e-05
4.2320345e-05
-0.00066823531
9.2893863e-05
6.0320735e-05
-0.00079998851
0.00016104555
9.1829555e-05
-0.00081200091
0.00022734433
-0.00071030439
0.00027433365
0.00013173943
-2.4842438e-07
1.5220549e-06
-1.1411208e-05
-1.385148e-06
-1.3703474e-06
6.8124649e-06
-5.2925526e-05
-6.2283446e-06
-4.064842e-06
1.6832076e-05
-0.00013623073
-1.5413767e-05
-8.7982873e-06
3.2365564e-05
-0.00027622651
-2.9685722e-05
-1.5132082e-05
5.1434501e-05
-0.00046758206
-4.7404247e-05
-2.1568824e-05
6.8680655e-05
-0.00066654927
-6.3929926e-05
-2.6362177e-05
7.7789788e-05
-0.00079936416
-7.3620779e-05
-2.8573549e-05
7.5523431e-05
-0.00081212186
-7.3191139e-05
6.2982195e-05
-0.00071045445
-6.2665231e-05
-2.8740497e-05
-2.4311758e-07
1.5734428e-06
-1.343416e-05
-1.3591915e-06
7.0460905e-06
-6.2499565e-05
-3.9386546e-06
1.7383495e-05
-0.0001613788
-8.0679542e-06
3.3331506e-05
-0.00032784836
-1.2832884e-05
5.2782631e-05
-0.00055514442
-1.6530297e-05
7.0027178e-05
-0.0007909213
-1.7672413e-05
7.8248144e-05
-0.00094913527
-1.5889059e-05
7.4137201e-05
-0.00096926808
5.9773043e-05
-0.00086028268
-1.2343448e-05
-2.0315332e-07
1.5197963e-06
-1.5221356e-05
-1.1613262e-06
6.8303171e-06
-7.1004551e-05
-3.3825557e-06
1.6921558e-05
-0.00018375802
-6.7577273e-06
3.2563958e-05
-0.00037351937
-1.002722e-05
5.1649935e-05
-0.00063140263
-1.1283867e-05
6.8328355e-05
-0.00089633969
-9.3466919e-06
7.5504476e-05
-0.0010716527
-4.6543177e-06
6.9941694e-05
-0.0010936478
5.4729399e-05
-0.00097690789
6.9966366e-07
-1.5199556e-07
1.3713883e-06
-1.6828736e-05
-9.1267735e-07
6.2119026e-06
-7.862541e-05
-2.6705309e-06
1.5531497e-05
-0.00020369911
-5.0946319e-06
3.0176755e-05
-0.00041378293
-6.6987728e-06
4.8233038e-05
-0.00069744617
-5.5903309e-06
6.3936208e-05
-0.00098523052
-1.0650953e-06
7.0119066e-05
-0.0011714768
5.598696e-06
6.3735823e-05
-0.001191593
4.861779e-05
-0.0010666011
1.1758033e-05
-7.9586752e-08
1.1393087e-06
-1.8174425e-05
-5.7759972e-07
5.2513663e-06
-8.507184e-05
-1.7721284e-06
1.3379523e-05
-0.00022067581
-3.1488381e-06
2.6488711e-05
-0.00044807369
-3.0646786e-06
4.2993147e-05
-0.00075325321
2.4769259e-07
5.7415097e-05
-0.0010590049
6.9152897e-06
6.2712985e-05
-0.0012520662
1.4924171e-05
5.6095924e-05
-0.0012681604
4.1773663e-05
-0.0011348082
2.1377504e-05
-1.7281303e-08
8.726709e-07
-1.9303769e-05
-2.8208753e-07
4.1303422e-06
-9.0503602e-05
-9.5833337e-07
1.0829191e-05
-0.00023500487
-1.3446861e-06
2.2041963e-05
-0.00047694269
3.440845e-07
3.6566147e-05
-0.00079982752
5.6984473e-06
4.9384937e-05
-0.0011195512
1.4230512e-05
5.3828545e-05
-0.0013165539
2.3242697e-05
4.7431312e-05
-0.0013274946
3.4446109e-05
-0.0011859722
2.9694509e-05
5.2950755e-08
5.9923901e-07
-2.0239843e-05
4.1779522e-08
2.9688986e-06
-9.4977955e-05
-8.5085129e-08
8.1456572e-06
-0.00024673892
5.3469625e-07
1.7266383e-05
-0.00050039529
3.7585249e-06
2.9517809e-05
-0.00083723055
1.0939925e-05
4.0485473e-05
-0.001167371
2.1008177e-05
4.4090008e-05
-0.0013663306
3.0669096e-05
3.8270516e-05
-0.0013720032
2.7011217e-05
-0.0012231758
3.6860747e-05
1.1958469e-07
3.5396052e-07
-2.0952287e-05
3.4654386e-07
1.9047831e-06
-9.8416836e-05
7.3654363e-07
5.6155514e-06
-0.00025582237
2.2910755e-06
1.2606711e-05
-0.00051860586
6.9009877e-06
2.240521e-05
-0.00086619896
1.566516e-05
3.1323963e-05
-0.0012040663
2.6988987e-05
3.4110719e-05
-0.001403899
3.7095257e-05
2.9108156e-05
-0.0014048004
1.9847523e-05
-0.0012497494
4.2910037e-05
1.7729849e-07
1.657462e-07
-2.1458075e-05
6.0896141e-07
1.0512161e-06
-0.0001008989
1.4457823e-06
3.4766408e-06
-0.00026246865
3.8109232e-06
8.4323798e-06
-0.00053205504
9.6031439e-06
1.5700705e-05
-0.00088766196
1.9684078e-05
2.2428097e-05
-0.0012311465
3.2012744e-05
2.442258e-05
-0.0014312992
4.2412731e-05
2.0445438e-05
-0.0014282545
1.3373324e-05
-0.0012681911
4.7818137e-05
2.2122921e-07
5.0645686e-08
-2.1797112e-05
8.0719903e-07
4.7286232e-07
-0.00010259696
1.9903056e-06
1.8667691e-06
-0.00026708258
4.9935359e-06
4.9747242e-06
-0.00054147229
1.1715549e-05
9.7294187e-06
-0.0009027205
2.2816551e-05
1.4190797e-05
-0.0012500584
3.590896e-05
1.544415e-05
-0.0014502171
4.6519582e-05
1.2667145e-05
-0.001444149
7.9026339e-06
-0.001280328
5.1578877e-05
2.4922472e-07
3.03386e-09
-2.2061235e-05
9.3526569e-07
1.5196388e-07
-0.00010382425
2.3544652e-06
7.6516185e-07
-0.00027023464
5.8070554e-06
2.2407446e-06
-0.0005476302
1.3183305e-05
4.5723278e-06
-0.00091224271
2.4988161e-05
6.7806636e-06
-0.0012616959
3.8594589e-05
7.3760336e-06
-0.0014615654
4.9337771e-05
5.9477216e-06
-0.0014534304
3.5530251e-06
-0.0012871876
5.4139888e-05
2.6202305e-07
9.2763955e-13
-2.2136028e-05
9.961709e-07
9.4924615e-12
-0.00010424825
2.5369888e-06
1.4405345e-11
-0.00027148253
6.2254406e-06
3.4290134e-11
-0.00055031026
1.3941168e-05
1.051421e-10
-0.00091664598
2.6101509e-05
2.1580497e-10
-0.0012672723
3.9960808e-05
4.0609536e-10
-0.0014671072
5.07653e-05
7.4667828e-10
-0.0014579993
1.1377907e-09
-0.0012905617
5.5424202e-05
2.6203135e-07
-3.0387416e-09
-2.2136024e-05
9.9618977e-07
-1.5196259e-07
-0.00010424823
2.5370176e-06
-7.6515878e-07
-0.0002714825
6.2254854e-06
-2.2407022e-06
-0.00055031019
1.3941226e-05
-4.5721389e-06
-0.00091664588
2.610158e-05
-6.7802522e-06
-0.0012672722
3.9960885e-05
-7.3752326e-06
-0.0014671071
5.0765366e-05
-5.9462148e-06
-0.0014579992
-3.5507247e-06
-0.0012905617
5.5424237e-05
2.4922919e-07
-5.0653571e-08
-2.2061235e-05
9.352769e-07
-4.7287026e-07
-0.00010382426
2.3544931e-06
-1.8667879e-06
-0.00027023464
5.8071071e-06
-4.9747214e-06
-0.0005476302
1.3183389e-05
-9.7292843e-06
-0.00091224271
2.4988297e-05
-1.4190456e-05
-0.0012616959
3.8594772e-05
-1.5443406e-05
-0.0014615654
4.9337941e-05
-1.2665637e-05
-0.0014534304
-7.9002793e-06
-0.0012871876
5.413999e-05
2.2123546e-07
-1.6576038e-07
-2.1797107e-05
8.072336e-07
-1.0512408e-06
-0.00010259694
1.9903885e-06
-3.476687e-06
-0.00026708253
4.9936592e-06
-8.4324235e-06
-0.00054147219
1.1715725e-05
-1.570065e-05
-0.00090272034
2.2816817e-05
-2.2427869e-05
-0.0012500582
3.5909304e-05
-2.4421938e-05
-0.001450217
4.6519919e-05
-2.0443958e-05
-0.0014441489
-1.3370928e-05
-0.001280328
5.1579159e-05
1.7730107e-07
-3.5397982e-07
-2.1458073e-05
6.0901405e-07
-1.9048233e-06
-0.00010089889
1.4458723e-06
-5.615629e-06
-0.00026246862
3.8110774e-06
-1.2606814e-05
-0.00053205498
9.6033928e-06
-2.2405275e-05
-0.00088766187
1.9684472e-05
-3.1323909e-05
-0.0012311464
3.2013265e-05
-3.4110237e-05
-0.0014312991
4.2413311e-05
-2.9106758e-05
-0.0014282544
-1.9845263e-05
-0.001268191
4.7818843e-05
1.1959377e-07
-5.99264e-07
-2.0952287e-05
3.4657862e-07
-2.9689509e-06
-9.8416837e-05
7.3660228e-07
-8.1457653e-06
-0.00025582237
2.2912281e-06
-1.7266555e-05
-0.00051860585
6.9012801e-06
-2.9518023e-05
-0.00086619893
1.5665648e-05
-4.0485625e-05
-0.0012040662
2.6989658e-05
-4.4089722e-05
-0.0014038989
3.709609e-05
-3.8269295e-05
-0.0014048004
-2.7009365e-05
-0.0012497494
4.2911254e-05
5.2951391e-08
-8.7269387e-07
-2.0239845e-05
4.1774869e-08
-4.1303817e-06
-9.4977965e-05
-8.5054529e-08
-1.082932e-05
-0.00024673895
5.3484419e-07
-2.2042226e-05
-0.00050039532
3.7588433e-06
-3.6566533e-05
-0.00083723059
1.0940448e-05
-4.9385303e-05
-0.0011673711
2.100892e-05
-5.3828506e-05
-0.0013663306
3.06701e-05
-4.743038e-05
-0.0013720032
-3.444473e-05
-0.0012231758
3.6862216e-05
-1.7278251e-08
-1.1393428e-06
-1.9303775e-05
-2.8207989e-07
-5.2514239e-06
-9.0503631e-05
-9.5828941e-07
-1.3379706e-05
-0.00023500493
-1.3445684e-06
-2.6489071e-05
-0.0004769428
3.443238e-07
-4.2993687e-05
-0.00079982768
5.6988665e-06
-5.7415668e-05
-0.0011195513
1.4231198e-05
-6.2713254e-05
-0.001316554
2.3243723e-05
-5.6095369e-05
-0.0013274946
-4.1772602e-05
-0.0011859722
2.9695815e-05
-7.958951e-08
-1.3714229e-06
-1.8174426e-05
-5.7759144e-07
-6.2119662e-06
-8.5071842e-05
-1.7721185e-06
-1.5531671e-05
-0.00022067581
-3.1488353e-06
-3.0177118e-05
-0.0004480737
-3.0646403e-06
-4.8233629e-05
-0.00075325319
2.4788846e-07
-6.3936949e-05
-0.0010590049
6.9157646e-06
-7.0119666e-05
-0.0012520661
1.4925031e-05
-6.3735704e-05
-0.0012681603
-4.8616849e-05
-0.0011348081
2.1378451e-05
-1.5201147e-07
-1.5198253e-06
-1.6828734e-05
-9.1273542e-07
-6.8303672e-06
-7.8625398e-05
-2.6706764e-06
-1.6921696e-05
-0.00020369908
-5.094888e-06
-3.2564275e-05
-0.00041378286
-6.6991343e-06
-5.1650483e-05
-0.00069744606
-5.5906795e-06
-6.832918e-05
-0.00098523036
-1.0652606e-06
-7.550533e-05
-0.0011714766
5.5988966e-06
-6.9941961e-05
-0.0011915929
-5.4728673e-05
-0.001066601
1.1758468e-05
-2.0317621e-07
-1.5734527e-06
-1.5221352e-05
-1.161415e-06
-7.0460829e-06
-7.1004532e-05
-3.3827936e-06
-1.7383484e-05
-0.00018375798
-6.7582324e-06
-3.3331561e-05
-0.00037351928
-1.0028077e-05
-5.2782859e-05
-0.00063140248
-1.1285046e-05
-7.0027708e-05
-0.00089633947
-9.3479432e-06
-7.824895e-05
-0.0010716524
-4.6552219e-06
-7.4137782e-05
-0.0010936476
-5.977296e-05
-0.00097690781
6.9948372e-07
-2.4314246e-07
-1.5220447e-06
-1.3434159e-05
-1.359296e-06
-6.8124037e-06
-6.2499562e-05
-3.9389293e-06
-1.6831948e-05
-0.00016137879
-8.0685632e-06
-3.2365376e-05
-0.00032784834
-1.2834061e-05
-5.1434262e-05
-0.00055514437
-1.6532135e-05
-6.8680618e-05
-0.00079092123
-1.7674584e-05
-7.7790315e-05
-0.00094913518
-1.5891348e-05
-7.5523864e-05
-0.00096926803
-6.2982669e-05
-0.00086028267
-1.2345067e-05
-2.4844369e-07
-1.141121e-05
-1.3851201e-06
-1.3704238e-06
-5.2925533e-05
-6.2282336e-06
-4.0650439e-06
-0.00013623075
-1.5413531e-05
-8.7986876e-06
-0.00027622654
-2.9685348e-05
-1.5132672e-05
-0.00046758209
-4.7403832e-05
-2.1569675e-05
-0.00066654929
-6.3929652e-05
-2.6363708e-05
-0.00079936417
-7.3620627e-05
-2.8576414e-05
-0.00081212188
-7.3190151e-05
-0.00071045446
-6.26655e-05
-2.8743501e-05
-1.0484323e-07
-2.1831e-08
-1.1280099e-05
-4.4351144e-09
-4.6162519e-07
-1.0508966e-07
-5.2463968e-05
3.1583804e-10
-1.218728e-06
-3.3876884e-07
-0.00013521849
8.3628814e-08
-2.5927608e-06
-1.0216664e-06
-0.00027429631
4.655057e-07
-4.5425128e-06
-2.7956976e-06
-0.00046449992
1.6633174e-06
-6.2338501e-06
-6.5616686e-06
-0.00066263913
4.3428884e-06
-6.1238205e-06
-1.2954519e-05
-0.00079555857
9.0389151e-06
-2.7425801e-06
-2.156113e-05
-0.00080939131
1.5449347e-05
-3.0371875e-05
-0.00070903343
2.2614037e-05
3.5942487e-06
-1.1689482e-07
-6.8940318e-08
-1.3270155e-05
-4.8853897e-07
-2.9512506e-07
-6.1937884e-05
-1.250879e-06
-7.7923777e-07
-0.00016017599
-2.6490705e-06
-1.8816211e-06
-0.00032559021
-4.6435469e-06
-4.3687595e-06
-0.00055157687
-6.3864965e-06
-9.3317186e-06
-0.00078640829
-6.2348314e-06
-1.7525511e-05
-0.00094471594
-2.6733463e-06
-2.829731e-05