/*--------------------------------*- C++ -*----------------------------------*\
| =========                 |                                                 |
| \\      /  F ield         | OpenFOAM: The Open Source CFD Toolbox           |
|  \\    /   O peration     | Version:  2406                                  |
|   \\  /    A nd           | Website:  www.openfoam.com                      |
|    \\/     M anipulation  |                                                 |
\*---------------------------------------------------------------------------*/
FoamFile
{
    version     2.0;
    format      ascii;
    arch        "LSB;label=32;scalar=64";
    class       volVectorField;
    location    "1";
    object      U;
}
// * * * * * * * * * * * * * * * * * * * * * * * * * * * * * * * * * * * * * //

dimensions      [0 1 -1 0 0 0 0];

internalField   nonuniform List<vector> 
34560
(
(-0.064693811 0.012738017 0.028721801)
(-0.23395129 0.042260988 0.095028819)
(-0.48146911 0.081169644 0.17520441)
(-0.81048122 0.12507512 0.25929732)
(-1.1903282 0.16799394 0.3287959)
(-1.5599655 0.20771886 0.36813524)
(-1.8597114 0.24844689 0.37500076)
(-2.060794 0.2937835 0.35837328)
(-2.1632023 0.33774228 0.33207706)
(-0.06450285 0.015551617 0.032429153)
(-0.24057215 0.051309274 0.10691148)
(-0.5060354 0.097152772 0.19518962)
(-0.86176395 0.14635368 0.28415634)
(-1.2647957 0.19130471 0.35238732)
(-1.6397757 0.23083002 0.38529095)
(-1.9238771 0.27141508 0.38408666)
(-2.0966129 0.31679261 0.36084913)
(-2.173933 0.3612795 0.32858639)
(-0.060434544 0.016252593 0.033795693)
(-0.23610692 0.054693309 0.11220025)
(-0.51302506 0.10457123 0.20512022)
(-0.88998729 0.15733316 0.29739595)
(-1.3101981 0.20365028 0.36512215)
(-1.6843479 0.24304682 0.39391619)
(-1.9494858 0.28360783 0.38739521)
(-2.098486 0.32957956 0.35999752)
(-2.1534002 0.375112 0.32466009)
(-0.052981963 0.016800174 0.035012612)
(-0.22157648 0.057078237 0.11648754)
(-0.50346184 0.10922871 0.21245811)
(-0.89583704 0.16331055 0.30625387)
(-1.3283034 0.20915348 0.37245828)
(-1.6980452 0.24758063 0.3978969)
(-1.9457456 0.28804052 0.38859486)
(-2.0689752 0.33450641 0.35919354)
(-2.1027837 0.37932812 0.32380686)
(-0.04195202 0.016223965 0.035500695)
(-0.19621422 0.056237932 0.11853837)
(-0.47620061 0.10874294 0.21625555)
(-0.8788527 0.16261179 0.31062996)
(-1.3201364 0.20729387 0.37590696)
(-1.6850158 0.24436058 0.39998631)
(-1.911415 0.28404459 0.38950553)
(-2.0090349 0.32943341 0.36028107)
(-2.0223995 0.37359319 0.32649413)
(-0.027811584 0.014811551 0.035423091)
(-0.16100596 0.052665957 0.11875285)
(-0.4322972 0.10331004 0.2171823)
(-0.83998695 0.15513696 0.31228975)
(-1.2865473 0.19736422 0.37755537)
(-1.6423354 0.23237569 0.40162592)
(-1.8463861 0.27070667 0.39204133)
(-1.9186123 0.31461693 0.36491164)
(-1.9114809 0.35787941 0.33359618)
(-0.011098183 0.012828886 0.035256867)
(-0.11698013 0.046917887 0.11845358)
(-0.37223605 0.093570878 0.217111)
(-0.77833853 0.14136307 0.31286005)
(-1.2253589 0.1799377 0.3790818)
(-1.569666 0.21219682 0.40502964)
(-1.7502959 0.24862168 0.39805806)
(-1.7974321 0.28984757 0.3746281)
(-1.7691781 0.33160713 0.34609102)
(0.0076133938 0.010246753 0.03501798)
(-0.065606505 0.038987338 0.11788201)
(-0.29771568 0.079633418 0.21674935)
(-0.69563884 0.12170033 0.31383938)
(-1.138347 0.15564094 0.38241375)
(-1.468798 0.18436657 0.41200399)
(-1.6249651 0.2176526 0.40929355)
(-1.6466848 0.25546553 0.39013509)
(-1.596612 0.29429363 0.36459294)
(0.027083295 0.007385039 0.034864965)
(-0.010402846 0.029679047 0.11753828)
(-0.21417994 0.062624358 0.21698918)
(-0.59805653 0.097382449 0.31630891)
(-1.0318069 0.12576344 0.38850584)
(-1.3460928 0.15009523 0.42311154)
(-1.477402 0.17832152 0.42612449)
(-1.4725576 0.21159355 0.41134905)
(-1.400383 0.24563685 0.38864747)
(0.045326615 0.0046608905 0.034866993)
(0.042593051 0.020137563 0.11765864)
(-0.13138981 0.044205693 0.21816167)
(-0.49762004 0.070220585 0.32041363)
(-0.91885734 0.091815839 0.39703545)
(-1.2154714 0.11059979 0.43732022)
(-1.3228019 0.13222904 0.44653912)
(-1.2913522 0.15884722 0.43615615)
(-1.1980193 0.18589234 0.41573747)
(0.059743307 0.0024699987 0.035018389)
(0.085213299 0.011465266 0.11819568)
(-0.063135151 0.026062937 0.21995501)
(-0.41213607 0.042163974 0.32515706)
(-0.82005601 0.05581429 0.40592936)
(-1.0998493 0.068357977 0.45102588)
(-1.1880091 0.080731747 0.46621374)
(-1.1327152 0.098794336 0.45960186)
(-1.0214192 0.11646569 0.44070877)
(0.068031181 0.00079561826 0.035162976)
(0.11005112 0.0037946043 0.1187055)
(-0.022618476 0.0087273494 0.22133069)
(-0.36037888 0.01416807 0.32844156)
(-0.75938784 0.018801291 0.41183859)
(-1.0285021 0.023167671 0.46002196)
(-1.1054536 0.027426045 0.47844757)
(-1.0352383 0.033829583 0.47458588)
(-0.91313122 0.040078395 0.45645218)
(0.06803116 -0.00079567586 0.035162982)
(0.11005106 -0.0037948146 0.11870552)
(-0.022618597 -0.0087277437 0.22133074)
(-0.36037904 -0.014168591 0.32844162)
(-0.75938796 -0.018801797 0.41183861)
(-1.0285021 -0.023168074 0.46002193)
(-1.1054537 -0.027426306 0.47844754)
(-1.0352383 -0.033829521 0.47458584)
(-0.91313121 -0.040078011 0.45645212)
(0.059743261 -0.0024700676 0.035018393)
(0.085213153 -0.011465481 0.11819572)
(-0.063135406 -0.026063303 0.21995507)
(-0.41213637 -0.042164448 0.32515714)
(-0.82005628 -0.055814769 0.40592938)
(-1.0998495 -0.068358389 0.45102584)
(-1.1880093 -0.080732041 0.46621368)
(-1.1327153 -0.098794309 0.45960172)
(-1.0214192 -0.11646531 0.44070855)
(0.045326568 -0.0046609627 0.034866985)
(0.042592899 -0.020137734 0.11765866)
(-0.13139007 -0.044205986 0.2181617)
(-0.49762036 -0.070220991 0.32041369)
(-0.91885771 -0.091816288 0.39703551)
(-1.2154718 -0.11060024 0.43732025)
(-1.3228023 -0.13222939 0.44653906)
(-1.2913525 -0.15884726 0.43615591)
(-1.1980193 -0.18589199 0.4157371)
(0.027083249 -0.0073850944 0.034865)
(-0.010402997 -0.029679201 0.11753828)
(-0.21418019 -0.062624633 0.21698927)
(-0.59805685 -0.097382845 0.31630903)
(-1.0318073 -0.12576388 0.38850599)
(-1.3460933 -0.15009568 0.42311167)
(-1.4774025 -0.1783219 0.42612446)
(-1.4725579 -0.21159367 0.41134874)
(-1.400383 -0.24563659 0.38864706)
(0.0076133454 -0.010246794 0.035018085)
(-0.065606663 -0.038987544 0.11788205)
(-0.29771594 -0.079633739 0.21674953)
(-0.69563919 -0.12170075 0.31383958)
(-1.1383474 -0.15564138 0.38241398)
(-1.4687984 -0.18436699 0.41200419)
(-1.6249657 -0.21765296 0.40929359)
(-1.6466852 -0.25546572 0.39013485)
(-1.5966121 -0.2942935 0.36459264)
(-0.011098235 -0.012828906 0.035256952)
(-0.1169803 -0.046918048 0.11845362)
(-0.37223634 -0.093571161 0.21711117)
(-0.77833892 -0.14136346 0.31286026)
(-1.2253594 -0.17993812 0.37908203)
(-1.5696663 -0.2121972 0.40502987)
(-1.7502963 -0.24862204 0.39805822)
(-1.7974325 -0.28984786 0.37462803)
(-1.7691783 -0.33160707 0.34609082)
(-0.027811645 -0.014811561 0.035423125)
(-0.16100616 -0.052666047 0.11875291)
(-0.43229754 -0.10331024 0.21718254)
(-0.83998739 -0.15513725 0.31229)
(-1.2865477 -0.19736459 0.37755565)
(-1.6423356 -0.23237604 0.40162624)
(-1.8463863 -0.270707 0.39204162)
(-1.9186127 -0.3146173 0.3649117)
(-1.9114812 -0.35787939 0.33359601)
(-0.041952071 -0.016223968 0.035500749)
(-0.19621437 -0.056237986 0.11853849)
(-0.47620088 -0.10874304 0.21625576)
(-0.87885305 -0.16261196 0.31063019)
(-1.3201367 -0.20729415 0.37590727)
(-1.685016 -0.24436087 0.39998667)
(-1.9114152 -0.28404485 0.38950594)
(-2.0090352 -0.32943362 0.36028118)
(-2.0223998 -0.37359323 0.32649403)
(-0.052982 -0.016800174 0.035012634)
(-0.22157659 -0.057078261 0.11648757)
(-0.50346204 -0.10922873 0.21245819)
(-0.89583729 -0.16331065 0.30625404)
(-1.3283036 -0.20915366 0.3724585)
(-1.6980453 -0.24758086 0.3978972)
(-1.9457457 -0.28804063 0.38859517)
(-2.0689754 -0.33450638 0.35919369)
(-2.1027838 -0.37932811 0.32380694)
(-0.060434566 -0.016252562 0.033795692)
(-0.23610699 -0.054693243 0.11220023)
(-0.51302516 -0.1045711 0.20512028)
(-0.88998743 -0.15733312 0.29739605)
(-1.3101982 -0.20365033 0.36512231)
(-1.6843479 -0.24304705 0.39391639)
(-1.9494858 -0.28360795 0.38739541)
(-2.0984861 -0.3295795 0.35999784)
(-2.1534004 -0.37511196 0.32466045)
(-0.064502853 -0.015551567 0.032429131)
(-0.24057216 -0.051309164 0.1069114)
(-0.50603538 -0.097152594 0.19518953)
(-0.8617639 -0.14635356 0.28415623)
(-1.2647956 -0.19130471 0.35238734)
(-1.6397755 -0.23083011 0.38529101)
(-1.9238771 -0.2714154 0.38408683)
(-2.0966132 -0.31679304 0.36084979)
(-2.1739331 -0.36127972 0.32858702)
(-0.064693816 -0.012737991 0.028721784)
(-0.2339513 -0.042260956 0.095028753)
(-0.48146911 -0.081169623 0.17520432)
(-0.81048119 -0.12507518 0.25929726)
(-1.1903281 -0.16799409 0.32879586)
(-1.5599656 -0.20771894 0.36813533)
(-1.8597115 -0.24844694 0.37500113)
(-2.0607944 -0.29378379 0.35837362)
(-2.1632026 -0.33774274 0.33207742)
(-0.069740167 6.5726801e-05 -9.5987277e-05)
(-0.23630005 -0.00029576346 -0.0010060618)
(-0.45894956 -0.001533746 -0.0034513473)
(-0.73449178 -0.0048087364 -0.0078449286)
(-1.0420619 -0.011477458 -0.013893802)
(-1.3431378 -0.021977991 -0.020321529)
(-1.5927657 -0.035422198 -0.025784025)
(-1.7627864 -0.050348884 -0.029738117)
(-1.8480475 -0.065118621 -0.032021166)
(-0.075677648 -0.0011018199 -0.0011357979)
(-0.25626523 -0.0038795815 -0.0042436372)
(-0.49658865 -0.0077697567 -0.0093052845)
(-0.79015111 -0.013802901 -0.016257427)
(-1.1098488 -0.023172918 -0.023977676)
(-1.4107542 -0.036044717 -0.030561574)
(-1.6460478 -0.051310619 -0.034872738)
(-1.7931359 -0.067448611 -0.037187772)
(-1.8590895 -0.082685023 -0.038452994)
(-0.080272318 -0.0024810211 -0.0020860723)
(-0.27201678 -0.0080307589 -0.0072302434)
(-0.5265794 -0.014821719 -0.014714559)
(-0.83424564 -0.023595253 -0.023883745)
(-1.162095 -0.035261752 -0.032715224)
(-1.4596414 -0.049763788 -0.038875787)
(-1.6794852 -0.066000842 -0.041738437)
(-1.8058812 -0.082671089 -0.042400237)
(-1.8570962 -0.098121273 -0.042407108)
(-0.084250283 -0.0041266604 -0.0029639705)
(-0.28559554 -0.012853156 -0.0099720787)
(-0.5522652 -0.02276965 -0.019665031)
(-0.87152791 -0.03420254 -0.030744446)
(-1.2053091 -0.047758201 -0.040278772)
(-1.4985426 -0.06331465 -0.045675907)
(-1.7039979 -0.080036887 -0.046983394)
(-1.8126045 -0.096838704 -0.046073569)
(-1.8516433 -0.11217475 -0.044954896)
(-0.087275229 -0.0058164699 -0.0036203447)
(-0.29623665 -0.01774124 -0.012050403)
(-0.57282931 -0.030686943 -0.023497943)
(-0.9017383 -0.044506239 -0.036050774)
(-1.2403867 -0.059524516 -0.045927155)
(-1.5297849 -0.075688922 -0.050379661)
(-1.7231291 -0.092504609 -0.050207192)
(-1.8170053 -0.1090577 -0.04797715)
(-1.8458365 -0.12379845 -0.045987394)
(-0.089536222 -0.0074069852 -0.0039479543)
(-0.30443015 -0.022266788 -0.013148012)
(-0.58900997 -0.037853301 -0.025733789)
(-0.92584953 -0.053531532 -0.039254021)
(-1.268601 -0.069405846 -0.049134314)
(-1.555005 -0.085610284 -0.052558989)
(-1.7386181 -0.10201584 -0.05108529)
(-1.8206576 -0.1178665 -0.047827762)
(-1.8409919 -0.13156714 -0.045279881)
(-0.09130743 -0.0086699126 -0.0039496991)
(-0.3108715 -0.025763452 -0.013256047)
(-0.60179472 -0.043208248 -0.02630429)
(-0.94499605 -0.059947673 -0.040231829)
(-1.2911136 -0.075938836 -0.049794152)
(-1.5752533 -0.091548825 -0.052154654)
(-1.7512801 -0.10699019 -0.049575136)
(-1.8240782 -0.12169262 -0.045645665)
(-1.837432 -0.13395906 -0.042775519)
(-0.092407596 -0.0092849904 -0.0035968471)
(-0.31516597 -0.027356565 -0.012308293)
(-0.61076806 -0.04542233 -0.025133283)
(-0.95896893 -0.062144125 -0.038954822)
(-1.3080283 -0.077400941 -0.047977816)
(-1.5908239 -0.091763279 -0.04933282)
(-1.7612638 -0.10573048 -0.045910781)
(-1.8271444 -0.11887793 -0.041560849)
(-1.834945 -0.12938201 -0.038631939)
(-0.09291708 -0.0089806211 -0.0029564622)
(-0.31754785 -0.026295145 -0.010501243)
(-0.61632111 -0.0433457 -0.022531488)
(-0.96828767 -0.058718457 -0.035833407)
(-1.3199058 -0.072272232 -0.044187326)
(-1.6021434 -0.084704827 -0.044659835)
(-1.7687359 -0.096605687 -0.040610435)
(-1.8295632 -0.10769625 -0.036047183)
(-1.8330158 -0.11621167 -0.033243903)
(-0.093034603 -0.0075869853 -0.0021662286)
(-0.31860007 -0.022121211 -0.008239763)
(-0.61936717 -0.036290702 -0.019150381)
(-0.97399943 -0.048837684 -0.031708214)
(-1.3276549 -0.059640703 -0.039385576)
(-1.6097939 -0.069365937 -0.039148134)
(-1.7738199 -0.07853512 -0.034627446)
(-1.8310689 -0.0870412 -0.030017079)
(-1.8312517 -0.093350617 -0.027436845)
(-0.093252669 -0.0051351196 -0.0014485708)
(-0.3195432 -0.014913859 -0.0061701211)
(-0.62153968 -0.024374443 -0.015999889)
(-0.97770777 -0.032644216 -0.02782386)
(-1.3324823 -0.039645085 -0.034925234)
(-1.6144203 -0.045863842 -0.034188002)
(-1.7767262 -0.051681353 -0.029345728)
(-1.831568 -0.057073809 -0.024755239)
(-1.829511 -0.060973885 -0.022403941)
(-0.093075298 -0.0018267323 -0.0010371382)
(-0.31929948 -0.0052912551 -0.0049761924)
(-0.621647 -0.0086214134 -0.014145114)
(-0.97857651 -0.011519346 -0.02549875)
(-1.3341161 -0.013965555 -0.032249896)
(-1.6162228 -0.016127841 -0.031243252)
(-1.7778822 -0.018135044 -0.026229695)
(-1.8315709 -0.019991956 -0.021654714)
(-1.82835 -0.021313856 -0.019444828)
(-0.093075301 0.0018267631 -0.0010371447)
(-0.31929949 0.0052913484 -0.0049761898)
(-0.62164702 0.0086215548 -0.014145114)
(-0.97857654 0.011519533 -0.025498746)
(-1.3341161 0.013965783 -0.032249897)
(-1.6162228 0.016128101 -0.031243258)
(-1.7778821 0.018135331 -0.026229701)
(-1.8315709 0.019992287 -0.021654718)
(-1.8283501 0.021314239 -0.019444829)
(-0.093252679 0.0051351394 -0.00144858)
(-0.31954323 0.014913935 -0.006170114)
(-0.62153972 0.024374571 -0.015999893)
(-0.97770782 0.032644398 -0.027823861)
(-1.3324823 0.03964532 -0.034925243)
(-1.6144202 0.045864106 -0.034188016)
(-1.7767262 0.051681644 -0.029345746)
(-1.831568 0.057074147 -0.024755253)
(-1.8295111 0.060974271 -0.022403942)
(-0.093034612 0.0075869992 -0.0021662292)
(-0.31860009 0.022121282 -0.0082397649)
(-0.61936719 0.036290828 -0.0191504)
(-0.97399944 0.048837861 -0.03170824)
(-1.3276549 0.059640936 -0.039385602)
(-1.6097939 0.069366195 -0.039148159)
(-1.7738199 0.078535406 -0.034627479)
(-1.831069 0.08704154 -0.030017106)
(-1.8312518 0.093351019 -0.027436846)
(-0.092917089 0.0089806387 -0.0029564554)
(-0.31754788 0.026295216 -0.010501264)
(-0.61632114 0.043345818 -0.022531511)
(-0.96828767 0.058718608 -0.035833433)
(-1.3199058 0.072272433 -0.044187345)
(-1.6021433 0.084705052 -0.044659856)
(-1.7687359 0.096605947 -0.040610483)
(-1.8295632 0.10769658 -0.03604724)
(-1.8330159 0.1162121 -0.033243926)
(-0.092407607 0.0092850045 -0.0035968406)
(-0.315166 0.027356612 -0.012308303)
(-0.61076809 0.045422404 -0.025133273)
(-0.95896892 0.062144216 -0.038954815)
(-1.3080283 0.077401073 -0.047977812)
(-1.5908239 0.09176344 -0.049332841)
(-1.7612637 0.10573069 -0.045910856)
(-1.8271444 0.11887823 -0.041560964)
(-1.8349451 0.12938245 -0.038632028)
(-0.091307441 0.0086699304 -0.0039496943)
(-0.31087153 0.025763503 -0.013256034)
(-0.60179475 0.043208312 -0.026304253)
(-0.94499605 0.059947735 -0.040231795)
(-1.2911136 0.075938908 -0.049794139)
(-1.5752532 0.091548918 -0.052154692)
(-1.75128 0.10699034 -0.049575244)
(-1.8240782 0.12169286 -0.045645845)
(-1.8374321 0.13395945 -0.042775709)
(-0.089536237 0.0074069975 -0.0039479487)
(-0.30443019 0.022266838 -0.013147961)
(-0.58901001 0.03785336 -0.025733706)
(-0.92584956 0.053531581 -0.039253946)
(-1.2686011 0.069405874 -0.049134286)
(-1.5550049 0.085610316 -0.052559035)
(-1.738618 0.10201591 -0.051085423)
(-1.8206575 0.11786665 -0.047828012)
(-1.8409919 0.13156742 -0.045280156)
(-0.087275241 0.0058164726 -0.0036203404)
(-0.29623667 0.017741279 -0.012050344)
(-0.57282934 0.030686985 -0.023497867)
(-0.90173833 0.044506274 -0.036050699)
(-1.2403867 0.059524518 -0.045927131)
(-1.5297848 0.0756889 -0.050379722)
(-1.723129 0.092504607 -0.050207355)
(-1.8170051 0.10905779 -0.047977442)
(-1.8458365 0.12379854 -0.045987653)
(-0.084250295 0.0041266577 -0.0029639639)
(-0.28559556 0.012853183 -0.0099720255)
(-0.55226522 0.022769679 -0.019664968)
(-0.87152791 0.034202561 -0.030744374)
(-1.205309 0.047758191 -0.040278745)
(-1.4985425 0.063314581 -0.04567596)
(-1.7039978 0.080036806 -0.046983583)
(-1.8126044 0.096838663 -0.046073802)
(-1.8516432 0.11217465 -0.044955042)
(-0.080272323 0.0024810227 -0.0020860722)
(-0.27201678 0.0080307907 -0.0072302301)
(-0.52657938 0.014821759 -0.014714549)
(-0.83424559 0.02359528 -0.023883732)
(-1.1620949 0.035261755 -0.032715227)
(-1.4596412 0.049763705 -0.038875853)
(-1.6794851 0.066000621 -0.041738548)
(-1.805881 0.08267078 -0.042400243)
(-1.8570961 0.098121154 -0.042407229)
(-0.075677655 0.0011018295 -0.0011358069)
(-0.25626524 0.0038796242 -0.0042436612)
(-0.49658864 0.00776982 -0.0093053195)
(-0.79015107 0.013802953 -0.016257463)
(-1.1098487 0.023172927 -0.023977688)
(-1.4107541 0.036044668 -0.030561512)
(-1.6460477 0.051310376 -0.034872595)
(-1.7931357 0.067448107 -0.037187764)
(-1.8590893 0.08268484 -0.038453254)
(-0.069740176 -6.5727679e-05 -9.5994142e-05)
(-0.23630006 0.00029577408 -0.0010060797)
(-0.45894955 0.0015337565 -0.0034513811)
(-0.73449172 0.0048087508 -0.0078449453)
(-1.0420617 0.011477468 -0.01389378)
(-1.3431376 0.021977964 -0.020321413)
(-1.5927656 0.035422108 -0.025783874)
(-1.7627863 0.050348783 -0.029738591)
(-1.8480474 0.06511855 -0.032021652)
(-0.065191071 0.00095009606 0.00087785525)
(-0.22078085 0.0030439588 0.0028204022)
(-0.42995241 0.0055350747 0.0051109638)
(-0.69208433 0.0081152099 0.0074823897)
(-0.99004792 0.010360118 0.0094707045)
(-1.2878313 0.011917651 0.010601796)
(-1.5391872 0.012686541 0.010629826)
(-1.712008 0.012770059 0.0096561373)
(-1.79722 0.012228653 0.0078037649)
(-0.069907959 0.0010195343 0.00083656006)
(-0.23681991 0.0032359262 0.0026793267)
(-0.46077948 0.0058162577 0.0048412384)
(-0.73886005 0.0084128714 0.0070450663)
(-1.0486375 0.010582745 0.0087928419)
(-1.3475673 0.011975199 0.0095686799)
(-1.586273 0.012488544 0.0091101801)
(-1.7369045 0.012232406 0.0075578306)
(-1.8024484 0.011423813 0.005093026)
(-0.073526465 0.00098356516 0.00070123277)
(-0.249307 0.0031352066 0.0022658514)
(-0.48495492 0.0056518694 0.0041333361)
(-0.77522771 0.0081908583 0.00607149)
(-1.0926716 0.010313324 0.0075925912)
(-1.3888928 0.011661023 0.0081237312)
(-1.6128019 0.012098975 0.0073387784)
(-1.7425483 0.011723651 0.0053974783)
(-1.7924545 0.01080945 0.0026733608)
(-0.076591767 0.00091188942 0.00056382936)
(-0.2598412 0.0029182984 0.0018340366)
(-0.50521431 0.0052860221 0.0033730692)
(-0.80525899 0.0077029616 0.0049923606)
(-1.1279766 0.0097551145 0.0062233449)
(-1.4199594 0.011073387 0.0064667844)
(-1.6293001 0.011473356 0.0053712887)
(-1.7403429 0.011021352 0.0031392029)
(-1.7768458 0.010028799 0.00031389714)
(-0.078824721 0.00078243603 0.00041665052)
(-0.26779256 0.0025388089 0.0013745285)
(-0.52089229 0.0046699803 0.002565696)
(-0.82878162 0.0069156831 0.0038467134)
(-1.1554656 0.0088897601 0.0047667616)
(-1.4431508 0.01019574 0.0047072326)
(-1.6394446 0.010587894 0.0033218837)
(-1.734298 0.010107869 0.00088319057)
(-1.7591313 0.009096838 -0.0019546011)
(-0.080464353 0.00062323104 0.0002766958)
(-0.27379226 0.002068708 0.00093350578)
(-0.53294385 0.0039013704 0.0017830475)
(-0.84700737 0.0059260771 0.0027221488)
(-1.1765972 0.0077917675 0.003317676)
(-1.4602327 0.0090753561 0.0029457035)
(-1.6453038 0.0094733581 0.0012897564)
(-1.7264963 0.0090072429 -0.0012987656)
(-1.7412786 0.0080305496 -0.0040872481)
(-0.081715823 0.00045419306 0.00016277135)
(-0.27838426 0.0015627236 0.00056635362)
(-0.54217778 0.0030618086 0.0011103014)
(-0.86089273 0.004823627 0.0017200251)
(-1.192404 0.0065368729 0.0019812816)
(-1.4723179 0.0077644042 0.0012860822)
(-1.6479974 0.0081620459 -0.00062872781)
(-1.7180047 0.0077382268 -0.0033313629)
(-1.7243679 0.0068383914 -0.0060339362)
(-0.082437422 0.0002909288 7.7423856e-05)
(-0.28126785 0.0010669755 0.00028386924)
(-0.54830039 0.0022218051 0.00057282264)
(-0.87036425 0.0036886709 0.00088473627)
(-1.203171 0.0051995246 0.00082442512)
(-1.4800113 0.0063241134 -0.00018525638)
(-1.6482516 0.0067045197 -0.0023418007)
(-1.7094797 0.0063407608 -0.005127804)
(-1.7090393 0.0055487999 -0.0077444733)
(-0.082710051 0.00015456296 2.2279603e-05)
(-0.282689 0.00063899798 9.2433746e-05)
(-0.55175113 0.0014652424 0.00018571983)
(-0.87607128 0.0026134727 0.00024480454)
(-1.2097319 0.0038648298 -0.00010602976)
(-1.484216 0.0048274715 -0.001402836)
(-1.646853 0.0051639465 -0.0037756987)
(-1.7014936 0.004869478 -0.0066308497)
(-1.6957907 0.0042178874 -0.0091526712)
(-0.082716775 5.9779301e-05 -6.7945935e-06)
(-0.28319618 0.00032043867 -1.8341807e-05)
(-0.55343982 0.00085557213 -6.0756819e-05)
(-0.87918586 0.0016725295 -0.00019793797)
(-1.2133442 0.0026085597 -0.00078889097)
(-1.486081 0.0033477598 -0.0023257634)
(-1.6446936 0.0036122245 -0.0048754885)
(-1.6946421 0.0033945072 -0.0077850827)
(-1.6851255 0.0029078687 -0.010227013)
(-0.082872745 1.0685358e-05 -1.7575917e-05)
(-0.2838431 0.00012414615 -6.8668899e-05)
(-0.55485074 0.00041591992 -0.00019216194)
(-0.8813283 0.0009007627 -0.00046252576)
(-1.2155022 0.0014783549 -0.0012266187)
(-1.4868243 0.0019430072 -0.0029386048)
(-1.6426766 0.0021120797 -0.005614616)
(-1.6895556 0.0019782038 -0.0085623834)
(-1.6775627 0.0016770007 -0.010945277)
(-0.082713489 -1.7011445e-06 -1.9504211e-05)
(-0.28358885 2.7351332e-05 -8.3990659e-05)
(-0.5547892 0.00011882179 -0.00024274616)
(-0.88163837 0.00027929223 -0.00057825107)
(-1.2159735 0.00047462998 -0.0014314393)
(-1.4867819 0.00063300796 -0.0032352736)
(-1.6414046 0.00069087374 -0.0059773249)
(-1.6868298 0.00064559428 -0.008947278)
(-1.6736315 0.00054391972 -0.011299022)
(-0.08271349 1.7004822e-06 -1.9504595e-05)
(-0.28358885 -2.7345976e-05 -8.3985944e-05)
(-0.55478921 -0.00011881599 -0.0002427414)
(-0.88163838 -0.00027927873 -0.00057824592)
(-1.2159735 -0.00047459257 -0.0014314379)
(-1.4867819 -0.00063294084 -0.0032352766)
(-1.6414046 -0.00069075669 -0.0059773331)
(-1.6868298 -0.00064538192 -0.0089472915)
(-1.6736315 -0.00054357802 -0.011299029)
(-0.08287275 -1.0689873e-05 -1.7576234e-05)
(-0.28384312 -0.00012414808 -6.8660318e-05)
(-0.55485076 -0.00041592292 -0.0001921533)
(-0.88132833 -0.00090075768 -0.0004625163)
(-1.2155023 -0.0014783255 -0.0012266165)
(-1.4868243 -0.0019429489 -0.0029386136)
(-1.6426766 -0.0021119698 -0.0056146425)
(-1.6895556 -0.0019779927 -0.0085624275)
(-1.6775627 -0.001676654 -0.010945307)
(-0.082716779 -5.9786462e-05 -6.7910743e-06)
(-0.28319619 -0.00032044531 -1.8328127e-05)
(-0.55343984 -0.00085558246 -6.0743535e-05)
(-0.87918588 -0.001672537 -0.00019792513)
(-1.2133442 -0.0026085466 -0.00078888618)
(-1.486081 -0.0033477195 -0.0023257761)
(-1.6446936 -0.0036121304 -0.0048755367)
(-1.6946421 -0.0033943052 -0.0077851676)
(-1.6851255 -0.0029075228 -0.010227092)
(-0.082710056 -0.00015457116 2.2287844e-05)
(-0.28268901 -0.00063900745 9.2452555e-05)
(-0.55175116 -0.0014652612 0.0001857438)
(-0.87607131 -0.0026134979 0.00024483274)
(-1.2097319 -0.0038648413 -0.00010601313)
(-1.484216 -0.0048274576 -0.0014028505)
(-1.646853 -0.0051638768 -0.0037757729)
(-1.7014936 -0.0048692984 -0.0066309878)
(-1.6957907 -0.0042175702 -0.0091528268)
(-0.082437429 -0.00029094128 7.7436514e-05)
(-0.28126787 -0.0010669944 0.00028390351)
(-0.54830042 -0.0022218407 0.00057287295)
(-0.87036428 -0.0036887194 0.00088479634)
(-1.203171 -0.0051995651 0.00082446299)
(-1.4800113 -0.0063241316 -0.00018527241)
(-1.6482516 -0.0067044849 -0.0023419038)
(-1.7094797 -0.0063406267 -0.0051279986)
(-1.7090393 -0.0055485549 -0.0077447079)
(-0.08171583 -0.00045421037 0.00016278425)
(-0.27838428 -0.0015627501 0.00056640226)
(-0.54217781 -0.0030618586 0.0011103772)
(-0.86089275 -0.0048236945 0.0017201175)
(-1.192404 -0.0065369381 0.0019813391)
(-1.4723178 -0.0077644574 0.0012860638)
(-1.6479974 -0.0081620607 -0.0006288549)
(-1.7180046 -0.0077381665 -0.0033316052)
(-1.7243679 -0.0068382395 -0.0060342219)
(-0.080464363 -0.00062325437 0.00027670794)
(-0.27379229 -0.0020687373 0.00093357826)
(-0.53294388 -0.003901431 0.0017831487)
(-0.8470074 -0.0059261582 0.0027222655)
(-1.1765973 -0.0077918564 0.0033177521)
(-1.4602326 -0.0090754469 0.0029456925)
(-1.6453037 -0.0094734386 0.0012896205)
(-1.7264962 -0.0090072788 -0.0012990516)
(-1.7412786 -0.0080304828 -0.0040875531)
(-0.078824732 -0.00078246292 0.00041666783)
(-0.26779259 -0.0025388358 0.0013746176)
(-0.52089233 -0.0046700396 0.0025658055)
(-0.82878166 -0.0069157615 0.0038468439)
(-1.1554656 -0.0088898592 0.004766856)
(-1.4431508 -0.010195868 0.0047072373)
(-1.6394445 -0.010588051 0.0033217531)
(-1.734298 -0.010108004 0.0008828543)
(-1.7591312 -0.0090968546 -0.0019549233)
(-0.076591781 -0.00091191449 0.00056384503)
(-0.25984123 -0.0029183141 0.0018341168)
(-0.50521436 -0.0052860584 0.0033731712)
(-0.80525905 -0.0077030135 0.0049924927)
(-1.1279767 -0.0097551972 0.0062234496)
(-1.4199594 -0.011073534 0.0064668117)
(-1.6293 -0.011473555 0.005371146)
(-1.7403428 -0.011021553 0.0031388009)
(-1.7768457 -0.010028934 0.00031354823)
(-0.073526478 -0.00098357741 0.00070124357)
(-0.24930704 -0.0031351899 0.0022659068)
(-0.48495499 -0.0056518555 0.0041333996)
(-0.7752278 -0.0081908522 0.0060715784)
(-1.0926717 -0.010313351 0.0075926719)
(-1.3888928 -0.011661148 0.0081237287)
(-1.6128018 -0.012099228 0.0073386104)
(-1.7425483 -0.011723948 0.0053971151)
(-1.7924545 -0.010809638 0.0026729802)
(-0.069907973 -0.0010195301 0.0008365573)
(-0.23681995 -0.0032358802 0.0026793299)
(-0.46077955 -0.0058161954 0.0048412349)
(-0.73886013 -0.0084128122 0.0070450763)
(-1.0486376 -0.010582722 0.0087928517)
(-1.3475673 -0.011975245 0.009568643)
(-1.5862731 -0.012488746 0.009110003)
(-1.7369045 -0.012232809 0.0075574253)
(-1.8024483 -0.01142416 0.0050927231)
(-0.065191083 -0.00095008253 0.00087783931)
(-0.22078089 -0.003043909 0.0028203639)
(-0.42995246 -0.0055350037 0.0051109037)
(-0.69208439 -0.0081151304 0.0074823241)
(-0.99004796 -0.010360065 0.0094706311)
(-1.2878313 -0.011917675 0.010601695)
(-1.5391872 -0.012686626 0.010629645)
(-1.712008 -0.012770078 0.0096555765)
(-1.79722 -0.012228702 0.007803411)
(-0.068139457 -6.3671323e-06 3.4681864e-06)
(-0.23070199 -3.8231673e-05 1.501834e-05)
(-0.44851885 -0.00013576315 4.1119269e-05)
(-0.7197287 -0.00038012726 8.4038021e-05)
(-1.0253939 -0.00088744454 0.00013829336)
(-1.3282731 -0.0017682155 0.00017892103)
(-1.5825196 -0.0030550086 0.00012499368)
(-1.7575303 -0.0046895682 -0.00014559959)
(-1.8451412 -0.0065385072 -0.00078988432)
(-0.073230797 -3.1152729e-05 -1.497124e-05)
(-0.24802607 -0.00010781351 -3.4622874e-05)
(-0.48170051 -0.0002515665 -3.5943779e-05)
(-0.76978343 -0.00055019756 -1.6516732e-05)
(-1.0877366 -0.0011347508 1.3240391e-05)
(-1.3917626 -0.0021359446 1.6384798e-05)
(-1.6332183 -0.0036082237 -0.00011539531)
(-1.7861464 -0.0054935015 -0.00055590912)
(-1.8545443 -0.007579789 -0.0015270107)
(-0.077237266 -6.8297318e-05 -3.7432136e-05)
(-0.26182715 -0.00021180523 -9.9169547e-05)
(-0.5082438 -0.00041635201 -0.00014314447)
(-0.80938873 -0.00076462339 -0.0001639692)
(-1.1354541 -0.0013936207 -0.00017290191)
(-1.4369097 -0.0024526532 -0.00021518048)
(-1.6637509 -0.0040153331 -0.00041337263)
(-1.7962624 -0.0060119501 -0.0009521063)
(-1.849803 -0.0081791774 -0.0020159838)
(-0.080803353 -0.00011863322 -6.1853037e-05)
(-0.27399081 -0.00035231817 -0.00017134416)
(-0.53137013 -0.00063531327 -0.00026801846)
(-0.84329922 -0.001036142 -0.00034415832)
(-1.1751931 -0.0016907253 -0.00040905109)
(-1.4726734 -0.0027661691 -0.00050968239)
(-1.6853145 -0.0043587276 -0.00077147874)
(-1.7997477 -0.0063949871 -0.0013657455)
(-1.8406595 -0.008574708 -0.0024546496)
(-0.083640456 -0.00017243843 -8.0784201e-05)
(-0.28386785 -0.00050309362 -0.00022941236)
(-0.55039766 -0.00086866338 -0.00037422427)
(-0.87133781 -0.0013175073 -0.00050708352)
(-1.20788 -0.0019786412 -0.00063407373)
(-1.5014596 -0.0030330737 -0.0007988481)
(-1.7015681 -0.0045980908 -0.0011210382)
(-1.8004904 -0.0065989325 -0.0017533039)
(-1.8304099 -0.0087016874 -0.0028365641)
(-0.085984405 -0.00022169215 -8.9223694e-05)
(-0.29207127 -0.00064079096 -0.00025824505)
(-0.56623594 -0.0010784301 -0.00043712145)
(-0.89463642 -0.0015601532 -0.00062042012)
(-1.2348677 -0.0022034571 -0.00080984556)
(-1.5249088 -0.0031968356 -0.0010406724)
(-1.7143719 -0.0046737805 -0.0014206252)
(-1.8002975 -0.0065609708 -0.0020813165)
(-1.8207267 -0.0085119597 -0.0031467569)
(-0.08803892 -0.00025715652 -8.6743067e-05)
(-0.29912031 -0.00073873767 -0.00025603958)
(-0.57962214 -0.0012228819 -0.00045215701)
(-0.91403573 -0.0017138211 -0.00067565695)
(-1.2570302 -0.0023141336 -0.00092397234)
(-1.5439011 -0.0032110819 -0.0012201948)
(-1.7245544 -0.0045456483 -0.0016558607)
(-1.7998972 -0.0062498979 -0.0023404181)
(-1.8123473 -0.0079879448 -0.0033823877)
(-0.089602036 -0.00026951511 -7.3523755e-05)
(-0.30454698 -0.00077134872 -0.00022312751)
(-0.59000615 -0.0012631925 -0.00041940228)
(-0.92914198 -0.0017325937 -0.00067196877)
(-1.274294 -0.0022650843 -0.00097381249)
(-1.5586585 -0.0030361562 -0.0013328569)
(-1.7324247 -0.0041836842 -0.0018213825)
(-1.7995061 -0.0056486658 -0.0025285428)
(-1.8054966 -0.0071265423 -0.0035466629)
(-0.090691111 -0.00025351163 -5.2892458e-05)
(-0.30841272 -0.00072387432 -0.00016865705)
(-0.59752899 -0.001177038 -0.0003518489)
(-0.94022024 -0.001590913 -0.00062305829)
(-1.2870503 -0.0020326325 -0.00097097338)
(-1.5695981 -0.0026545742 -0.0013871806)
(-1.7382557 -0.0035801636 -0.0019239424)
(-1.799169 -0.0047608434 -0.0026515478)
(-1.8001569 -0.005944138 -0.003649709)
(-0.091414533 -0.00020833174 -2.9757891e-05)
(-0.31105349 -0.00059401433 -0.00010626874)
(-0.60275758 -0.00096129927 -0.00026968191)
(-0.947996 -0.0012863758 -0.00055160905)
(-1.2960393 -0.0016173318 -0.00093672834)
(-1.5773039 -0.0020726546 -0.0014009753)
(-1.7423436 -0.0027505689 -0.0019782716)
(-1.7988868 -0.0036152024 -0.002724284)
(-1.796225 -0.0044770009 -0.0037062837)
(-0.092133429 -0.00013762778 -1.0145357e-05)
(-0.31334843 -0.00039162663 -5.3000145e-05)
(-0.60686556 -0.00063139943 -0.00019814036)
(-0.9536535 -0.00083918391 -0.00048575623)
(-1.3022273 -0.0010439848 -0.00089717776)
(-1.5824076 -0.0013211681 -0.0013960933)