/*--------------------------------*- C++ -*----------------------------------*\
  =========                 |
  \\      /  F ield         | OpenFOAM: The Open Source CFD Toolbox
   \\    /   O peration     | Website:  https://openfoam.org
    \\  /    A nd           | Version:  10
     \\/     M anipulation  |
\*---------------------------------------------------------------------------*/
FoamFile
{
    format      ascii;
    class       volScalarField;
    location    "1.2";
    object      T;
}
// * * * * * * * * * * * * * * * * * * * * * * * * * * * * * * * * * * * * * //

dimensions      [0 0 -1 0 0 0 0];

internalField   nonuniform List<scalar> 
100
(
-0.0278783
-0.0826469
-0.134488
-0.181564
-0.222209
-0.254981
-0.278721
-0.292587
-0.296088
-0.2891
-0.27187
-0.24501
-0.209469
-0.166509
-0.117649
-0.0646216
-0.00930491
0.0463414
0.100346
0.150796
0.195904
0.234072
0.263947
0.284473
0.29492
0.29492
0.284472
0.263947
0.234071
0.195903
0.150796
0.100346
0.0463411
-0.00930522
-0.0646219
-0.117649
-0.166509
-0.20947
-0.24501
-0.271871
-0.289101
-0.296089
-0.292588
-0.278722
-0.254982
-0.222209
-0.181564
-0.134488
-0.0826466
-0.0278779
0.0278784
0.0826472
0.134488
0.181565
0.222209
0.254982
0.278722
0.292588
0.296089
0.2891
0.271871
0.24501
0.209469
0.166508
0.117649
0.0646212
0.00930453
-0.0463418
-0.100346
-0.150796
-0.195904
-0.234072
-0.263947
-0.284473
-0.29492
-0.29492
-0.284472
-0.263947
-0.234071
-0.195903
-0.150795
-0.100345
-0.0463408
0.00930552
0.0646222
0.117649
0.166509
0.20947
0.24501
0.271871
0.2891
0.296088
0.292587
0.278721
0.254981
0.222208
0.181564
0.134487
0.0826464
0.0278778
)
;

boundaryField
{
    inlet
    {
        type            cyclic;
    }
    outlet
    {
        type            cyclic;
    }
    bottom
    {
        type            slip;
    }
    top
    {
        type            slip;
    }
    frontAndBack
    {
        type            empty;
    }
}


// ************************************************************************* //
