/*--------------------------------*- C++ -*----------------------------------*\
  =========                 |
  \\      /  F ield         | OpenFOAM: The Open Source CFD Toolbox
   \\    /   O peration     | Website:  https://openfoam.org
    \\  /    A nd           | Version:  10
     \\/     M anipulation  |
\*---------------------------------------------------------------------------*/
FoamFile
{
    format      ascii;
    class       volScalarField;
    location    "1.2";
    object      T_0;
}
// * * * * * * * * * * * * * * * * * * * * * * * * * * * * * * * * * * * * * //

dimensions      [0 0 -1 0 0 0 0];

internalField   nonuniform List<scalar> 
100
(
-0.0289895
-0.0859409
-0.139848
-0.188801
-0.231065
-0.265144
-0.28983
-0.304249
-0.307889
-0.300623
-0.282706
-0.254775
-0.217818
-0.173145
-0.122338
-0.0671972
-0.00967577
0.0481884
0.104346
0.156806
0.203712
0.243401
0.274467
0.295811
0.306675
0.306675
0.295811
0.274467
0.243401
0.203712
0.156806
0.104345
0.0481881
-0.00967609
-0.0671975
-0.122338
-0.173145
-0.217819
-0.254776
-0.282707
-0.300623
-0.30789
-0.304249
-0.289831
-0.265144
-0.231065
-0.188801
-0.139848
-0.0859406
-0.028989
0.0289896
0.0859412
0.139848
0.188801
0.231066
0.265145
0.289831
0.304249
0.30789
0.300623
0.282707
0.254775
0.217818
0.173145
0.122338
0.0671968
0.00967538
-0.0481888
-0.104346
-0.156806
-0.203712
-0.243401
-0.274467
-0.295811
-0.306675
-0.306675
-0.29581
-0.274467
-0.2434
-0.203711
-0.156806
-0.104345
-0.0481878
0.00967641
0.0671978
0.122339
0.173146
0.217819
0.254775
0.282707
0.300623
0.307889
0.304249
0.28983
0.265144
0.231065
0.1888
0.139847
0.0859404
0.0289889
)
;

boundaryField
{
    inlet
    {
        type            cyclic;
    }
    outlet
    {
        type            cyclic;
    }
    bottom
    {
        type            slip;
    }
    top
    {
        type            slip;
    }
    frontAndBack
    {
        type            empty;
    }
}


// ************************************************************************* //
