/*--------------------------------*- C++ -*----------------------------------*\
| =========                 |                                                 |
| \\      /  F ield         | OpenFOAM: The Open Source CFD Toolbox           |
|  \\    /   O peration     | Version:  2406                                  |
|   \\  /    A nd           | Website:  www.openfoam.com                      |
|    \\/     M anipulation  |                                                 |
\*---------------------------------------------------------------------------*/
FoamFile
{
    version     2.0;
    format      ascii;
    arch        "LSB;label=32;scalar=64";
    class       volScalarField;
    location    "10";
    object      p;
}
// * * * * * * * * * * * * * * * * * * * * * * * * * * * * * * * * * * * * * //

dimensions      [0 2 -2 0 0 0 0];

internalField   nonuniform List<scalar> 
1176
(
0.79700006
0.79702293
0.79704659
0.79705426
0.79702273
0.79692803
0.7967708
0.79658463
0.79640543
0.79623828
0.79608365
0.79598804
0.79598804
0.79608365
0.79623828
0.79640543
0.79658462
0.79677078
0.796928
0.79702267
0.79705418
0.7970465
0.79702282
0.79699994
0.77385163
0.77380467
0.77375691
0.77374001
0.77380252
0.77400487
0.77437019
0.7748346
0.77526546
0.77555156
0.77567095
0.77570521
0.77570521
0.77567095
0.77555156
0.77526546
0.77483461
0.77437021
0.7740049
0.77380256
0.77374006
0.77375697
0.77380473
0.77385169
0.75676688
0.75678889
0.75680868
0.75680678
0.75674771
0.75658654
0.75631477
0.75598682
0.75568061
0.75546782
0.75535701
0.7553082
0.7553082
0.75535701
0.75546782
0.75568061
0.75598682
0.75631476
0.75658652
0.7567477
0.75680676
0.75680867
0.75678887
0.75676686
0.74009499
0.74010411
0.74011617
0.74013257
0.74015512
0.74017269
0.74014045
0.74000704
0.73977493
0.73950236
0.73927816
0.73915766
0.73915766
0.73927816
0.73950237
0.73977494
0.74000705
0.74014046
0.74017269
0.74015512
0.74013257
0.74011617
0.74010411
0.74009498
0.72367594
0.7236799
0.72368489
0.72369095
0.72370065
0.72372093
0.72375711
0.72379862
0.72382029
0.72379642
0.7237343
0.72368167
0.72368167
0.7237343
0.72379642
0.72382029
0.72379862
0.72375711
0.72372092
0.72370064
0.72369094
0.72368488
0.72367988
0.72367593
0.70721429
0.7072167
0.70721995
0.70722399
0.7072289
0.70723574
0.7072499
0.70728122
0.7073312
0.70738845
0.70743116
0.70744782
0.70744782
0.70743117
0.70738846
0.70733121
0.70728122
0.7072499
0.70723572
0.70722889
0.70722397
0.70721993
0.70721668
0.70721427
0.69080849
0.69081062
0.69081343
0.69081686
0.69082076
0.69082427
0.69082634
0.69082851
0.69083706
0.69085429
0.69087219
0.69088391
0.69088391
0.69087219
0.6908543
0.69083707
0.69082851
0.69082633
0.69082425
0.69082073
0.69081683
0.6908134
0.69081059
0.69080845
0.67442862
0.67443038
0.67443271
0.67443563
0.6744393
0.67444367
0.67444812
0.67445128
0.67445251
0.67445413
0.67445117
0.67444866
0.67444867
0.67445118
0.67445414
0.67445252
0.67445128
0.67444811
0.67444365
0.67443927
0.67443559
0.67443266
0.67443033
0.67442858
0.65807434
0.65807579
0.65807772
0.65808013
0.65808315
0.65808694
0.65809198
0.65809902
0.65810771
0.65811774
0.6581255
0.65812909
0.6581291
0.65812551
0.65811775
0.65810772
0.65809903
0.65809197
0.65808691
0.65808311
0.65808008
0.65807767
0.65807574
0.65807429
0.64173665
0.64173785
0.64173946
0.64174149
0.64174406
0.64174724
0.6417514
0.64175778
0.64176794
0.64178108
0.64179541
0.64180471
0.64180471
0.64179542
0.6417811
0.64176796
0.64175779
0.64175139
0.64174721
0.64174402
0.64174144
0.6417394
0.64173779
0.64173659
0.62541227
0.6254133
0.62541467
0.62541642
0.62541863
0.62542135
0.62542475
0.62542959
0.62543745
0.62544811
0.62546067
0.62546981
0.62546982
0.62546069
0.62544813
0.62543747
0.6254296
0.62542474
0.62542133
0.62541859
0.62541636
0.62541461
0.62541324
0.62541221
0.60909879
0.60909969
0.60910088
0.60910241
0.60910435
0.60910675
0.60910971
0.60911372
0.60911993
0.60912859
0.60913916
0.60914661
0.60914661
0.60913917
0.60912861
0.60911995
0.60911373
0.6091097
0.60910672
0.60910431
0.60910236
0.60910083
0.60909963
0.60909874
0.5927946
0.59279539
0.59279644
0.59279779
0.59279951
0.59280164
0.59280427
0.59280781
0.59281321
0.59282095
0.59283064
0.59283732
0.59283733
0.59283066
0.59282098
0.59281323
0.59280782
0.59280427
0.59280162
0.59279947
0.59279775
0.5927964
0.59279534
0.59279455
0.57649838
0.57649908
0.57650002
0.57650122
0.57650276
0.57650466
0.57650701
0.57651014
0.57651491
0.57652188
0.57653055
0.57653664
0.57653664
0.57653056
0.5765219
0.57651493
0.57651015
0.57650701
0.57650464
0.57650273
0.57650118
0.57649998
0.57649904
0.57649834
0.56020911
0.56020974
0.56021058
0.56021166
0.56021305
0.56021476
0.56021686
0.56021962
0.56022378
0.56022991
0.56023743
0.56024284
0.56024284
0.56023744
0.56022992
0.5602238
0.56021963
0.56021686
0.56021475
0.56021302
0.56021163
0.56021055
0.5602097
0.56020908
0.54392598
0.54392655
0.54392732
0.5439283
0.54392955
0.5439311
0.543933
0.54393545
0.54393908
0.54394446
0.543951
0.54395579
0.54395579
0.543951
0.54394447
0.5439391
0.54393546
0.543933
0.54393109
0.54392953
0.54392827
0.54392729
0.54392653
0.54392596
0.52764836
0.52764887
0.52764957
0.52765046
0.5276516
0.52765302
0.52765474
0.52765694
0.52766016
0.52766492
0.52767064
0.52767493
0.52767494
0.52767065
0.52766493
0.52766017
0.52765695
0.52765474
0.52765301
0.52765159
0.52765044
0.52764955
0.52764885
0.52764834
0.51137567
0.51137615
0.51137678
0.5113776
0.51137865
0.51137994
0.51138151
0.5113835
0.51138637
0.51139062
0.51139567
0.51139954
0.51139954
0.51139568
0.51139063
0.51138638
0.51138351
0.51138151
0.51137993
0.51137863
0.51137758
0.51137677
0.51137613
0.51137566
0.49510748
0.49510791
0.49510849
0.49510924
0.4951102
0.4951114
0.49511283
0.49511464
0.49511721
0.49512102
0.49512552
0.495129
0.49512901
0.49512552
0.49512103
0.49511722
0.49511464
0.49511283
0.49511139
0.49511019
0.49510923
0.49510848
0.4951079
0.49510746
0.47884336
0.47884376
0.4788443
0.47884499
0.47884588
0.47884698
0.4788483
0.47884994
0.47885227
0.47885569
0.47885972
0.47886288
0.47886288
0.47885973
0.4788557
0.47885227
0.47884995
0.4788483
0.47884697
0.47884587
0.47884498
0.47884429
0.47884375
0.47884335
0.46258298
0.46258335
0.46258385
0.46258449
0.46258531
0.46258633
0.46258755
0.46258906
0.46259116
0.46259426
0.4625979
0.46260077
0.46260077
0.46259791
0.46259426
0.46259117
0.46258906
0.46258755
0.46258632
0.4625853
0.46258448
0.46258384
0.46258334
0.46258297
0.44632604
0.44632639
0.44632685
0.44632744
0.4463282
0.44632915
0.44633028
0.44633166
0.44633358
0.44633639
0.44633971
0.44634232
0.44634232
0.44633971
0.4463364
0.44633358
0.44633167
0.44633028
0.44632914
0.4463282
0.44632743
0.44632684
0.44632638
0.44632604
0.43007227
0.43007259
0.43007302
0.43007357
0.43007428
0.43007516
0.43007621
0.43007749
0.43007924
0.43008181
0.43008484
0.43008723
0.43008723
0.43008484
0.43008181
0.43007924
0.43007749
0.43007621
0.43007516
0.43007428
0.43007357
0.43007302
0.43007259
0.43007227
0.41382143
0.41382173
0.41382213
0.41382264
0.4138233
0.41382412
0.41382509
0.41382628
0.41382789
0.41383024
0.41383303
0.41383521
0.41383521
0.41383303
0.41383024
0.41382789
0.41382628
0.4138251
0.41382412
0.4138233
0.41382265
0.41382213
0.41382173
0.41382144
0.3975733
0.39757358
0.39757395
0.39757443
0.39757505
0.39757581
0.39757672
0.39757783
0.39757931
0.39758147
0.39758404
0.39758605
0.39758605
0.39758404
0.39758147
0.39757931
0.39757783
0.39757673
0.39757582
0.39757506
0.39757445
0.39757397
0.3975736
0.39757332
0.3813277
0.38132796
0.38132831
0.38132876
0.38132933
0.38133005
0.3813309
0.38133193
0.38133329
0.38133529
0.38133767
0.38133951
0.38133951
0.38133766
0.38133528
0.38133329
0.38133193
0.38133091
0.38133006
0.38132935
0.38132878
0.38132834
0.38132799
0.38132773
0.36508445
0.36508469
0.36508502
0.36508544
0.36508598
0.36508665
0.36508744
0.3650884
0.36508967
0.36509151
0.36509372
0.36509543
0.36509542
0.36509371
0.3650915
0.36508966
0.3650884
0.36508745
0.36508667
0.36508601
0.36508547
0.36508506
0.36508473
0.36508449
0.34884339
0.34884362
0.34884393
0.34884432
0.34884482
0.34884545
0.3488462
0.34884709
0.34884827
0.34884997
0.34885203
0.34885361
0.3488536
0.34885202
0.34884996
0.34884826
0.34884709
0.3488462
0.34884547
0.34884486
0.34884436
0.34884397
0.34884367
0.34884344
0.33260438
0.33260459
0.33260488
0.33260525
0.33260572
0.33260631
0.33260701
0.33260785
0.33260894
0.33261053
0.33261244
0.3326139
0.3326139
0.33261243
0.33261051
0.33260893
0.33260784
0.33260702
0.33260634
0.33260576
0.3326053
0.33260493
0.33260465
0.33260444
0.31636728
0.31636748
0.31636775
0.3163681
0.31636854
0.31636909
0.31636975
0.31637053
0.31637155
0.31637303
0.31637481
0.31637617
0.31637617
0.3163748
0.31637301
0.31637154
0.31637052
0.31636976
0.31636912
0.31636858
0.31636815
0.31636781
0.31636754
0.31636734
0.30013198
0.30013216
0.30013242
0.30013274
0.30013316
0.30013368
0.3001343
0.30013503
0.30013598
0.30013736
0.30013903
0.30014029
0.30014029
0.30013901
0.30013734
0.30013596
0.30013502
0.3001343
0.30013371
0.3001332
0.30013279
0.30013247
0.30013222
0.30013204
0.28389835
0.28389853
0.28389876
0.28389907
0.28389946
0.28389995
0.28390053
0.28390122
0.28390211
0.28390339
0.28390495
0.28390614
0.28390613
0.28390494
0.28390337
0.28390209
0.28390121
0.28390054
0.28389998
0.28389951
0.28389912
0.28389882
0.28389858
0.28389841
0.2676663
0.26766646
0.26766669
0.26766698
0.26766735
0.26766781
0.26766835
0.267669
0.26766983
0.26767103
0.2676725
0.2676736
0.2676736
0.26767249
0.26767101
0.26766981
0.26766899
0.26766836
0.26766783
0.26766739
0.26766703
0.26766674
0.26766652
0.26766636
0.25143573
0.25143588
0.2514361
0.25143637
0.25143672
0.25143715
0.25143766
0.25143827
0.25143905
0.25144017
0.25144155
0.25144258
0.25144258
0.25144154
0.25144015
0.25143903
0.25143826
0.25143767
0.25143717
0.25143676
0.25143642
0.25143615
0.25143594
0.25143578
0.23520655
0.2352067
0.2352069
0.23520715
0.23520748
0.23520789
0.23520837
0.23520895
0.23520968
0.23521073
0.23521202
0.23521299
0.23521299
0.23521201
0.23521071
0.23520966
0.23520893
0.23520838
0.23520791
0.23520752
0.2352072
0.23520695
0.23520675
0.2352066
0.21897868
0.21897882
0.21897901
0.21897925
0.21897956
0.21897994
0.2189804
0.21898094
0.21898163
0.21898261
0.21898382
0.21898473
0.21898473
0.21898381
0.21898259
0.21898161
0.21898093
0.21898041
0.21897997
0.2189796
0.2189793
0.21897906
0.21897887
0.21897874
0.20275204
0.20275218
0.20275235
0.20275258
0.20275287
0.20275324
0.20275367
0.20275418
0.20275482
0.20275575
0.20275689
0.20275774
0.20275774
0.20275688
0.20275573
0.20275481
0.20275417
0.20275367
0.20275326
0.20275291
0.20275263
0.2027524
0.20275223
0.2027521
0.18652657
0.1865267
0.18652686
0.18652708
0.18652735
0.1865277
0.1865281
0.18652858
0.18652919
0.18653006
0.18653113
0.18653192
0.18653192
0.18653112
0.18653004
0.18652918
0.18652857
0.18652811
0.18652772
0.1865274
0.18652713
0.18652692
0.18652675
0.18652663
0.17030219
0.17030231
0.17030246
0.17030267
0.17030293
0.17030325
0.17030364
0.17030409
0.17030466
0.17030548
0.17030649
0.17030724
0.17030724
0.17030648
0.17030546
0.17030465
0.17030408
0.17030365
0.17030328
0.17030297
0.17030272
0.17030252
0.17030237
0.17030225
0.15407885
0.15407896
0.15407911
0.1540793
0.15407954
0.15407985
0.15408021
0.15408064
0.15408118
0.15408194
0.15408288
0.15408358
0.15408358
0.15408287
0.15408192
0.15408116
0.15408063
0.15408023
0.15407988
0.15407959
0.15407936
0.15407917
0.15407902
0.15407891
0.13785647
0.13785658
0.13785672
0.1378569
0.13785713
0.13785742
0.13785776
0.13785816
0.13785867
0.13785939
0.13786028
0.13786094
0.13786094
0.13786027
0.13785937
0.13785865
0.13785816
0.13785777
0.13785745
0.13785718
0.13785696
0.13785678
0.13785664
0.13785654
0.12163503
0.12163513
0.12163526
0.12163544
0.12163566
0.12163593
0.12163625
0.12163663
0.1216371
0.12163776
0.12163858
0.12163918
0.12163917
0.12163857
0.12163774
0.12163708
0.12163662
0.12163626
0.12163596
0.1216357
0.12163549
0.12163532
0.12163519
0.12163509
0.10541444
0.10541453
0.10541466
0.10541482
0.10541503
0.10541529
0.10541559
0.10541595
0.10541639
0.10541701
0.10541777
0.10541833
0.10541833
0.10541776
0.10541699
0.10541637
0.10541594
0.1054156
0.10541531
0.10541507
0.10541487
0.10541471
0.10541458
0.10541449
0.089194716
0.089194804
0.089194924
0.089195077
0.089195274
0.089195518
0.089195805
0.089196135
0.089196538
0.089197079
0.089197735
0.089198204
0.089198201
0.089197726
0.089197064
0.089196521
0.089196125
0.089195808
0.089195535
0.089195301
0.089195109
0.089194957
0.089194838
0.089194749
0.072975701
0.072975784
0.072975896
0.072976041
0.072976229
0.072976463
0.072976738
0.072977052
0.072977427
0.072977923
0.072978509
0.072978909
0.072978907
0.072978502
0.072977911
0.072977413
0.072977042
0.072976736
0.072976469
0.072976241
0.072976055
0.072975911
0.072975799
0.072975715
0.05675757
0.056757651
0.056757759
0.056757897
0.056758073
0.056758289
0.05675854
0.056758822
0.056759142
0.056759517
0.056759895
0.056760112
0.056760111
0.056759892
0.056759508
0.056759131
0.056758813
0.056758533
0.056758284
0.056758068
0.056757892
0.056757754
0.056757646
0.056757565
0.040539771
0.040539842
0.040539939
0.04054007
0.040540246
0.040540469
0.040540733
0.040541023
0.040541346
0.040541752
0.040542221
0.040542531
0.040542531
0.04054222
0.040541748
0.04054134
0.040541015
0.040540723
0.040540455
0.040540227
0.040540049
0.040539919
0.040539821
0.04053975
0.024323487
0.02432357
0.024323678
0.024323806
0.024323953
0.024324114
0.024324285
0.024324466
0.02432463
0.024324706
0.024324619
0.02432439
0.024324391
0.024324621
0.024324707
0.024324629
0.024324461
0.024324274
0.024324094
0.024323928
0.024323778
0.02432365
0.024323543
0.024323461
0.0081053754
0.0081054458
0.0081055387
0.0081056604
0.0081058212
0.0081060204
0.0081062405
0.008106479
0.0081068558
0.0081076903
0.0081091682
0.0081105368
0.0081105375
0.00810917
0.0081076928
0.0081068579
0.0081064781
0.0081062339
0.0081060076
0.0081058044
0.0081056426
0.0081055225
0.0081054304
0.008105361
)
;

boundaryField
{
    INLET
    {
        type            zeroGradient;
    }
    OUTLET
    {
        type            fixedValue;
        value           uniform 0;
    }
    WALL
    {
        type            zeroGradient;
    }
    frontAndBackPlanes
    {
        type            empty;
    }
}


// ************************************************************************* //
