/*--------------------------------*- C++ -*----------------------------------*\
| =========                 |                                                 |
| \\      /  F ield         | OpenFOAM: The Open Source CFD Toolbox           |
|  \\    /   O peration     | Version:  2406                                  |
|   \\  /    A nd           | Website:  www.openfoam.com                      |
|    \\/     M anipulation  |                                                 |
\*---------------------------------------------------------------------------*/
FoamFile
{
    version     2.0;
    format      ascii;
    arch        "LSB;label=32;scalar=64";
    class       surfaceScalarField;
    location    "10";
    object      phi;
}
// * * * * * * * * * * * * * * * * * * * * * * * * * * * * * * * * * * * * * //

dimensions      [0 3 -1 0 0 0 0];

oriented        oriented;

internalField   nonuniform List<scalar> 
2279
(
2.3617467e-08
1.0148926e-05
2.0509834e-07
4.9823749e-05
6.933205e-07
0.00014252872
1.5784792e-06
0.00034353082
2.678863e-06
0.00075378088
3.3473152e-06
0.0015415573
3.0435472e-06
0.0029497096
2.1517075e-06
0.005249171
1.4318197e-06
0.008582269
9.8960351e-07
0.012685995
5.1267385e-07
0.016666385
1.3344878e-12
0.01918202
-5.1267031e-07
0.01918202
-9.8959372e-07
0.016666385
-1.4317896e-06
0.012685995
-2.1516275e-06
0.008582269
-3.0433785e-06
0.0052491709
-3.3470331e-06
0.0029497095
-2.6784862e-06
0.0015415572
-1.578076e-06
0.00075378084
-6.9297078e-07
0.0003435308
-2.0487047e-07
0.00014252871
-2.3514749e-08
4.9823746e-05
1.0148926e-05
-9.5248451e-08
1.0244174e-05
-5.3793938e-07
5.0266439e-05
-1.6229986e-06
0.00014361378
-3.5389457e-06
0.00034544676
-5.9201736e-06
0.00075616211
-7.4054823e-06
0.0015430426
-6.5846997e-06
0.0029488888
-3.9361303e-06
0.0052465224
-1.3883637e-06
0.0085797212
-6.5100889e-08
0.012684671
2.4241662e-07
0.016666078
-2.2508214e-12
0.019182263
-2.4242502e-07
0.019182263
6.5084034e-08
0.016666078
1.3883341e-06
0.012684671
3.9360828e-06
0.0085797213
6.5846176e-06
0.0052465224
7.405352e-06
0.0029488888
5.9200081e-06
0.0015430426
3.5387832e-06
0.00075616212
1.622873e-06
0.00034544677
5.3786615e-07
0.00014361378
9.5220092e-08
5.026644e-05
1.0244175e-05
5.0139884e-08
1.0194034e-05
2.6334554e-07
5.0053234e-05
7.4910906e-07
0.00014312801
1.5314633e-06
0.00034466441
2.3366652e-06
0.0007553569
2.5476772e-06
0.0015428316
1.8391188e-06
0.0029495974
9.7570436e-07
0.0052473858
6.769888e-07
0.0085800199
6.7181184e-07
0.012684677
4.8418327e-07
0.016666265
1.2767511e-11
0.019182747
-4.8415834e-07
0.019182747
-6.7178753e-07
0.016666265
-6.7696355e-07
0.012684677
-9.7567354e-07
0.0085800199
-1.8390865e-06
0.0052473858
-2.547644e-06
0.0029495973
-2.3366333e-06
0.0015428316
-1.5314414e-06
0.0007553569
-7.4909961e-07
0.0003446644
-2.6334253e-07
0.00014312801
-5.0140084e-08
5.0053232e-05
1.0194034e-05
1.9586751e-08
1.0174448e-05
1.1184979e-07
4.996097e-05
3.6128614e-07
0.00014287858
9.05053e-07
0.00034412064
1.8716708e-06
0.00075439028
3.094842e-06
0.0015416084
3.898747e-06
0.0029487934
3.7285796e-06
0.005247556
2.9242366e-06
0.0085808243
1.9733981e-06
0.012685627
1.0127881e-06
0.016667226
9.3991065e-12
0.01918376
-1.0127712e-06
0.01918376
-1.9733857e-06
0.016667226
-2.9242297e-06
0.012685627
-3.7285724e-06
0.0085808243
-3.8987265e-06
0.005247556
-3.0948053e-06
0.0029487934
-1.8716224e-06
0.0015416084
-9.0500286e-07
0.00075439028
-3.6124604e-07
0.00034412064
-1.118223e-07
0.00014287857
-1.9574373e-08
4.996097e-05
1.0174447e-05
8.0840318e-09
1.0166364e-05
4.7142133e-08
4.9921913e-05
1.5494876e-07
0.00014277077
3.9846808e-07
0.00034387712
8.7980401e-07
0.00075390895
1.7015308e-06
0.0015407867
2.7512954e-06
0.0029477437
3.4623866e-06
0.0052468448
3.4708905e-06
0.0085808157
2.8007121e-06
0.012686297
1.5505354e-06
0.016668476
1.2981174e-11
0.01918531
-1.5505119e-06
0.01918531
-2.8006931e-06
0.016668476
-3.4708719e-06
0.012686298
-3.4623665e-06
0.0085808158
-2.751261e-06
0.0052468448
-1.7014773e-06
0.0029477437
-8.797442e-07
0.0015407867
-3.9841774e-07
0.00075390894
-1.5491719e-07
0.00034387712
-4.7120496e-08
0.00014277077
-8.0747762e-09
4.9921912e-05
1.0166364e-05
4.9360303e-09
1.0161428e-05
2.8699713e-08
4.9898149e-05
9.5123647e-08
0.00014270435
2.4922006e-07
0.00034372303
5.6361999e-07
0.00075359455
1.1213908e-06
0.0015402289
1.9184786e-06
0.0029469466
2.6588462e-06
0.0052461045
2.893085e-06
0.0085805815
2.4787914e-06
0.012686712
1.4344473e-06
0.016669521
1.5086661e-11
0.019186745
-1.4344198e-06
0.019186745
-2.4787692e-06
0.016669521
-2.8930634e-06
0.012686712
-2.6588078e-06
0.0085805815
-1.9184036e-06
0.0052461045
-1.1212797e-06
0.0029469466
-5.6350074e-07
0.0015402289
-2.4912334e-07
0.00075359454
-9.5064542e-08
0.00034372303
-2.8661575e-08
0.00014270435
-4.9204153e-09
4.9898149e-05
1.0161428e-05
4.41253e-09
1.0157015e-05
2.5526642e-08
4.9877036e-05
8.383254e-08
0.00014264604
2.1690052e-07
0.00034358996
4.8451269e-07
0.00075332694
9.5637703e-07
0.001539757
1.6413928e-06
0.0029462615
2.3246037e-06
0.0052454212
2.593974e-06
0.0085803121
2.2393846e-06
0.012687066
1.3066947e-06
0.016670453
1.7204196e-11
0.019188051
-1.3066649e-06
0.019188051
-2.2393643e-06
0.016670453
-2.5939532e-06
0.012687066
-2.3245506e-06
0.0085803121
-1.6412778e-06
0.0052454212
-9.5620792e-07
0.0029462615
-4.8433572e-07
0.001539757
-2.1676085e-07
0.00075332694
-8.3748941e-08
0.00034358996
-2.5474026e-08
0.00014264604
-4.3913602e-09
4.9877036e-05
1.0157015e-05
3.6257812e-09
1.015339e-05
2.1037782e-08
4.9859624e-05
6.9440886e-08
0.00014259764
1.8114863e-07
0.00034347826
4.0972681e-07
0.00075309836
8.2392006e-07
0.0015393428
1.4540091e-06
0.0029456314
2.1430915e-06
0.0052447321
2.4674894e-06
0.0085799877
2.1884121e-06
0.012687345
1.2866635e-06
0.016671355
1.8269726e-11
0.019189338
-1.2866341e-06
0.019189338
-2.1883959e-06
0.016671355
-2.467468e-06
0.012687345
-2.1430189e-06
0.0085799877
-1.4538481e-06
0.0052447321
-8.2368999e-07
0.0029456314
-4.094932e-07
0.0015393428
-1.8096866e-07
0.00075309836
-6.9335016e-08
0.00034347826
-2.0972654e-08
0.00014259764
-3.5999638e-09
4.9859626e-05
1.015339e-05
2.9834805e-09
1.0150407e-05
1.7348524e-08
4.984526e-05
5.7380658e-08
0.00014255761
1.5008225e-07
0.00034338556
3.4098534e-07
0.00075290746
6.9194927e-07
0.0015389919
1.2441248e-06
0.0029450792
1.9041991e-06
0.005244072
2.3016143e-06
0.0085795902
2.0975249e-06
0.012687549
1.2520307e-06
0.0166722
1.7567091e-11
0.01919059
-1.2520048e-06
0.01919059
-2.0975142e-06
0.016672201
-2.3015905e-06
0.01268755
-1.9041034e-06
0.0085795903
-1.2439182e-06
0.005244072
-6.9166443e-07
0.0029450792
-3.4070431e-07
0.0015389919
-1.4987033e-07
0.00075290747
-5.7257611e-08
0.00034338556
-1.7274415e-08
0.00014255761
-2.9544473e-09
4.9845262e-05
1.0150407e-05
2.4658924e-09
1.0147941e-05
1.4365005e-08
4.9833363e-05
4.7630532e-08
0.00014252434
1.2503851e-07
0.00034330816
2.856052e-07
0.0007527469
5.8419889e-07
0.0015386933
1.0642011e-06
0.0029445992
1.6641694e-06
0.0052434721
2.0898853e-06
0.0085791645
1.9529095e-06
0.012687686
1.1802641e-06
0.016672973
1.6350026e-11
0.01919177
-1.1802425e-06
0.01919177
-1.9529043e-06
0.016672973
-2.0898584e-06
0.012687687
-1.6640523e-06
0.0085791645
-1.0639583e-06
0.005243472
-5.8387523e-07
0.0029445992
-2.8529345e-07
0.0015386933
-1.2480706e-07
0.0007527469
-4.7496884e-08
0.00034330816
-1.4285899e-08
0.00014252435
-2.4351334e-09
4.9833364e-05
1.0147942e-05
2.1030357e-09
1.0145839e-05
1.2260302e-08
4.9823207e-05
4.0692959e-08
0.00014249591
1.0700131e-07
0.00034324185
2.4509657e-07
0.00075260881
5.0387423e-07
0.0015384345
9.2625215e-07
0.0029441768
1.4715218e-06
0.0052429268
1.8909174e-06
0.0085787451
1.8050369e-06
0.012687772
1.1037095e-06
0.016673674
1.5133825e-11
0.019192874
-1.103692e-06
0.019192874
-1.8050363e-06
0.016673674
-1.8908869e-06
0.012687772
-1.4713893e-06
0.0085787451
-9.2598878e-07
0.0052429268
-5.0353413e-07
0.0029441768
-2.4477604e-07
0.0015384345
-1.0676637e-07
0.00075260882
-4.0557573e-08
0.00034324186
-1.2181286e-08
0.00014249592
-2.072432e-09
4.9823209e-05
1.0145839e-05
1.8289335e-09
1.014401e-05
1.066804e-08
4.981437e-05
3.5435532e-08
0.00014247115
9.3295119e-08
0.000343184
2.1415867e-07
0.00075248795
4.4195023e-07
0.0015382067
8.1813164e-07
0.0029438007
1.3163909e-06
0.0052424285
1.7245025e-06
0.008578337
1.6780562e-06
0.012687819
1.0378234e-06
0.016674315
1.4039977e-11
0.019193911
-1.0378091e-06
0.019193912
-1.6780573e-06
0.016674315
-1.7244679e-06
0.012687819
-1.3162507e-06
0.008578337
-8.1786543e-07
0.0052424285
-4.4161719e-07
0.0029438007
-2.1385164e-07
0.0015382067
-9.3073142e-08
0.00075248796
-3.5308217e-08
0.00034318401
-1.0594783e-08
0.00014247115
-1.8006941e-09
4.9814371e-05
1.0144011e-05
1.6112788e-09
1.01424e-05
9.402439e-09
4.980658e-05
3.1250021e-08
0.0001424493
8.2353163e-08
0.0003431329
1.8934106e-07
0.00075238097
3.9184648e-07
0.0015380042
7.2925981e-07
0.0029434632
1.1851552e-06
0.0052419726
1.5781829e-06
0.0085779439
1.5623524e-06
0.012687835
9.7671702e-07
0.0166749
1.3142464e-11
0.019194888
-9.7670447e-07
0.019194888
-1.5623533e-06
0.0166749
-1.5781453e-06
0.012687835
-1.1850158e-06
0.008577944
-7.2900692e-07
0.0052419726
-3.915393e-07
0.0029434632
-1.8906314e-07
0.0015380042
-8.2154198e-08
0.00075238098
-3.1135873e-08
0.00034313291
-9.3374725e-09
0.00014244931
-1.586282e-09
4.9806582e-05
1.01424e-05
1.4331567e-09
1.0140968e-05
8.3659128e-09
4.979965e-05
2.7818384e-08
0.00014242985
7.3365774e-08
0.00034308736
1.6888934e-07
0.00075228545
3.5029133e-07
0.0015378228
6.5460043e-07
0.0029431589
1.0720667e-06
0.0052415551
1.4464379e-06
0.0085775695
1.4548865e-06
0.012687826
9.188265e-07
0.016675436
1.2388576e-11
0.019195807
-9.1881469e-07
0.019195807
-1.4548858e-06
0.016675436
-1.4463993e-06
0.012687826
-1.0719363e-06
0.0085775696
-6.5437393e-07
0.0052415551
-3.5002366e-07
0.0029431589
-1.6865128e-07
0.0015378228
-7.319672e-08
0.00075228546
-2.7721239e-08
0.00034308737
-8.3110261e-09
0.00014242986
-1.4120188e-09
4.9799651e-05
1.0140968e-05
1.2858527e-09
1.0139683e-05
7.5079757e-09
4.9793429e-05
2.4974549e-08
0.00014241239
6.5903915e-08
0.00034304644
1.5185811e-07
0.00075219951
3.1550758e-07
0.0015376592
5.915119e-07
0.0029428829
9.7479085e-07
0.0052411718
1.3297043e-06
0.0085772146
1.3567938e-06
0.012687799
8.6526717e-07
0.016675928
1.1687801e-11
0.019196672
-8.6525531e-07
0.019196672
-1.3567908e-06
0.016675928
-1.3296669e-06
0.012687799
-9.746755e-07
0.0085772147
-5.9131918e-07
0.0052411718
-3.1528528e-07
0.0029428829
-1.5166362e-07
0.0015376592
-6.5767293e-08
0.00075219952
-2.4896527e-08
0.00034304645
-7.4642657e-09
0.00014241239
-1.2690768e-09
4.9793431e-05
1.0139683e-05
1.1623114e-09
1.0138521e-05
6.788008e-09
4.9787806e-05
2.2585921e-08
0.00014239659
5.9627658e-08
0.00034300941
1.3750009e-07
0.00075212164
2.8606699e-07
0.0015375106
5.3772325e-07
0.0029426312
8.9070546e-07
0.0052408188
1.2263914e-06
0.0085768789
1.2674904e-06
0.012687758
8.1593772e-07
0.016676379
1.0938366e-11
0.019197488
-8.1592544e-07
0.019197488
-1.267485e-06
0.016676379
-1.2263568e-06
0.012687758
-8.9060782e-07
0.008576879
-5.3756486e-07
0.0052408188
-2.8588686e-07
0.0029426313
-1.3734349e-07
0.0015375106
-5.9517775e-08
0.00075212165
-2.2523012e-08
0.00034300941
-6.7527347e-09
0.0001423966
-1.1487546e-09
4.9787807e-05
1.0138521e-05
1.0569391e-09
1.0137465e-05
6.173663e-09
4.9782691e-05
2.0546502e-08
0.00014238222
5.4263665e-08
0.00034297569
1.2520839e-07
0.0007520507
2.6078606e-07
0.001537375
4.9126075e-07
0.0029424007
8.1722041e-07
0.0052404928
1.1341722e-06
0.0085765619
1.1857864e-06
0.012687706
7.7022236e-07
0.016676795
1.019723e-11
0.019198258
-7.7020935e-07
0.019198258
-1.1857783e-06
0.016676795
-1.1341407e-06
0.012687706
-8.1713976e-07
0.008576562
-4.911328e-07
0.0052404929
-2.6064149e-07
0.0029424008
-1.25083e-07
0.001537375
-5.41759e-08
0.00075205071
-2.0496565e-08
0.0003429757
-6.1455642e-09
0.00014238223
-1.0461514e-09
4.9782692e-05
1.0137465e-05
9.6592402e-10
1.01365e-05
5.642745e-09
4.9778016e-05
1.878313e-08
0.00014236909
4.9621983e-08
0.00034294486
1.1455769e-07
0.00075198577
2.3882668e-07
0.0015372507
4.5071011e-07
0.0029421888
7.5247489e-07
0.005240191
1.0514846e-06
0.0085762629
1.1108224e-06
0.012687647
7.276915e-07
0.016677178
9.5462465e-12
0.019198986
-7.2767745e-07
0.019198986
-1.1108111e-06
0.016677178
-1.0514553e-06
0.012687647
-7.5240755e-07
0.008576263
-4.5060498e-07
0.0052401911
-2.387076e-07
0.0029421889
-1.1445419e-07
0.0015372508
-4.954992e-08
0.00075198579
-1.8742898e-08
0.00034294487
-5.6201235e-09
0.00014236909
-9.573442e-10
4.9778017e-05
1.01365e-05
8.8659716e-10
1.0135614e-05
5.1797031e-09
4.9773725e-05
1.7244433e-08
0.00014235702
4.5568709e-08
0.00034291654
1.0524646e-07
0.0007519261
2.1958969e-07
0.0015371364
4.1504595e-07
0.0029419934
6.9507949e-07
0.005239911
9.7707738e-07
0.0085759808
1.0418555e-06
0.012687582
6.8800533e-07
0.016677532
8.975359e-12
0.019199674
-6.8799008e-07
0.019199674
-1.0418407e-06
0.016677532
-9.7704836e-07
0.012687582
-6.9502051e-07
0.008575981
-4.1495541e-07
0.005239911
-2.1948642e-07
0.0029419934
-1.0515595e-07
0.0015371364
-4.5505546e-08
0.00075192612
-1.7209418e-08
0.00034291655
-5.1599628e-09
0.00014235703
-8.7917171e-10
4.9773726e-05
1.0135614e-05
8.1685577e-10
1.0134798e-05
4.7723519e-09
4.9769771e-05
1.589024e-08
0.00014234591
4.1999218e-08
0.00034289044
9.703883e-08
0.00075187107
2.0260401e-07
0.0015370308
3.8345051e-07
0.0029418125
6.4388575e-07
0.0052396505
9.0982711e-07
0.0085757149
9.7822378e-07
0.012687514
6.5086406e-07
0.016677859
8.5230676e-12
0.019200325
-6.5084745e-07
0.019200325
-9.7820498e-07
0.016677859
-9.0979634e-07
0.012687514
-6.4383076e-07
0.008575715
-3.8336901e-07
0.0052396506
-2.0251196e-07
0.0029418126
-9.6958937e-08
0.0015370309
-4.1944386e-08
0.00075187108
-1.5860664e-08
0.00034289045
-4.7559651e-09
0.00014234591
-8.1083579e-10
4.9769772e-05
1.0134798e-05
7.5502511e-10
1.0134044e-05
4.4110482e-09
4.9766117e-05
1.4688787e-08
0.00014233563
3.8830739e-08
0.0003428663
8.9747745e-08
0.00075182015
1.8749393e-07
0.0015369331
3.552645e-07
0.0029416447
5.9794818e-07
0.0052394078
8.4877435e-07
0.008575464
9.1935609e-07
0.012687443
6.1600835e-07
0.016678162
8.1171765e-12
0.019200941
-6.1599048e-07
0.019200941
-9.1933327e-07
0.016678163
-8.4874079e-07
0.012687443
-5.9789473e-07
0.0085754642
-3.5518976e-07
0.0052394079
-1.8741242e-07
0.0029416448
-8.9679182e-08
0.0015369331
-3.8785288e-08
0.00075182017
-1.466523e-08
0.00034286631
-4.3986262e-09
0.00014233564
-7.5068284e-10
4.9766118e-05
1.0134044e-05
6.9978315e-10
1.0133345e-05
4.0882348e-09
4.976273e-05
1.3615192e-08
0.00014232611
3.5998364e-08
0.00034284392
8.3226028e-08
0.00075177292
1.739622e-07
0.0015368424
3.2996107e-07
0.0029414887
5.5649659e-07
0.0052391812
7.9310881e-07
0.0085752274
8.6475995e-07
0.012687371
5.832293e-07
0.016678444
7.6644382e-12
0.019201524
-5.8321068e-07
0.019201524
-8.6473404e-07
0.016678444
-7.9307297e-07
0.012687372
-5.564453e-07
0.0085752275
-3.2989565e-07
0.0052391813
-1.7389627e-07
0.0029414888
-8.317462e-08
0.0015368424
-3.5966864e-08
0.00075177294
-1.3600094e-08
0.00034284393
-4.0813506e-09
0.00014232611
-6.9771659e-10
4.9762731e-05
1.0133345e-05
6.5008672e-10
1.0132696e-05
3.7979571e-09
4.9759583e-05
1.2649824e-08
0.00014231726
3.3450832e-08
0.00034282312
7.7357139e-08
0.00075172902
1.6177238e-07
0.0015367579
3.0711806e-07
0.0029413434
5.1890616e-07
0.0052389694
7.4216067e-07
0.0085750041
8.1400713e-07
0.0126873
5.5234139e-07
0.016678706
7.1432095e-12
0.019202076
-5.5232273e-07
0.019202076
-8.1397972e-07
0.016678706
-7.4212455e-07
0.0126873
-5.1886046e-07
0.0085750043
-3.0706857e-07
0.0052389696
-1.6173149e-07
0.0029413434
-7.7332539e-08
0.001536758
-3.3440605e-08
0.00075172904
-1.2647308e-08
0.00034282313
-3.7990902e-09
0.00014231726
-6.5123646e-10
4.9759584e-05
1.0132696e-05
6.051066e-10
1.0132091e-05
3.5354682e-09
4.9756653e-05
1.1776998e-08
0.00014230902
3.114713e-08
0.00034280375
7.2047607e-08
0.00075168812
1.507341e-07
0.0015366792
2.8639333e-07
0.0029412077
4.8466391e-07
0.0052387712
6.9536626e-07
0.0085747934
7.6673654e-07
0.012687228
5.2320292e-07
0.016678949
6.5232805e-12
0.019202599
-5.2318496e-07
0.019202599
-7.6670961e-07
0.016678949
-6.9533302e-07
0.012687228
-4.8462927e-07
0.0085747936
-2.8636893e-07
0.0052387713
-1.5073002e-07
0.0029412078
-7.2061209e-08
0.0015366793
-3.116679e-08
0.00075168813
-1.179221e-08
0.00034280376
-3.5476752e-09
0.00014230902
-6.1067472e-10
4.9756655e-05
1.0132092e-05
5.6418868e-10
1.0131528e-05
3.2969649e-09
4.9753921e-05
1.0984078e-08
0.00014230133
2.9054125e-08
0.00034278568
6.7221724e-08
0.00075164994
1.406927e-07
0.0015366058
2.6750766e-07
0.0029410809
4.5334792e-07
0.0052385853
6.5225506e-07
0.0085745945
7.226253e-07
0.012687158
4.9567167e-07
0.016679176
5.9489862e-12
0.019203095
-4.9565491e-07
0.019203095
-7.2260067e-07
0.016679176
-6.5222798e-07
0.012687158
-4.5333039e-07
0.0085745947
-2.6751765e-07
0.0052385854
-1.407362e-07
0.002941081
-6.7282888e-08
0.0015366058
-2.9110058e-08
0.00075164996
-1.1020462e-08
0.00034278569
-3.3221148e-09
0.00014230133
-5.7487074e-10
4.9753922e-05
1.0131528e-05
5.2681548e-10
1.0131001e-05
3.0793721e-09
4.9751368e-05
1.0260775e-08
0.00014229415
2.7144744e-08
0.00034276879
6.2817487e-08
0.00075161427
1.315212e-07
0.0015365371
2.5023061e-07
0.0029409622
4.2460594e-07
0.0052384109
6.1242465e-07
0.0085744067
6.814058e-07
0.012687089
4.6965165e-07
0.016679388
5.7026872e-12
0.019203565
-4.6963619e-07
0.019203565
-6.813845e-07
0.016679388
-6.1240628e-07
0.012687089
-4.2461075e-07
0.0085744068
-2.5028276e-07
0.0052384111
-1.3162045e-07
0.0029409623
-6.293262e-08
0.0015365371
-2.7240809e-08
0.00075161429
-1.0320126e-08
0.0003427688
-3.1181686e-09
0.00014229415
-5.4278912e-10
4.9751369e-05
1.0131001e-05
4.9257673e-10
1.0130509e-05
2.8801809e-09
4.974898e-05
9.5986385e-09
0.00014228743
2.5396658e-08
0.00034275299
5.8783673e-08
0.00075158087
1.231146e-07
0.0015364727
2.3437145e-07
0.0029408509
3.9814575e-07
0.0052382472
5.7553888e-07
0.0085742293
6.4282663e-07
0.012687021
4.4502344e-07
0.016679586
5.9929297e-12
0.01920401
-4.4500829e-07
0.01920401
-6.4280828e-07
0.016679586
-5.7553017e-07
0.012687022
-3.98176e-07
0.0085742294
-2.3447015e-07
0.0052382473
-1.2327373e-07
0.002940851
-5.8955931e-08
0.0015364728
-2.5535283e-08
0.00075158089
-9.6829752e-09
0.000342753
-2.9337e-09
0.00014228743
-5.1430796e-10
4.9748981e-05
1.0130509e-05
4.6114005e-10
1.0130047e-05
2.6973086e-09
4.9746743e-05
8.9906197e-09
0.00014228113
2.379116e-08
0.00034273819
5.5077316e-08
0.00075154958
1.1538472e-07
0.0015364124
2.1976931e-07
0.0029407465
3.7371775e-07
0.0052380932
5.4130291e-07
0.0085740617
6.0668926e-07
0.012686956
4.2172695e-07
0.016679771
6.9908477e-12
0.019204431
-4.2171048e-07
0.019204431
-6.0667207e-07
0.016679771
-5.4130278e-07
0.012686956
-3.7377326e-07
0.0085740619
-2.1991356e-07
0.0052380933
-1.1560025e-07
0.0029407466
-5.5301377e-08
0.0015364124
-2.3967115e-08
0.0007515496
-9.0962988e-09
0.00034273819
-2.7630324e-09
0.00014228113
-4.8757306e-10
4.9746743e-05
1.0130047e-05
4.3222688e-10
1.0129615e-05
2.5289928e-09
4.9744646e-05
8.4307561e-09
0.00014227523
2.2312414e-08
0.0003427243
5.1662102e-08
0.00075152023
1.0825719e-07
0.0015363558
2.062888e-07
0.0029406485
3.511127e-07
0.0052379484
5.0946967e-07
0.0085739033
5.7278751e-07
0.012686893
3.9964944e-07
0.016679944
8.8487082e-12
0.019204831
-3.9962956e-07
0.019204831
-5.7276864e-07
0.016679944
-5.0947532e-07
0.012686893
-3.5119055e-07
0.0085739035
-2.0647358e-07
0.0052379485
-1.0852146e-07
0.0029406486
-5.1929665e-08
0.0015363558
-2.2519127e-08
0.00075152024
-8.5539772e-09
0.00034272431
-2.6044203e-09
0.00014227523
-4.6234216e-10
4.9744646e-05
1.0129615e-05
4.0559431e-10
1.0129209e-05
2.3737149e-09
4.9742677e-05
7.9139406e-09
0.00014226969
2.0946844e-08
0.00034271127
4.8506886e-08
0.00075149266
1.0166815e-07
0.0015363026
1.9381308e-07
0.0029405563
3.3014694e-07
0.005237812
4.7981603e-07
0.0085737537
5.4097641e-07
0.012686832
3.7876322e-07
0.016680106
1.1517454e-11
0.01920521
-3.7873773e-07
0.01920521
-5.4095248e-07
0.016680106
-4.7982346e-07
0.012686832
-3.3024147e-07
0.0085737538
-1.9402904e-07
0.0052378122
-1.0196872e-07
0.0029405564
-4.880594e-08
0.0015363027
-2.1175747e-08
0.00075149268
-8.0503366e-09
0.00034271127
-2.4563275e-09
0.00014226969
-4.3848996e-10
4.9742676e-05
1.0129209e-05
3.8102017e-10
1.0128827e-05
2.2301318e-09
4.9740827e-05
7.4357106e-09
0.00014226448
1.9682663e-08
0.00034269902
4.5584802e-08
0.00075146676
9.556279e-08
0.0015362527
1.8224229e-07
0.0029404696
3.1066507e-07
0.0052376836
4.5215364e-07
0.0085736122
5.1107357e-07
0.012686773
3.5894813e-07
0.016680258
1.4615573e-11
0.019205569
-3.5891548e-07
0.019205569
-5.1104157e-07
0.016680258
-4.5215853e-07
0.012686773
-3.1076896e-07
0.0085736123
-1.8247716e-07
0.0052376837
-9.5883674e-08
0.0029404697
-4.589948e-08
0.0015362527
-1.9921344e-08
0.00075146677
-7.5775337e-09
0.00034269902
-2.3152526e-09
0.00014226448
-4.1482622e-10
4.9740826e-05
1.0128827e-05
3.5830029e-10
1.0128468e-05
2.0970689e-09
4.9739087e-05
6.9922141e-09
0.00014225958
1.8509712e-08
0.0003426875
4.2872603e-08
0.00075144239
8.9893386e-08
0.0015362056
1.7148873e-07
0.002940388
2.9252758e-07
0.0052375626
4.2630963e-07
0.0085734784
4.8298142e-07
0.012686716
3.4021187e-07
0.016680401
1.7694201e-11
0.019205909
-3.4017151e-07
0.019205909
-4.8293958e-07
0.016680401
-4.263085e-07
0.012686716
-2.926338e-07
0.0085734785
-1.7173088e-07
0.0052375627
-9.022064e-08
0.0029403881
-4.3190538e-08
0.0015362057
-1.8749659e-08
0.0007514424
-7.1348817e-09
0.0003426875
-2.1821592e-09
0.00014225958
-3.9206147e-10
4.9739087e-05
1.0128468e-05
3.3723578e-10
1.0128131e-05
1.9734418e-09
4.973745e-05
6.5799576e-09
0.00014225498
1.7418932e-08
0.00034267665
4.0349837e-08
0.00075141945
8.461833e-08
0.0015361614
1.6147632e-07
0.0029403112
2.7561472e-07
0.0052374484
4.0213338e-07
0.0085733519
4.5652189e-07
0.012686662
3.2241174e-07
0.016680535
2.0332277e-11
0.019206231
-3.2236447e-07
0.019206231
-4.5647001e-07
0.016680535
-4.0212424e-07
0.012686662
-2.7571732e-07
0.008573352
-1.6171551e-07
0.0052374485
-8.4940135e-08
0.0029403113
-4.0660996e-08
0.0015361614
-1.7653498e-08
0.00075141947
-6.7199665e-09
0.00034267666
-2.0567779e-09
0.00014225498
-3.7036619e-10
4.973745e-05
1.0128131e-05
3.1764866e-10
1.0127813e-05
1.8583424e-09
4.9735908e-05
6.1960505e-09
0.00014225064
1.6402791e-08
0.00034266644
3.7999177e-08
0.00075139785
7.9701687e-08
0.0015361196
1.5213843e-07
0.0029402387
2.598196e-07
0.0052373407
3.7949262e-07
0.0085732322
4.3164892e-07
0.012686609
3.0560152e-07
0.016680661
2.1963929e-11
0.019206537
-3.055495e-07
0.019206537
-4.315888e-07
0.016680661
-3.7947553e-07
0.01268661
-2.5991498e-07
0.0085732323
-1.5236796e-07
0.0052373408
-8.0010689e-08
0.0029402388
-3.8297361e-08
0.0015361197
-1.6627379e-08
0.00075139787
-6.3301981e-09
0.00034266645
-1.9381743e-09
0.00014225064
-3.4942688e-10
4.9735909e-05
1.0127813e-05
2.9936291e-10
1.0127514e-05
1.7508805e-09
4.9734456e-05
5.8376766e-09
0.00014224655
1.5454158e-08
0.00034265682
3.5804719e-08
0.00075137749
7.5111165e-08
0.0015360803
1.4341536e-07
0.0029401704
2.4504584e-07
0.0052372391
3.5825753e-07
0.008573119
4.0816704e-07
0.01268656
2.8959707e-07
0.01668078
2.1774583e-11
0.019206827
-2.8954329e-07
0.019206827
-4.0810208e-07
0.01668078
-3.5823459e-07
0.01268656
-2.4513366e-07
0.0085731191
-1.4363401e-07
0.0052372392
-7.5407443e-08
0.0029401705
-3.609165e-08
0.0015360804
-1.5670985e-08
0.00075137751
-5.9675556e-09
0.00034265683
-1.8284417e-09
0.00014224655
-3.3030508e-10
4.9734456e-05
1.0127514e-05
2.8224564e-10
1.0127231e-05
1.6504397e-09
4.9733087e-05
5.5028907e-09
0.00014224269
1.4567923e-08
0.00034264775
3.3754281e-08
0.0007513583
7.082062e-08
0.0015360433
1.3525798e-07
0.002940106
2.3121551e-07
0.0052371431
3.3833836e-07
0.0085730118
3.8609901e-07
0.012686512
2.7451875e-07
0.016680891
1.9519411e-11
0.019207101
-2.7446676e-07
0.019207101
-3.8603369e-07
0.016680891
-3.3831336e-07
0.012686512
-2.3129832e-07
0.0085730119
-1.3546885e-07
0.0052371433
-7.110882e-08
0.0029401061
-3.4035047e-08
0.0015360433
-1.4780915e-08
0.00075135831
-5.6305696e-09
0.00034264776
-1.7271036e-09
0.0001422427
-3.1288329e-10
4.9733087e-05
1.0127231e-05
2.6615429e-10
1.0126965e-05
1.5562654e-09
4.9731796e-05
5.1892596e-09
0.00014223906
1.3738062e-08
0.0003426392
3.1834773e-08
0.00075134019
6.6803877e-08
0.0015360083
1.2761706e-07
0.0029400452
2.1824417e-07
0.0052370525
3.1960591e-07
0.0085729105
3.6520093e-07
0.012686466
2.6011314e-07
0.016680996
1.5917562e-11
0.019207361
-2.6006704e-07
0.019207361
-3.6514033e-07
0.016680996
-3.1958381e-07
0.012686466
-2.1832707e-07
0.0085729106
-1.2782706e-07
0.0052370526
-6.7092603e-08
0.0029400452
-3.2117347e-08
0.0015360083
-1.3952593e-08
0.00075134021
-5.3172079e-09
0.0003426392
-1.6333483e-09
0.00014223906
-2.9689844e-10
4.9731796e-05
1.0126965e-05
2.5103517e-10
1.0126714e-05
1.4681355e-09
4.9730578e-05
4.8960247e-09
0.00014223563
1.2962244e-08
0.00034263112
3.0039466e-08
0.00075132311
6.3044626e-08
0.0015359753
1.2046149e-07
0.0029399878
2.0608775e-07
0.0052369669
3.0203025e-07
0.0085728145
3.4560083e-07
0.012686423
2.4660176e-07
0.016681095
1.1279743e-11
0.019207608
-2.4656489e-07
0.019207608
-3.4554962e-07
0.016681095
-3.0201621e-07
0.012686423
-2.0617714e-07
0.0085728146
-1.2067941e-07
0.005236967
-6.3344104e-08
0.0029399878
-3.0333196e-08
0.0015359753
-1.3185138e-08
0.00075132312
-5.0282886e-09
0.00034263113
-1.5479104e-09
0.00014223563
-2.827449e-10
4.9730578e-05
1.0126714e-05
2.3676839e-10
1.0126477e-05
1.3852609e-09
4.9729427e-05
4.6205269e-09
0.00014223239
1.2234064e-08
0.0003426235
2.8355375e-08
0.00075130697
5.9518488e-08
0.0015359441
1.137447e-07
0.0029399335
1.946568e-07
0.005236886
2.8544897e-07
0.0085727237
3.2695611e-07
0.012686381
2.3362077e-07
0.016681189
5.8669432e-12
0.019207841
-2.3359555e-07
0.019207841
-3.2691788e-07
0.016681189
-2.8544746e-07
0.012686381
-1.9475857e-07
0.0085727238
-1.1397755e-07
0.0052368861
-5.9835019e-08
0.0029399336
-2.866417e-08
0.0015359441
-1.2466807e-08
0.00075130698
-4.7572089e-09
0.0003426235
-1.4673381e-09
0.00014223239
-2.6916421e-10
4.9729427e-05
1.0126477e-05
2.2342541e-10
1.0126253e-05
1.3080787e-09
4.9728341e-05
4.3640373e-09
0.00014222933
1.1555744e-08
0.0003426163
2.6784146e-08
0.00075129173
5.6223286e-08
0.0015359146
1.0746178e-07
0.0029398823
1.8396184e-07
0.0052368095
2.6993742e-07
0.0085726378
3.0956872e-07
0.012686341
2.2154905e-07
0.016681277
3.7213171e-13
0.019208063
-2.2153644e-07
0.019208063
-3.0954568e-07
0.016681277
-2.6995168e-07
0.012686342
-1.840801e-07
0.0085726379
-1.0771307e-07
0.0052368096
-5.6558137e-08
0.0029398823
-2.7107192e-08
0.0015359147
-1.179684e-08
0.00075129174
-4.504205e-09
0.0003426163
-1.3914745e-09
0.00014222933
-2.5605396e-10
4.972834e-05
1.0126253e-05
2.1082764e-10
1.0126041e-05
1.2352416e-09
4.9727315e-05
4.1220196e-09
0.00014222644
1.0916817e-08
0.0003426095
2.5306602e-08
0.00075127733
5.3127163e-08
0.0015358868
1.0155309e-07
0.0029398339
1.7387443e-07
0.0052367372
2.5523515e-07
0.0085725564
2.9291395e-07
0.012686304
2.098494e-07
0.01668136
-4.8126569e-12
0.019208273
-2.0984921e-07
0.019208273
-2.9290664e-07
0.01668136
-2.552664e-07
0.012686304
-1.7400967e-07
0.0085725565
-1.0181961e-07
0.0052367373
-5.3472384e-08
0.0029398339
-2.5633814e-08
0.0015358868
-1.1157677e-08
0.00075127734
-4.2605738e-09
0.0003426095
-1.3165156e-09
0.00014222644
-2.4230288e-10
4.9727314e-05
1.0126041e-05
1.9929996e-10
1.0125841e-05
1.168747e-09
4.9726343e-05
3.9007341e-09
0.00014222371
1.0330707e-08
0.00034260306
2.3944428e-08
0.00075126371
5.0259855e-08
0.0015358605
9.606978e-08
0.002939788
1.6451936e-07
0.0052366687
2.4162858e-07
0.0085724793
2.7759633e-07
0.012686268
1.9915224e-07
0.016681438
-9.1236368e-12
0.019208472
-1.9916302e-07
0.019208472
-2.7760375e-07
0.016681438
-2.4167578e-07
0.012686268
-1.6466765e-07
0.0085724794
-9.6340823e-08
0.0052366688
-5.0598258e-08
0.0029397881
-2.4257244e-08
0.0015358605
-1.0556634e-08
0.00075126372
-4.0290682e-09
0.00034260306
-1.2424324e-09
0.0001422237
-2.2745169e-10
4.9726342e-05
1.0125841e-05
1.8827577e-10
1.0125652e-05
1.104738e-09
4.9725425e-05
3.6876848e-09
0.00014222112
9.7694005e-09
0.00034259697
2.264897e-08
0.00075125083
4.7548151e-08
0.0015358356
9.0889022e-08
0.0029397447
1.5564479e-07
0.005236604
2.2863182e-07
0.0085724063
2.6278477e-07
0.012686234
1.886649e-07
0.016681512
-1.2167693e-11
0.019208661
-1.8868431e-07
0.019208661
-2.6280503e-07
0.016681512
-2.2869171e-07
0.012686234
-1.5579746e-07
0.0085724063
-9.1146732e-08
0.005236604
-4.7855011e-08
0.0029397447
-2.2923331e-08
0.0015358356
-9.9630679e-09
0.00075125083
-3.7966818e-09
0.00034259697
-1.165524e-09
0.00014222112
-2.1116435e-10
4.9725424e-05
1.0125651e-05
1.7891448e-10
1.0125472e-05
1.0504929e-09
4.9724552e-05
3.5059412e-09
0.00014221866
9.2839137e-09
0.00034259119
2.150788e-08
0.0007512386
4.5121118e-08
0.001535812
8.6216945e-08
0.0029397036
1.4764952e-07
0.0052365425
2.1697875e-07
0.008572337
2.4963283e-07
0.012686201
1.7943914e-07
0.016681582
-1.4192118e-11
0.01920884
-1.7946472e-07
0.01920884
-2.4966231e-07
0.016681582
-2.1704549e-07
0.012686201
-1.4779349e-07
0.008572337
-8.6437801e-08
0.0052365425
-4.5366487e-08
0.0029397036
-2.1715864e-08
0.001535812
-9.425344e-09
0.0007512386
-3.5845788e-09
0.00034259119
-1.0921663e-09
0.00014221866
-1.9426285e-10
4.9724551e-05
1.0125471e-05
1.6791698e-10
1.0125303e-05
9.8621182e-10
4.9723733e-05
3.29411e-09
0.00014221636
8.7386853e-09
0.00034258575
2.0288651e-08
0.00075122705
4.2651759e-08
0.0015357896
8.1616909e-08
0.0029396646
1.3987718e-07
0.0052364843
2.056487e-07
0.0085722712
2.3668632e-07
0.01268617
1.7025989e-07
0.016681649
-1.4905281e-11
0.019209011
-1.7028886e-07
0.019209011
-2.3672113e-07
0.016681649
-2.0571457e-07
0.01268617
-1.3999658e-07
0.0085722712
-8.177651e-08
0.0052364842
-4.280904e-08
0.0029396646
-2.0409288e-08
0.0015357896
-8.8157132e-09
0.00075122705
-3.3374572e-09
0.00034258575
-1.0069027e-09
0.00014221635
-1.7538459e-10
4.9723732e-05
1.0125303e-05
1.6332229e-10
1.0125139e-05
9.5911063e-10
4.9722937e-05
3.1967326e-09
0.00014221412
8.4480749e-09