/*--------------------------------*- C++ -*----------------------------------*\
| =========                 |                                                 |
| \\      /  F ield         | OpenFOAM: The Open Source CFD Toolbox           |
|  \\    /   O peration     | Version:  2406                                  |
|   \\  /    A nd           | Website:  www.openfoam.com                      |
|    \\/     M anipulation  |                                                 |
\*---------------------------------------------------------------------------*/
FoamFile
{
    version     2.0;
    format      ascii;
    arch        "LSB;label=32;scalar=64";
    class       volVectorField;
    location    "10";
    object      U;
}
// * * * * * * * * * * * * * * * * * * * * * * * * * * * * * * * * * * * * * //

dimensions      [0 1 -1 0 0 0 0];

internalField   nonuniform List<vector> 
1176
(
(0.019493789 7.0785974e-07 0)
(0.066677318 8.1696718e-06 0)
(0.13357994 3.9503308e-05 0)
(0.227247 0.00010873624 0)
(0.35591522 0.00021176138 0)
(0.52772023 0.00030396481 0)
(0.74780387 0.00031818275 0)
(1.0136216 0.00024904834 0)
(1.3093323 0.00016667177 0)
(1.6017081 0.00011264801 0)
(1.8421723 7.0214854e-05 0)
(1.9793239 2.3941078e-05 0)
(1.9793239 -2.3940793e-05 0)
(1.8421723 -7.0214261e-05 0)
(1.6017081 -0.00011264624 0)
(1.3093323 -0.00016666674 0)
(1.0136216 -0.00024903657 0)
(0.74780387 -0.00031816084 0)
(0.52772023 -0.00030393222 0)
(0.35591522 -0.0002117223 0)
(0.227247 -0.00010869819 0)
(0.13357994 -3.9474281e-05 0)
(0.066677318 -8.1529605e-06 0)
(0.019493789 -7.0274198e-07 0)
(0.020187016 -3.741919e-06 0)
(0.06881353 -2.4638619e-05 0)
(0.13732107 -9.6548417e-05 0)
(0.2324739 -0.00024839418 0)
(0.36204616 -0.00047268688 0)
(0.53373556 -0.0006742102 0)
(0.75267407 -0.00069486702 0)
(1.0170176 -0.0004968708 0)
(1.3116385 -0.00023345659 0)
(1.6034438 -4.9822464e-05 0)
(1.8436588 1.9765943e-05 0)
(1.9807026 1.3428044e-05 0)
(1.9807026 -1.3428598e-05 0)
(1.8436588 -1.9767074e-05 0)
(1.6034438 4.9820229e-05 0)
(1.3116385 0.00023345279 0)
(1.0170176 0.0004968645 0)
(0.75267404 0.00069485658 0)
(0.53373554 0.00067419553 0)
(0.36204615 0.00047267054 0)
(0.23247389 0.00024837976 0)
(0.13732106 9.6538569e-05 0)
(0.068813529 2.4633612e-05 0)
(0.020187016 3.7404945e-06 0)
(0.020018441 2.0918379e-06 0)
(0.068327402 1.2720792e-05 0)
(0.13655404 4.687736e-05 0)
(0.23159543 0.0001138977 0)
(0.36138707 0.00019769339 0)
(0.53366967 0.00023903352 0)
(0.75344343 0.00020559976 0)
(1.0184881 0.00011361394 0)
(1.3134639 7.4316535e-05 0)
(1.6053464 7.9535504e-05 0)
(1.8455118 7.0518545e-05 0)
(1.9825245 2.7827102e-05 0)
(1.9825245 -2.7824644e-05 0)
(1.8455118 -7.0516088e-05 0)
(1.6053464 -7.9532959e-05 0)
(1.3134639 -7.431366e-05 0)
(1.0184881 -0.00011361067 0)
(0.75344344 -0.00020559696 0)
(0.53366969 -0.00023903009 0)
(0.36138708 -0.00019769086 0)
(0.23159544 -0.00011389623 0)
(0.13655404 -4.687677e-05 0)
(0.068327402 -1.27207e-05 0)
(0.020018441 -2.0918451e-06 0)
(0.019966546 7.0076561e-07 0)
(0.068159227 4.6870659e-06 0)
(0.1362402 1.9355543e-05 0)
(0.23111939 5.6456482e-05 0)
(0.36078091 0.00013444639 0)
(0.53306291 0.00025829462 0)
(0.75295635 0.0003534496 0)
(1.0181104 0.00036912215 0)
(1.313184 0.00030759098 0)
(1.6051633 0.00022777494 0)
(1.8453995 0.00014556139 0)
(1.9824491 4.9998541e-05 0)
(1.9824491 -4.9996755e-05 0)
(1.8453995 -0.0001455599 0)
(1.6051633 -0.00022777374 0)
(1.313184 -0.00030759067 0)
(1.0181104 -0.0003691211 0)
(0.75295635 -0.00035344649 0)
(0.53306291 -0.00025829061 0)
(0.36078091 -0.00013444141 0)
(0.23111938 -5.6451925e-05 0)
(0.1362402 -1.9352112e-05 0)
(0.068159226 -4.6850709e-06 0)
(0.019966545 -7.001483e-07 0)
(0.019942202 2.9077364e-07 0)
(0.068078698 1.9872337e-06 0)
(0.13608627 8.2362343e-06 0)
(0.23087698 2.3699642e-05 0)
(0.36044742 5.6882299e-05 0)
(0.53266446 0.00012306999 0)
(0.75256876 0.00022681984 0)
(1.0178079 0.00032272428 0)
(1.3129044 0.00034572723 0)
(1.604912 0.00030730236 0)
(1.8452029 0.00021095535 0)
(1.9822898 7.4616221e-05 0)
(1.9822898 -7.4613684e-05 0)
(1.8452029 -0.00021095323 0)
(1.604912 -0.00030730072 0)
(1.3129044 -0.00034572534 0)
(1.0178079 -0.00032272191 0)
(0.75256876 -0.00022681563 0)
(0.53266446 -0.00012306432 0)
(0.36044742 -5.6876765e-05 0)
(0.23087698 -2.369558e-05 0)
(0.13608627 -8.2335255e-06 0)
(0.068078697 -1.9857311e-06 0)
(0.019942202 -2.9031308e-07 0)
(0.01993313 1.718227e-07 0)
(0.06804775 1.1941164e-06 0)
(0.13602488 5.06534e-06 0)
(0.23077534 1.4969233e-05 0)
(0.36029897 3.6220334e-05 0)
(0.53247918 7.694552e-05 0)
(0.75239425 0.00014713945 0)
(1.0177221 0.00023749251 0)
(1.3129292 0.00028525847 0)
(1.6049746 0.00027441745 0)
(1.8452865 0.0001964485 0)
(1.9823834 7.117884e-05 0)
(1.9823834 -7.1175923e-05 0)
(1.8452865 -0.00019644604 0)
(1.6049746 -0.00027441544 0)
(1.3129292 -0.00028525585 0)
(1.0177221 -0.00023748732 0)
(0.75239425 -0.00014713034 0)
(0.53247918 -7.6933902e-05 0)
(0.36029896 -3.6209547e-05 0)
(0.23077533 -1.4961544e-05 0)
(0.13602487 -5.0604388e-06 0)
(0.06804775 -1.1915209e-06 0)
(0.01993313 -1.7104624e-07 0)
(0.019923398 1.5588396e-07 0)
(0.068015501 1.0701201e-06 0)
(0.13596285 4.4936212e-06 0)
(0.23067605 1.3195879e-05 0)
(0.36015771 3.1858005e-05 0)
(0.53230175 6.6959608e-05 0)
(0.75221426 0.00012412057 0)
(1.0176105 0.0001991724 0)
(1.3129358 0.00025491062 0)
(1.6050903 0.00024595378 0)
(1.8454579 0.00018128123 0)
(1.9825798 6.6550538e-05 0)
(1.9825798 -6.6547261e-05 0)
(1.8454579 -0.00018127869 0)
(1.6050904 -0.00024595202 0)
(1.3129358 -0.00025490756 0)
(1.0176105 -0.00019916472 0)
(0.75221426 -0.00012410658 0)
(0.53230175 -6.6942092e-05 0)
(0.36015771 -3.1842183e-05 0)
(0.23067605 -1.3184883e-05 0)
(0.13596285 -4.4867897e-06 0)
(0.068015501 -1.0665747e-06 0)
(0.019923398 -1.5483341e-07 0)
(0.019915695 1.2759796e-07 0)
(0.067989786 8.7807387e-07 0)
(0.13591292 3.6961862e-06 0)
(0.23059501 1.0902076e-05 0)
(0.36003985 2.6614315e-05 0)
(0.5321475 5.7238547e-05 0)
(0.7520413 0.00010911206 0)
(1.0174722 0.00017936776 0)
(1.3128926 0.00023802639 0)
(1.6051413 0.00023746923 0)
(1.8455877 0.0001775089 0)
(1.9827513 6.55415e-05 0)
(1.9827513 -6.5538045e-05 0)
(1.8455877 -0.00017750657 0)
(1.6051413 -0.00023746778 0)
(1.3128926 -0.00023802264 0)
(1.0174722 -0.00017935698 0)
(0.75204129 -0.00010909271 0)
(0.5321475 -5.7215075e-05 0)
(0.36003985 -2.6593663e-05 0)
(0.23059501 -1.0888023e-05 0)
(0.13591292 -3.6876462e-06 0)
(0.067989788 -8.7372137e-07 0)
(0.019915696 -1.2631936e-07 0)
(0.019909215 1.0467497e-07 0)
(0.067968135 7.2321283e-07 0)
(0.13587082 3.0523357e-06 0)
(0.23052652 9.0123973e-06 0)
(0.35993982 2.2001004e-05 0)
(0.53201539 4.7475035e-05 0)
(0.75188898 9.2015676e-05 0)
(1.0173341 0.00015618314 0)
(1.3128278 0.00021699796 0)
(1.6051595 0.00022709778 0)
(1.8456699 0.00017232825 0)
(1.982868 6.4149744e-05 0)
(1.982868 -6.4146438e-05 0)
(1.8456699 -0.0001723264 0)
(1.6051595 -0.00022709664 0)
(1.3128278 -0.00021699321 0)
(1.0173341 -0.00015616902 0)
(0.75188897 -9.1991281e-05 0)
(0.53201539 -4.7446417e-05 0)
(0.35993982 -2.1976421e-05 0)
(0.23052652 -8.9959554e-06 0)
(0.13587083 -3.0425277e-06 0)
(0.067968137 -7.1829215e-07 0)
(0.019909216 -1.0324025e-07 0)
(0.019903969 8.6149427e-08 0)
(0.067950546 5.9706091e-07 0)
(0.13583648 2.5276614e-06 0)
(0.23047028 7.4922856e-06 0)
(0.3598569 1.8377608e-05 0)
(0.53190433 3.9837517e-05 0)
(0.75175833 7.7713934e-05 0)
(1.0172122 0.00013432558 0)
(1.3127613 0.00019323465 0)
(1.6051771 0.00021058474 0)
(1.8457533 0.00016273151 0)
(1.9829863 6.1086221e-05 0)
(1.9829863 -6.108316e-05 0)
(1.8457533 -0.00016273021 0)
(1.6051771 -0.00021058388 0)
(1.3127613 -0.00019322882 0)
(1.0172122 -0.00013430859 0)
(0.75175833 -7.7685756e-05 0)
(0.53190433 -3.9805423e-05 0)
(0.3598569 -1.8350551e-05 0)
(0.23047029 -7.4743849e-06 0)
(0.13583648 -2.5171129e-06 0)
(0.067950548 -5.9182822e-07 0)
(0.01990397 -8.4632351e-08 0)
(0.019899541 7.3385193e-08 0)
(0.067935681 5.0908161e-07 0)
(0.13580741 2.15722e-06 0)
(0.23042257 6.4035298e-06 0)
(0.35978624 1.5749062e-05 0)
(0.53180886 3.4279855e-05 0)
(0.75164405 6.7206541e-05 0)
(1.017102 0.00011723118 0)
(1.3126976 0.00017262544 0)
(1.6051928 0.00019309018 0)
(1.8458371 0.00015220043 0)
(1.9831061 5.7546727e-05 0)
(1.9831061 -5.7543925e-05 0)
(1.8458371 -0.00015219961 0)
(1.6051928 -0.00019308954 0)
(1.3126976 -0.00017261867 0)
(1.017102 -0.00011721233 0)
(0.75164405 -6.7176479e-05 0)
(0.53180886 -3.4246534e-05 0)
(0.35978624 -1.5721427e-05 0)
(0.23042257 -6.3853896e-06 0)
(0.13580741 -2.1466201e-06 0)
(0.067935684 -5.0386449e-07 0)
(0.019899542 -7.1878521e-08 0)
(0.019895719 6.3761018e-08 0)
(0.067922843 4.4266012e-07 0)
(0.13578227 1.8771109e-06 0)
(0.23038123 5.5773705e-06 0)
(0.35972481 1.374028e-05 0)
(0.53172532 3.0000197e-05 0)
(0.75154261 5.9113632e-05 0)
(1.017001 0.00010388947 0)
(1.3126344 0.00015540351 0)
(1.6052015 0.00017849641 0)
(1.8459125 0.0001427172 0)
(1.9832185 5.4332479e-05 0)
(1.9832185 -5.432991e-05 0)
(1.8459125 -0.00014271672 0)
(1.6052015 -0.00017849572 0)
(1.3126344 -0.00015539609 0)
(1.017001 -0.00010386997 0)
(0.7515426 -5.908375e-05 0)
(0.53172532 -2.9967962e-05 0)
(0.35972481 -1.3713995e-05 0)
(0.23038123 -5.5602804e-06 0)
(0.13578227 -1.8672226e-06 0)
(0.067922846 -4.3783552e-07 0)
(0.01989572 -6.2373481e-08 0)
(0.019892369 5.6128288e-08 0)
(0.06791158 3.8993165e-07 0)
(0.1357602 1.6545275e-06 0)
(0.23034488 4.919659e-06 0)
(0.35967066 1.2133688e-05 0)
(0.53165133 2.654472e-05 0)
(0.75145186 5.2500912e-05 0)
(1.0169085 9.2876958e-05 0)
(1.3125728 0.00014061549 0)
(1.605205 0.00016529727 0)
(1.8459798 0.00013399092 0)
(1.9833221 5.138929e-05 0)
(1.9833221 -5.1386909e-05 0)
(1.8459798 -0.0001339906 0)
(1.605205 -0.00016529641 0)
(1.3125728 -0.00014060779 0)
(1.0169085 -9.2858015e-05 0)
(0.75145186 -5.2472964e-05 0)
(0.53165133 -2.6515301e-05 0)
(0.35967066 -1.2110024e-05 0)
(0.23034489 -4.9043515e-06 0)
(0.1357602 -1.6457176e-06 0)
(0.067911582 -3.8565596e-07 0)
(0.019892369 -5.4901973e-08 0)
(0.019889401 4.9889654e-08 0)
(0.0679016 3.4677913e-07 0)
(0.13574063 1.4721799e-06 0)
(0.23031262 4.3803004e-06 0)
(0.3596225 1.0814002e-05 0)
(0.53158528 2.3693686e-05 0)
(0.75137025 4.6986213e-05 0)
(1.016824 8.3547408e-05 0)
(1.3125139 0.0001277378 0)
(1.6052051 0.0001529342 0)
(1.8460414 0.00012582179 0)
(1.9834196 4.8618225e-05 0)
(1.9834196 -4.8616e-05 0)
(1.8460414 -0.00012582146 0)
(1.6052051 -0.00015293317 0)
(1.3125139 -0.00012773029 0)
(1.016824 -8.3530082e-05 0)
(0.75137025 -4.6961546e-05 0)
(0.53158528 -2.3668297e-05 0)
(0.35962251 -1.0793824e-05 0)
(0.23031262 -4.3672955e-06 0)
(0.13574063 -1.4647153e-06 0)
(0.067901602 -3.4316447e-07 0)
(0.019889402 -4.8853986e-08 0)
(0.01988675 4.4739834e-08 0)
(0.067892678 3.1110556e-07 0)
(0.13572312 1.3212298e-06 0)
(0.23028373 3.9331014e-06 0)
(0.35957932 9.7175333e-06 0)
(0.53152589 2.1317785e-05 0)
(0.75129644 4.2362167e-05 0)
(1.0167465 7.5620714e-05 0)
(1.312458 0.00011654227 0)
(1.6052026 0.00014169894 0)
(1.8460982 0.00011827223 0)
(1.9835117 4.6033164e-05 0)
(1.9835117 -4.6031072e-05 0)
(1.8460982 -0.00011827179 0)
(1.6052026 -0.00014169771 0)
(1.3124581 -0.00011653536 0)
(1.0167465 -7.56057e-05 0)
(0.75129644 -4.2341449e-05 0)
(0.53152589 -2.1296887e-05 0)
(0.35957933 -9.701142e-06 0)
(0.23028374 -3.9226276e-06 0)
(0.13572312 -1.3152639e-06 0)
(0.06789268 -3.0823352e-07 0)
(0.01988675 -4.3919048e-08 0)
(0.01988436 4.0426103e-08 0)
(0.067884637 2.8119581e-07 0)
(0.13570734 1.1945521e-06 0)
(0.23025767 3.5573444e-06 0)
(0.35954032 8.7944696e-06 0)
(0.53147212 1.9312082e-05 0)
(0.75122929 3.8441834e-05 0)
(1.0166752 6.8839405e-05 0)
(1.3124052 0.00010678297 0)
(1.6051982 0.00013155186 0)
(1.8461503 0.00011132872 0)
(1.9835985 4.3632477e-05 0)
(1.9835985 -4.3630514e-05 0)
(1.8461503 -0.00011132812 0)
(1.6051982 -0.00013155052 0)
(1.3124052 -0.00010677691 0)
(1.0166753 -6.8826902e-05 0)
(0.7512293 -3.8424936e-05 0)
(0.53147213 -1.9295209e-05 0)
(0.35954033 -8.781285e-06 0)
(0.23025768 -3.5489149e-06 0)
(0.13570734 -1.1897416e-06 0)
(0.067884638 -2.7887594e-07 0)
(0.019884361 -3.9762721e-08 0)
(0.019882193 3.6749629e-08 0)
(0.067877342 2.5568864e-07 0)
(0.13569301 1.086456e-06 0)
(0.23023401 3.2364402e-06 0)
(0.35950487 8.0050598e-06 0)
(0.53142316 1.7592808e-05 0)
(0.75116792 3.5068638e-05 0)
(1.0166095 6.2964259e-05 0)
(1.3123553 9.8202191e-05 0)
(1.6051922 0.00012233263 0)
(1.8461982 0.00010491347 0)
(1.9836803 4.1391537e-05 0)
(1.9836803 -4.1389689e-05 0)
(1.8461982 -0.00010491267 0)
(1.6051923 -0.00012233116 0)
(1.3123553 -9.8197022e-05 0)
(1.0166095 -6.2954079e-05 0)
(0.75116793 -3.5055039e-05 0)
(0.53142317 -1.7579277e-05 0)
(0.35950488 -7.9945149e-06 0)
(0.23023401 -3.2297266e-06 0)
(0.13569302 -1.0826314e-06 0)
(0.067877343 -2.538432e-07 0)
(0.019882194 -3.6221588e-08 0)
(0.019880217 3.3576388e-08 0)
(0.067870689 2.3365694e-07 0)
(0.13567995 9.9303372e-07 0)
(0.23021241 2.9589144e-06 0)
(0.35947249 7.3216595e-06 0)
(0.53137838 1.6101822e-05 0)
(0.7511116 3.2134163e-05 0)
(1.0165487 5.7823228e-05 0)
(1.3123082 9.0601138e-05 0)
(1.6051851 0.00011395204 0)
(1.8462423 9.8955718e-05 0)
(1.9837576 3.9289699e-05 0)
(1.9837576 -3.9287944e-05 0)
(1.8462423 -9.8954657e-05 0)
(1.6051851 -0.00011395039 0)
(1.3123082 -9.0596666e-05 0)
(1.0165488 -5.7814831e-05 0)
(0.75111161 -3.2122978e-05 0)
(0.53137839 -1.6090654e-05 0)
(0.3594725 -7.3129726e-06 0)
(0.23021242 -2.9534463e-06 0)
(0.13567995 -9.8995341e-07 0)
(0.06787069 -2.3218293e-07 0)
(0.019880218 -3.3156291e-08 0)
(0.019878408 3.0812801e-08 0)
(0.067864593 2.1445294e-07 0)
(0.13566797 9.115498e-07 0)
(0.23019261 2.7166976e-06 0)
(0.35944279 6.7246628e-06 0)
(0.53133725 1.4797486e-05 0)
(0.75105972 2.9560604e-05 0)
(1.0164924 5.3292192e-05 0)
(1.3122638 8.3830138e-05 0)
(1.6051772 0.00010632243 0)
(1.846283 9.3402746e-05 0)
(1.9838307 3.7312943e-05 0)
(1.9838307 -3.7311269e-05 0)
(1.846283 -9.3401402e-05 0)
(1.6051772 -0.00010632052 0)
(1.3122638 -8.3826051e-05 0)
(1.0164924 -5.3284939e-05 0)
(0.75105973 -2.955094e-05 0)
(0.53133725 -1.478775e-05 0)
(0.3594428 -6.7170548e-06 0)
(0.23019262 -2.7119181e-06 0)
(0.13566797 -9.0886549e-07 0)
(0.067864595 -2.1317252e-07 0)
(0.019878408 -3.0448786e-08 0)
(0.019876743 2.8384777e-08 0)
(0.067858987 1.975673e-07 0)
(0.13565695 8.3986211e-07 0)
(0.23017439 2.5034825e-06 0)
(0.35941544 6.1987338e-06 0)
(0.53129933 1.3647028e-05 0)
(0.75101179 2.7285992e-05 0)
(1.0164401 4.9271287e-05 0)
(1.3122219 7.7766355e-05 0)
(1.6051687 9.935472e-05 0)
(1.8463206 8.8212791e-05 0)
(1.9838998 3.5449784e-05 0)
(1.9838998 -3.5448175e-05 0)
(1.8463206 -8.8211147e-05 0)
(1.6051687 -9.9352432e-05 0)
(1.3122219 -7.7762354e-05 0)
(1.0164401 -4.9264683e-05 0)
(0.7510118 -2.7277342e-05 0)
(0.53129933 -1.3638384e-05 0)
(0.35941545 -6.1920663e-06 0)
(0.2301744 -2.4993829e-06 0)
(0.13565696 -8.376162e-07 0)
(0.067858989 -1.9651935e-07 0)
(0.019876743 -2.8090211e-08 0)
(0.019875207 2.6233137e-08 0)
(0.067853812 1.82596e-07 0)
(0.13564678 7.7627671e-07 0)
(0.23015757 2.3142855e-06 0)
(0.35939017 5.7317539e-06 0)
(0.53126426 1.2624484e-05 0)
(0.75096737 2.5260737e-05 0)
(1.0163914 4.5679001e-05 0)
(1.3121824 7.2306864e-05 0)
(1.6051599 9.2972143e-05 0)
(1.8463555 8.3349692e-05 0)
(1.9839651 3.3689722e-05 0)
(1.9839651 -3.3688178e-05 0)
(1.8463555 -8.3347762e-05 0)
(1.6051599 -9.2969439e-05 0)
(1.3121824 -7.2302766e-05 0)
(1.0163914 -4.5672787e-05 0)
(0.75096739 -2.5252945e-05 0)
(0.53126427 -1.2616948e-05 0)
(0.35939018 -5.7261232e-06 0)
(0.23015757 -2.3109487e-06 0)
(0.13564679 -7.7453502e-07 0)
(0.067853814 -1.8182315e-07 0)
(0.019875207 -2.6021973e-08 0)
(0.019873785 2.4311066e-08 0)
(0.067849021 1.6922172e-07 0)
(0.13563737 7.1946719e-07 0)
(0.23014198 2.1452034e-06 0)
(0.35936676 5.3142147e-06 0)
(0.53123175 1.1709426e-05 0)
(0.75092612 2.3445595e-05 0)
(1.0163459 4.2449825e-05 0)
(1.3121451 6.7366532e-05 0)
(1.6051508 8.7106712e-05 0)
(1.8463878 7.8784596e-05 0)
(1.984027 3.2024014e-05 0)
(1.984027 -3.2022555e-05 0)
(1.8463878 -7.8782455e-05 0)
(1.6051509 -8.7103679e-05 0)
(1.3121451 -6.7362374e-05 0)
(1.0163459 -4.2444128e-05 0)
(0.75092613 -2.3439035e-05 0)
(0.53123176 -1.1703554e-05 0)
(0.35936677 -5.3101427e-06 0)
(0.23014199 -2.1429733e-06 0)
(0.13563737 -7.1843281e-07 0)
(0.067849023 -1.68826e-07 0)
(0.019873785 -2.421317e-08 0)
(0.019872465 2.2581662e-08 0)
(0.067844576 1.5719451e-07 0)
(0.13562863 6.6838845e-07 0)
(0.23012752 1.9931566e-06 0)
(0.35934502 4.9385979e-06 0)
(0.53120153 1.0885647e-05 0)
(0.75088771 2.1809319e-05 0)
(1.0163035 3.9531157e-05 0)
(1.3121099 6.287533e-05 0)
(1.6051417 8.1701331e-05 0)
(1.8464178 7.449159e-05 0)
(1.9840857 3.044463e-05 0)
(1.9840857 -3.0443276e-05 0)
(1.8464178 -7.4489352e-05 0)
(1.6051418 -8.1698157e-05 0)
(1.31211 -6.2871352e-05 0)
(1.0163035 -3.9526437e-05 0)
(0.75088773 -2.1804782e-05 0)
(0.53120154 -1.0882408e-05 0)
(0.35934503 -4.9369321e-06 0)
(0.23012752 -1.9925944e-06 0)
(0.13562863 -6.6839006e-07 0)
(0.067844578 -1.5733767e-07 0)
(0.019872466 -2.2643659e-08 0)
(0.019871238 2.1015691e-08 0)
(0.06784044 1.4631549e-07 0)
(0.1356205 6.2220668e-07 0)
(0.23011406 1.8556845e-06 0)
(0.35932478 4.5988823e-06 0)
(0.53117338 1.0140124e-05 0)
(0.7508519 2.032669e-05 0)
(1.0162637 3.688031e-05 0)
(1.3120768 5.8775505e-05 0)
(1.6051326 7.6705995e-05 0)
(1.8464457 7.0451028e-05 0)
(1.9841412 2.8945352e-05 0)
(1.9841412 -2.894412e-05 0)
(1.8464457 -7.0448828e-05 0)
(1.6051327 -7.6702944e-05 0)
(1.3120768 -5.8772097e-05 0)
(1.0162638 -3.6877256e-05 0)
(0.75085192 -2.0325211e-05 0)
(0.5311734 -1.0140686e-05 0)
(0.35932479 -4.6006192e-06 0)
(0.23011407 -1.8574661e-06 0)
(0.1356205 -6.236508e-07 0)
(0.067840442 -1.4720156e-07 0)
(0.019871239 -2.1296924e-08 0)
(0.019870095 1.9590338e-08 0)
(0.067836587 1.3642648e-07 0)
(0.13561292 5.8025211e-07 0)
(0.23010151 1.730802e-06 0)
(0.35930591 4.2901982e-06 0)
(0.53114712 9.4622979e-06 0)
(0.75081844 1.8977183e-05 0)
(1.0162265 3.44623e-05 0)
(1.3120454 5.5018883e-05 0)
(1.6051237 7.2079484e-05 0)
(1.8464717 6.664243e-05 0)
(1.9841938 2.7519847e-05 0)
(1.9841938 -2.7518733e-05 0)
(1.8464717 -6.6640389e-05 0)
(1.6051237 -7.2076809e-05 0)
(1.3120455 -5.5016478e-05 0)
(1.0162265 -3.4461647e-05 0)
(0.75081846 -1.8979756e-05 0)
(0.53114714 -9.4676679e-06 0)
(0.35930592 -4.2961168e-06 0)
(0.23010152 -1.7354051e-06 0)
(0.13561292 -5.8339816e-07 0)
(0.067836589 -1.3817563e-07 0)
(0.019870095 -2.0124639e-08 0)
(0.019869027 1.8287812e-08 0)
(0.067832989 1.2740087e-07 0)
(0.13560585 5.4198143e-07 0)
(0.2300898 1.61689e-06 0)
(0.35928829 4.0085616e-06 0)
(0.53112258 8.8435085e-06 0)
(0.75078714 1.7743927e-05 0)
(1.0161916 3.2248285e-05 0)
(1.3120159 5.1565373e-05 0)
(1.6051148 6.7784316e-05 0)
(1.846496 6.3052197e-05 0)
(1.9842436 2.616397e-05 0)
(1.9842436 -2.61629e-05 0)
(1.846496 -6.3050368e-05 0)
(1.6051149 -6.7782201e-05 0)
(1.3120159 -5.1564334e-05 0)
(1.0161916 -3.2250667e-05 0)
(0.75078717 -1.7751347e-05 0)
(0.5311226 -8.8544135e-06 0)
(0.3592883 -4.0191659e-06 0)
(0.2300898 -1.6245852e-06 0)
(0.13560585 -5.4694511e-07 0)
(0.067832991 -1.300506e-07 0)
(0.019869028 -1.9083236e-08 0)
(0.019868029 1.7094261e-08 0)
(0.067829626 1.1913665e-07 0)
(0.13559923 5.0694978e-07 0)
(0.23007884 1.5126153e-06 0)
(0.3592718 3.7506835e-06 0)
(0.53109962 8.2766014e-06 0)
(0.75075783 1.6612965e-05 0)
(1.0161589 3.0214259e-05 0)
(1.311988 4.838105e-05 0)
(1.6051062 6.3790716e-05 0)
(1.8465186 5.9662482e-05 0)
(1.9842908 2.4872475e-05 0)
(1.9842908 -2.4871337e-05 0)
(1.8465186 -5.9660812e-05 0)
(1.6051062 -6.3789178e-05 0)
(1.311988 -4.8381564e-05 0)
(1.0161589 -3.0220051e-05 0)
(0.75075785 -1.6625662e-05 0)
(0.53109964 -8.2933989e-06 0)
(0.35927181 -3.7662476e-06 0)
(0.23007885 -1.5236237e-06 0)
(0.13559923 -5.1387995e-07 0)
(0.067829627 -1.2276477e-07 0)
(0.01986803 -1.8173519e-08 0)
(0.019867095 1.5998627e-08 0)
(0.067826478 1.1155002e-07 0)
(0.13559304 4.7478701e-07 0)
(0.23006858 1.4168627e-06 0)
(0.35925636 3.5138054e-06 0)
(0.53107811 7.7555677e-06 0)
(0.75073033 1.5572567e-05 0)
(1.0161281 2.8340085e-05 0)
(1.3119616 4.5437454e-05 0)
(1.6050978 6.0069593e-05 0)
(1.8465397 5.6464686e-05 0)
(1.9843356 2.3642978e-05 0)
(1.9843356 -2.3641625e-05 0)
(1.8465397 -5.6463013e-05 0)
(1.6050978 -6.006848e-05 0)
(1.3119616 -4.5439463e-05 0)
(1.0161281 -2.8349257e-05 0)
(0.75073036 -1.5590331e-05 0)
(0.53107812 -7.7778063e-06 0)
(0.35925637 -3.5337963e-06 0)
(0.23006859 -1.4307407e-06 0)
(0.13559304 -4.8336984e-07 0)
(0.067826478 -1.1598129e-07 0)
(0.019867095 -1.7308606e-08 0)
(0.01986622 1.4991664e-08 0)
(0.067823526 1.045703e-07 0)
(0.13558723 4.4517975e-07 0)
(0.23005897 1.3286878e-06 0)
(0.35924189 3.2955939e-06 0)
(0.53105792 7.2753383e-06 0)
(0.75070453 1.4612845e-05 0)
(1.0160991 2.6608638e-05 0)
(1.3119367 4.2709873e-05 0)
(1.6050897 5.6599271e-05 0)
(1.8465595 5.3441575e-05 0)
(1.984378 2.2470619e-05 0)
(1.984378 -2.246888e-05 0)
(1.8465596 -5.343966e-05 0)
(1.6050897 -5.6598286e-05 0)
(1.3119367 -4.2713114e-05 0)
(1.0160992 -2.662084e-05 0)
(0.75070455 -1.4635059e-05 0)
(0.53105794 -7.3022068e-06 0)
(0.3592419 -3.3192661e-06 0)
(0.23005897 -1.3449246e-06 0)
(0.13558724 -4.5509667e-07 0)
(0.067823527 -1.0963599e-07 0)
(0.01986622 -1.648167e-08 0)
(0.019865398 1.4065217e-08 0)
(0.067820758 9.8136316e-08 0)
(0.13558179 4.1785901e-07 0)
(0.23004994 1.247281e-06 0)
(0.3592283 3.0940469e-06 0)
(0.53103897 6.8315568e-06 0)
(0.75068028 1.37253e-05 0)
(1.0160719 2.500533e-05 0)
(1.3119131 4.0177535e-05 0)
(1.6050818 5.3356141e-05 0)
(1.8465781 5.0589288e-05 0)
(1.9844181 2.1354606e-05 0)
(1.9844181 -2.1352324e-05 0)
(1.8465781 -5.0586852e-05 0)
(1.6050818 -5.3354907e-05 0)
(1.3119131 -4.0181561e-05 0)
(1.0160719 -2.5019867e-05 0)
(0.7506803 -1.3750895e-05 0)
(0.53103899 -6.8618212e-06 0)
(0.35922831 -3.1203765e-06 0)
(0.23004994 -1.2652473e-06 0)
(0.13558179 -4.2876871e-07 0)
(0.067820757 -1.0367838e-07 0)
(0.019865398 -1.5690803e-08 0)
(0.019864627 1.3211625e-08 0)
(0.067818157 9.2193032e-08 0)
(0.13557667 3.9258793e-07 0)
(0.23004146 1.1719367e-06 0)
(0.35921553 2.9074335e-06 0)
(0.53102117 6.4204847e-06 0)
(0.75065748 1.2902646e-05 0)
(1.0160462 2.3517424e-05 0)
(1.3118909 3.7821631e-05 0)
(1.6050742 5.0324338e-05 0)
(1.8465955 4.7889309e-05 0)
(1.9844563 2.0289693e-05 0)
(1.9844563 -2.0286781e-05 0)
(1.8465955 -4.7886131e-05 0)
(1.6050742 -5.0322475e-05 0)
(1.3118909 -3.7825912e-05 0)
(1.0160463 -2.3533378e-05 0)
(0.7506575 -1.2930227e-05 0)
(0.53102118 -6.4525408e-06 0)
(0.35921554 -2.9350114e-06 0)
(0.23004147 -1.1906391e-06 0)
(0.13557667 -4.0387319e-07 0)
(0.067818157 -9.7895406e-08 0)
(0.019864627 -1.4880217e-08 0)
(0.019863902 1.2423641e-08 0)
(0.067815713 8.6691406e-08 0)
(0.13557186 3.6916129e-07 0)
(0.2300335 1.1020472e-06 0)
(0.35920353 2.7342575e-06 0)
(0.53100442 6.0388665e-06 0)
(0.75063602 1.2138529e-05 0)
(1.0160221 2.2134048e-05 0)
(1.3118698 3.5626729e-05 0)
(1.6050669 4.7483915e-05 0)
(1.8466117 4.5343083e-05 0)
(1.9844923 1.9276782e-05 0)
(1.9844923 -1.9273245e-05 0)
(1.8466118 -4.5339038e-05 0)
(1.6050669 -4.7481162e-05 0)
(1.3118698 -3.5630794e-05 0)
(1.0160221 -2.2150535e-05 0)
(0.75063604 -1.2166828e-05 0)
(0.53100443 -6.0713921e-06 0)
(0.35920354 -2.7620477e-06 0)
(0.2300335 -1.1208482e-06 0)
(0.13557186 -3.8047308e-07 0)
(0.067815712 -9.2390189e-08 0)
(0.019863902 -1.40887e-08 0)
(0.01986322 1.1693967e-08 0)
(0.067813413 8.1584807e-08 0)
(0.13556734 3.4739053e-07 0)
(0.230026 1.0370655e-06 0)
(0.35919224 2.5731971e-06 0)
(0.53098866 5.6838678e-06 0)
(0.75061581 1.1427411e-05 0)
(1.0159993 2.084534e-05 0)
(1.3118499 3.3577732e-05 0)
(1.6050598 4.4823162e-05 0)
(1.8466271 4.2928746e-05 0)
(1.9845266 1.8309452e-05 0)
(1.9845266 -1.8305393e-05 0)
(1.8466271 -4.2923851e-05 0)
(1.6050599 -4.4819418e-05 0)
(1.3118499 -3.3581228e-05 0)
(1.0159993 -2.0861578e-05 0)
(0.75061583 -1.1455327e-05 0)
(0.53098867 -5.7157688e-06 0)
(0.35919224 -2.6003759e-06 0)
(0.230026 -1.0554731e-06 0)
(0.13556734 -3.5847756e-07 0)
(0.067813413 -8.7173653e-08 0)
(0.01986322 -1.3327282e-08 0)
(0.019862578 1.1015914e-08 0)
(0.067811249 7.6833331e-08 0)
(0.13556308 3.2711996e-07 0)
(0.23001894 9.7654028e-07 0)
(0.3591816 2.4231408e-06 0)
(0.53097381 5.353045e-06 0)
(0.75059677 1.076449e-05 0)
(1.0159778 1.9643172e-05 0)
(1.3118311 3.16634e-05 0)
(1.6050531 4.2324987e-05 0)
(1.8466414 4.065457e-05 0)
(1.9845589 1.7390805e-05 0)
(1.9845589 -1.738645e-05 0)
(1.8466414 -4.0649015e-05 0)
(1.6050531 -4.232036e-05 0)
(1.3118311 -3.1666183e-05 0)
(1.0159778 -1.965865e-05 0)
(0.75059679 -1.0791314e-05 0)
(0.53097382 -5.3836463e-06 0)
(0.35918161 -2.4491748e-06 0)
(0.23001894 -9.941697e-07 0)
(0.13556308 -3.3774164e-07 0)
(0.067811249 -8.2190645e-08 0)
(0.019862578 -1.2582262e-08 0)
(0.019861973 1.0382798e-08 0)
(0.06780921 7.2397154e-08 0)
(0.13555907 3.0819563e-07 0)
(0.23001229 9.2003641e-07 0)
(0.35917158 2.2830585e-06 0)
(0.53095982 5.0442096e-06 0)
(0.75057882 1.014545e-05 0)
(1.0159575 1.8519563e-05 0)
(1.3118133 2.9870738e-05 0)
(1.6050466 3.9980372e-05 0)
(1.846655 3.849276e-05 0)
(1.9845897 1.6512242e-05 0)
(1.9845897 -1.6507902e-05 0)
(1.846655 -3.848685e-05 0)
(1.6050467 -3.9975161e-05 0)
(1.3118133 -2.9872905e-05 0)
(1.0159575 -1.8534181e-05 0)
(0.75057884 -1.0171112e-05 0)
(0.53095983 -5.0736105e-06 0)
(0.35917159 -2.3081502e-06 0)
(0.23001229 -9.3707968e-07 0)
(0.13555907 -3.1849893e-07 0)
(0.06780921 -7.7608692e-08 0)
(0.019861973 -1.190852e-08 0)
(0.019861404 9.7895164e-09 0)
(0.067807289 6.8248358e-08 0)
(0.13555529 2.9051379e-07 0)
(0.23000602 8.6725219e-07 0)
(0.35916214 2.1521819e-06 0)
(0.53094663 4.7556006e-06 0)
(0.7505619 9.5667723e-06 0)
(1.0159383 1.7468762e-05 0)
(1.3117965 2.8192554e-05 0)
(1.6050405 3.777547e-05 0)
(1.8466677 3.6461184e-05 0)
(1.9846188 1.5680118e-05 0)
(1.9846188 -1.5676146e-05 0)
(1.8466677 -3.6455302e-05 0)
(1.6050405 -3.7770112e-05 0)
(1.3117965 -2.8194408e-05 0)
(1.0159384 -1.748276e-05 0)
(0.75056192 -9.5916445e-06 0)
(0.53094665 -4.7842987e-06 0)
(0.35916215 -2.1767839e-06 0)
(0.23000603 -8.8400276e-07 0)
(0.13555529 -3.0067294e-07 0)
(0.067807289 -7.340363e-08 0)
(0.019861404 -1.1301149e-08 0)
(0.019860866 9.2307668e-09 0)
(0.067805477 6.4353435e-08 0)
(0.13555172 2.7394116e-07 0)
(0.23000011 8.1781477e-07 0)
(0.35915323 2.0296564e-06 0)
(0.53093419 4.4854525e-06 0)
(0.75054592 9.0249433e-06 0)
(1.0159203 1.6483817e-05 0)
(1.3117805 2.6616295e-05 0)
(1.6050346 3.5701868e-05 0)
(1.8466797 3.4522468e-05 0)
(1.9846465 1.4882269e-05 0)
(1.9846465 -1.4878986e-05 0)
(1.8466797 -3.4517059e-05 0)
(1.6050346 -3.5696883e-05 0)
(1.3117805 -2.6618308e-05 0)
(1.0159203 -1.6497751e-05 0)
(0.75054594 -9.0497884e-06 0)
(0.5309342 -4.514286e-06 0)
(0.35915324 -2.0544317e-06 0)
(0.23000011 -8.3465109e-07 0)
(0.13555172 -2.8414126e-07 0)
(0.067805477 -6.9528978e-08 0)
(0.019860866 -1.0748432e-08 0)
(0.019860359 8.7046309e-09 0)
(0.067803768 6.0702956e-08 0)
(0.13554836 2.5844266e-07 0)
(0.22999454 7.7160249e-07 0)
(0.35914483 1.91509e-06 0)
(0.53092245 4.2326965e-06 0)
(0.75053085 8.5177303e-06 0)
(1.0159032 1.5561592e-05 0)
(1.3117654 2.5139871e-05 0)
(1.6050289 3.3751168e-05 0)
(1.8466909 3.2708541e-05 0)
(1.9846725 1.4130109e-05 0)
(1.9846725 -1.4127735e-05 0)
(1.8466909 -3.2704005e-05 0)
(1.6050289 -3.3747062e-05 0)
(1.3117655 -2.5142583e-05 0)
(1.0159032 -1.5576182e-05 0)
(0.75053087 -8.5434894e-06 0)
(0.53092247 -4.2626492e-06 0)
(0.35914484 -1.9408413e-06 0)
(0.22999454 -7.8905674e-07 0)
(0.13554836 -2.6899313e-07 0)
(0.067803768 -6.6047898e-08 0)
(0.019860359 -1.0270603e-08 0)
(0.019859881 8.2070483e-09 0)
(0.067802154 5.7263831e-08 0)
(0.13554518 2.4387208e-07 0)
(0.22998927 7.2820786e-07 0)
(0.3591369 1.8076077e-06 0)
(0.53091136 3.9956704e-06 0)
(0.7505166 8.0418777e-06 0)
(1.015887 1.4694983e-05 0)
(1.3117511 2.374862e-05 0)
(1.6050235 3.1911661e-05 0)
(1.8467016 3.0967128e-05 0)
(1.9846974 1.3405694e-05 0)
(1.9846974 -1.3404379e-05 0)
(1.8467016 -3.096378e-05 0)
(1.6050235 -3.1908838e-05 0)
(1.3117512 -2.3752516e-05 0)
(1.0158871 -1.4710856e-05 0)
(0.75051662 -8.069217e-06 0)
(0.53091138 -4.0272496e-06 0)
(0.3591369 -1.8345951e-06 0)
(0.22998927 -7.4634746e-07 0)
(0.13554518 -2.5474788e-07 0)
(0.067802154 -6.2739327e-08 0)
(0.019859881 -9.8065292e-09 0)
(0.019859429 7.7410383e-09 0)
(0.067800632 5.4057413e-08 0)
(0.13554219 2.3031249e-07 0)
(0.22998431 6.8781335e-07 0)
(0.35912941 1.7074157e-06 0)
(0.53090091 3.7743232e-06 0)
(0.75050316 7.5969913e-06 0)
(1.0158718 1.3884816e-05 0)
(1.3117377 2.2448744e-05 0)
(1.6050184 3.0185921e-05 0)
(1.8467116 2.935128e-05 0)
(1.9847208 1.2728402e-05 0)
(1.9847208 -1.2728163e-05 0)
(1.8467116 -2.9349295e-05 0)
(1.6050184 -3.0184648e-05 0)
(1.3117377 -2.2454187e-05 0)
(1.0158718 -1.3902369e-05 0)
(0.75050318 -7.6261565e-06 0)
(0.53090092 -3.8075369e-06 0)
(0.35912942 -1.735514e-06 0)
(0.22998431 -7.0651412e-07 0)
(0.13554219 -2.4140738e-07 0)
(0.067800632 -5.9593101e-08 0)
(0.019859429 -9.3508296e-09 0)
(0.019859002 7.3007339e-09 0)
(0.067799191 5.1027965e-08 0)
(0.13553935 2.175081e-07 0)
(0.2299796 6.4972567e-07 0)
(0.35912232 1.6131456e-06 0)
(0.530891 3.5663772e-06 0)
(0.75049043 7.1789373e-06 0)
(1.0158573 1.3121488e-05 0)
(1.3117248 2.1218633e-05 0)
(1.6050135 2.8551367e-05 0)
(1.8467212 2.7786026e-05 0)
(1.9847433 1.2071217e-05 0)
(1.9847433 -1.207199e-05 0)
(1.8467212 -2.7785425e-05 0)
(1.6050135 -2.8551739e-05 0)
(1.3117248 -2.1225738e-05 0)
(1.0158574 -1.3140633e-05 0)
(0.75049044 -7.2093843e-06 0)
(0.53089101 -3.6002982e-06 0)
(0.35912233 -1.6414135e-06 0)
(0.2299796 -6.683104e-07 0)
(0.13553935 -2.2838751e-07 0)
(0.06779919 -5.6392194e-08 0)
(0.019859001 -8.8514104e-09 0)
(0.0198586 6.8985703e-09 0)
(0.067797834 4.8266048e-08 0)
(0.13553668 2.0582966e-07 0)
(0.22997518 6.1488172e-07 0)
(0.35911565 1.526471e-06 0)
(0.53088168 3.3741775e-06 0)
(0.75047845 6.7913752e-06 0)
(1.0158438 1.241406e-05 0)
(1.3117128 2.0080849e-05 0)
(1.6050089 2.7033712e-05 0)
(1.8467299 2.6356917e-05 0)
(1.9847641 1.1466432e-05 0)
(1.9847641 -1.1468044e-05 0)
(1.8467299 -2.6357583e-05 0)
(1.6050089 -2.7035636e-05 0)
(1.3117128 -2.0089438e-05 0)
(1.0158438 -1.2434147e-05 0)
(0.75047847 -6.8217275e-06 0)