/*--------------------------------*- C++ -*----------------------------------*\
  =========                 |
  \\      /  F ield         | OpenFOAM: The Open Source CFD Toolbox
   \\    /   O peration     | Website:  https://openfoam.org
    \\  /    A nd           | Version:  10
     \\/     M anipulation  |
\*---------------------------------------------------------------------------*/
FoamFile
{
    format      ascii;
    class       volScalarField;
    location    "23";
    object      T_0;
}
// * * * * * * * * * * * * * * * * * * * * * * * * * * * * * * * * * * * * * //

dimensions      [0 0 -1 0 0 0 0];

internalField   nonuniform List<scalar> 
100
(
1.54383
4.61715
7.64949
10.6139
13.4842
16.2347
18.8412
21.2804
23.5307
25.5722
27.3867
28.9581
30.2724
31.3181
32.0858
32.5687
32.7625
32.6656
32.2787
31.6052
30.6513
29.4253
27.9381
26.2029
24.2352
22.0523
19.6737
17.1205
14.4153
11.5822
8.6463
5.63363
2.57096
-0.514528
-3.59545
-6.64445
-9.63448
-12.539
-15.3322
-17.9893
-20.4867
-22.8023
-24.9155
-26.8076
-28.4617
-29.8632
-30.9996
-31.8608
-32.4393
-32.7298
-32.7298
-32.4392
-31.8608
-30.9995
-29.8631
-28.4617
-26.8076
-24.9155
-22.8023
-20.4867
-17.9893
-15.3321
-12.5389
-9.63442
-6.6444
-3.59539
-0.514471
2.57102
5.63369
8.64636
11.5823
14.4154
17.1206
19.6738
22.0524
24.2352
26.203
27.9381
29.4253
30.6513
31.6053
32.2787
32.6656
32.7626
32.5688
32.0859
31.3182
30.2725
28.9581
27.3867
25.5722
23.5307
21.2804
18.8412
16.2347
13.4842
10.6139
7.6495
4.61716
1.54383
)
;

boundaryField
{
    xmin
    {
        type            fixedValue;
        value           uniform 0;
    }
    xmax
    {
        type            fixedValue;
        value           uniform 0;
    }
    frontAndBack
    {
        type            empty;
    }
}


// ************************************************************************* //
