/*--------------------------------*- C++ -*----------------------------------*\
  =========                 |
  \\      /  F ield         | OpenFOAM: The Open Source CFD Toolbox
   \\    /   O peration     | Website:  https://openfoam.org
    \\  /    A nd           | Version:  10
     \\/     M anipulation  |
\*---------------------------------------------------------------------------*/
FoamFile
{
    format      ascii;
    class       volScalarField;
    location    "16.5";
    object      T;
}
// * * * * * * * * * * * * * * * * * * * * * * * * * * * * * * * * * * * * * //

dimensions      [0 0 -1 0 0 0 0];

internalField   nonuniform List<scalar> 
100
(
2.88431
8.62615
14.2914
19.8298
25.1922
30.331
35.2006
39.7578
43.962
47.7761
51.166
54.1019
56.5575
58.5111
59.9454
60.8476
61.2097
61.0285
60.3056
59.0475
57.2652
54.9747
52.1962
48.9544
45.2781
41.1999
36.756
31.9859
26.9318
21.6387
16.1536
10.525
4.80309
-0.961485
-6.71753
-12.4139
-18.0002
-23.4266
-28.6451
-33.6094
-38.2753
-42.6015
-46.5496
-50.0845
-53.1748
-55.7932
-57.9163
-59.5254
-60.6061
-61.1488
-61.1488
-60.6061
-59.5254
-57.9163
-55.7932
-53.1748
-50.0845
-46.5496
-42.6015
-38.2753
-33.6093
-28.6451
-23.4266
-18.0001
-12.4139
-6.71745
-0.961404
4.80318
10.5251
16.1537
21.6388
26.9319
31.9859
36.7561
41.2
45.2782
48.9545
52.1963
54.9748
57.2653
59.0476
60.3057
61.0286
61.2098
60.8476
59.9454
58.5112
56.5576
54.1019
51.1661
47.7761
43.9621
39.7578
35.2007
30.3311
25.1923
19.8299
14.2914
8.62615
2.88432
)
;

boundaryField
{
    xmin
    {
        type            fixedValue;
        value           uniform 0;
    }
    xmax
    {
        type            fixedValue;
        value           uniform 0;
    }
    frontAndBack
    {
        type            empty;
    }
}


// ************************************************************************* //
