/*--------------------------------*- C++ -*----------------------------------*\
| =========                 |                                                 |
| \\      /  F ield         | OpenFOAM: The Open Source CFD Toolbox           |
|  \\    /   O peration     | Version:  2406                                  |
|   \\  /    A nd           | Website:  www.openfoam.com                      |
|    \\/     M anipulation  |                                                 |
\*---------------------------------------------------------------------------*/
FoamFile
{
    version     2.0;
    format      ascii;
    arch        "LSB;label=32;scalar=64";
    class       volScalarField;
    location    "6";
    object      p;
}
// * * * * * * * * * * * * * * * * * * * * * * * * * * * * * * * * * * * * * //

dimensions      [0 2 -2 0 0 0 0];

internalField   nonuniform List<scalar> 
1176
(
0.79700085
0.79702372
0.79704739
0.79705505
0.79702352
0.79692883
0.79677159
0.79658542
0.79640622
0.79623906
0.79608443
0.79598881
0.79598879
0.79608439
0.796239
0.79640616
0.79658536
0.79677154
0.79692878
0.79702348
0.79705501
0.79704735
0.79702369
0.79700082
0.77385243
0.77380547
0.77375771
0.77374081
0.77380331
0.77400567
0.77437099
0.77483539
0.77526624
0.77555234
0.77567173
0.77570598
0.77570596
0.77567169
0.77555228
0.77526617
0.77483531
0.7743709
0.77400557
0.77380321
0.77374071
0.77375761
0.77380537
0.77385233
0.7567677
0.75678972
0.75680951
0.7568076
0.75674853
0.75658736
0.75631559
0.75598764
0.75568142
0.75546863
0.75535782
0.75530899
0.75530898
0.75535779
0.75546859
0.75568138
0.7559876
0.75631555
0.75658731
0.75674849
0.75680755
0.75680947
0.75678968
0.75676767
0.74009585
0.74010498
0.74011703
0.74013344
0.74015598
0.74017355
0.74014131
0.7400079
0.73977579
0.73950322
0.73927902
0.73915851
0.7391585
0.73927898
0.73950318
0.73977573
0.74000784
0.74014124
0.74017347
0.74015589
0.74013334
0.74011694
0.74010488
0.74009575
0.72367685
0.7236808
0.7236858
0.72369186
0.72370156
0.72372184
0.72375802
0.72379953
0.7238212
0.72379733
0.72373522
0.72368258
0.72368257
0.72373519
0.72379729
0.72382116
0.72379948
0.72375796
0.72372177
0.7237015
0.7236918
0.72368574
0.72368074
0.72367679
0.70721525
0.70721767
0.70722091
0.70722496
0.70722987
0.7072367
0.70725087
0.70728219
0.70733218
0.70738943
0.70743215
0.70744879
0.70744878
0.70743211
0.70738938
0.70733211
0.70728211
0.70725078
0.7072366
0.70722977
0.70722485
0.70722081
0.70721757
0.70721515
0.69080951
0.69081165
0.69081446
0.69081789
0.69082179
0.6908253
0.69082737
0.69082954
0.6908381
0.69085533
0.69087324
0.69088495
0.69088493
0.69087319
0.69085527
0.69083802
0.69082945
0.69082727
0.69082519
0.69082167
0.69081777
0.69081434
0.69081152
0.69080938
0.67442971
0.67443147
0.6744338
0.67443672
0.67444039
0.67444477
0.67444922
0.67445237
0.67445361
0.67445524
0.67445228
0.67444976
0.67444974
0.67445223
0.67445516
0.67445352
0.67445226
0.67444909
0.67444463
0.67444025
0.67443658
0.67443366
0.67443133
0.67442958
0.6580755
0.65807695
0.65807888
0.65808129
0.65808431
0.6580881
0.65809314
0.65810019
0.65810888
0.65811891
0.65812667
0.65813025
0.65813023
0.65812661
0.65811882
0.65810878
0.65810008
0.65809303
0.65808798
0.65808419
0.65808117
0.65807876
0.65807683
0.65807538
0.64173788
0.64173908
0.64174069
0.64174273
0.64174529
0.64174847
0.64175263
0.64175902
0.64176918
0.64178232
0.64179664
0.64180593
0.64180591
0.64179658
0.64178224
0.64176909
0.64175892
0.64175252
0.64174835
0.64174517
0.6417426
0.64174056
0.64173896
0.64173775
0.62541358
0.62541461
0.62541598
0.62541773
0.62541994
0.62542267
0.62542607
0.62543091
0.62543878
0.62544944
0.62546199
0.62547111
0.62547108
0.62546193
0.62544937
0.62543871
0.62543084
0.625426
0.62542261
0.62541988
0.62541767
0.62541593
0.62541455
0.62541353
0.60910021
0.6091011
0.6091023
0.60910382
0.60910576
0.60910816
0.60911112
0.60911513
0.60912135
0.60913
0.60914055
0.60914799
0.60914797
0.60914051
0.60912995
0.6091213
0.60911509
0.60911108
0.60910812
0.60910572
0.60910379
0.60910227
0.60910108
0.60910019
0.59279612
0.59279691
0.59279796
0.59279931
0.59280103
0.59280316
0.59280579
0.59280933
0.59281473
0.59282247
0.59283214
0.59283881
0.5928388
0.59283212
0.59282244
0.5928147
0.59280931
0.59280577
0.59280314
0.592801
0.59279928
0.59279792
0.59279686
0.59279606
0.57650002
0.57650071
0.57650165
0.57650286
0.57650439
0.57650629
0.57650864
0.57651177
0.57651654
0.5765235
0.57653216
0.57653824
0.57653823
0.57653215
0.5765235
0.57651654
0.57651177
0.57650864
0.57650629
0.57650439
0.57650286
0.57650167
0.57650073
0.57650004
0.56021086
0.56021148
0.56021233
0.56021341
0.56021479
0.56021651
0.56021861
0.56022137
0.56022552
0.56023165
0.56023916
0.56024456
0.56024456
0.56023917
0.56023165
0.56022552
0.56022136
0.5602186
0.56021649
0.56021477
0.56021338
0.5602123
0.56021145
0.56021081
0.54392784
0.54392841
0.54392917
0.54393015
0.54393141
0.54393296
0.54393486
0.54393731
0.54394094
0.54394632
0.54395286
0.54395765
0.54395765
0.54395286
0.54394633
0.54394095
0.54393731
0.54393484
0.54393294
0.54393139
0.54393013
0.54392915
0.54392838
0.54392781
0.52765032
0.52765084
0.52765154
0.52765243
0.52765357
0.52765499
0.52765671
0.52765891
0.52766213
0.5276669
0.52767263
0.52767692
0.52767692
0.52767263
0.5276669
0.52766213
0.52765891
0.52765671
0.52765499
0.52765357
0.52765244
0.52765155
0.52765086
0.52765035
0.51137774
0.51137821
0.51137885
0.51137967
0.51138072
0.51138201
0.51138358
0.51138557
0.51138845
0.5113927
0.51139777
0.51140163
0.51140164
0.51139777
0.51139272
0.51138846
0.51138558
0.51138358
0.51138201
0.51138071
0.51137965
0.51137883
0.51137818
0.5113777
0.49510963
0.49511006
0.49511065
0.4951114
0.49511236
0.49511355
0.49511499
0.4951168
0.49511938
0.49512319
0.4951277
0.4951312
0.4951312
0.49512772
0.49512323
0.49511942
0.49511685
0.49511504
0.49511361
0.49511242
0.49511146
0.49511072
0.49511014
0.49510971
0.47884559
0.47884599
0.47884653
0.47884722
0.47884811
0.47884921
0.47885053
0.47885218
0.47885451
0.47885795
0.47886199
0.47886516
0.47886517
0.47886202
0.47885799
0.47885457
0.47885225
0.47885061
0.47884929
0.47884819
0.47884731
0.47884663
0.47884609
0.4788457
0.4625853
0.46258567
0.46258616
0.4625868
0.46258762
0.46258864
0.46258987
0.46259138
0.46259349
0.4625966
0.46260025
0.46260314
0.46260315
0.4626003
0.46259667
0.46259357
0.46259147
0.46258996
0.46258874
0.46258772
0.46258689
0.46258624
0.46258573
0.46258536
0.44632845
0.44632879
0.44632926
0.44632985
0.44633061
0.44633156
0.44633269
0.44633409
0.44633601
0.44633883
0.44634216
0.44634478
0.4463448
0.4463422
0.4463389
0.44633609
0.44633418
0.4463328
0.44633167
0.44633074
0.44632998
0.4463294
0.44632895
0.44632861
0.43007481
0.43007512
0.43007555
0.4300761
0.43007681
0.43007769
0.43007874
0.43008002
0.43008178
0.43008435
0.43008739
0.43008979
0.4300898
0.43008743
0.4300844
0.43008184
0.43008009
0.43007882
0.43007777
0.43007689
0.43007618
0.43007563
0.43007519
0.43007488
0.4138241
0.41382439
0.41382479
0.4138253
0.41382596
0.41382678
0.41382776
0.41382895
0.41383056
0.41383291
0.4138357
0.41383789
0.4138379
0.41383572
0.41383294
0.41383059
0.41382899
0.41382781
0.41382684
0.41382602
0.41382536
0.41382485
0.41382445
0.41382415
0.39757612
0.3975764
0.39757677
0.39757724
0.39757786
0.39757862
0.39757953
0.39758063
0.39758211
0.39758427
0.39758683
0.39758884
0.39758884
0.39758684
0.39758427
0.3975821
0.39758063
0.39757953
0.39757862
0.39757786
0.39757724
0.39757677
0.3975764
0.39757613
0.38133065
0.38133091
0.38133126
0.3813317
0.38133228
0.38133299
0.38133384
0.38133486
0.38133622
0.38133821
0.38134058
0.38134242
0.38134242
0.38134056
0.38133818
0.38133619
0.38133483
0.38133381
0.38133296
0.38133224
0.38133166
0.3813312
0.38133085
0.38133059
0.36508752
0.36508776
0.36508809
0.36508851
0.36508904
0.36508971
0.36509051
0.36509146
0.36509272
0.36509456
0.36509675
0.36509845
0.36509844
0.36509672
0.3650945
0.36509265
0.36509138
0.36509042
0.36508962
0.36508895
0.36508842
0.365088
0.36508769
0.36508745
0.34884658
0.3488468
0.34884711
0.3488475
0.348848
0.34884863
0.34884937
0.34885026
0.34885143
0.34885313
0.34885517
0.34885674
0.34885672
0.34885513
0.34885306
0.34885134
0.34885015
0.34884925
0.3488485
0.34884787
0.34884735
0.34884695
0.34884664
0.34884641
0.33260766
0.33260787
0.33260816
0.33260853
0.332609
0.33260959
0.33261028
0.33261112
0.33261221
0.33261379
0.33261569
0.33261714
0.33261712
0.33261564
0.33261371
0.33261211
0.332611
0.33261015
0.33260944
0.33260885
0.33260838
0.33260802
0.33260773
0.33260752
0.31637064
0.31637084
0.31637111
0.31637145
0.3163719
0.31637245
0.31637311
0.31637389
0.31637491
0.31637638
0.31637817
0.31637952
0.3163795
0.31637811
0.31637631
0.31637483
0.3163738
0.31637301
0.31637235
0.3163718
0.31637135
0.316371
0.31637073
0.31637053
0.30013541
0.30013559
0.30013584
0.30013617
0.30013658
0.3001371
0.30013772
0.30013846
0.30013941
0.30014079
0.30014246
0.30014372
0.30014371
0.30014243
0.30014075
0.30013938
0.30013843
0.3001377
0.30013708
0.30013656
0.30013614
0.30013582
0.30013557
0.30013538
0.28390181
0.28390199
0.28390223
0.28390254
0.28390293
0.28390342
0.28390401
0.2839047
0.2839056
0.28390689
0.28390846
0.28390965
0.28390965
0.28390847
0.28390692
0.28390565
0.28390477
0.2839041
0.28390353
0.28390305
0.28390267
0.28390238
0.28390216
0.28390199
0.2676698
0.26766997
0.26767019
0.26767048
0.26767085
0.26767132
0.26767187
0.26767253
0.26767337
0.26767459
0.26767607
0.26767719
0.2676772
0.26767612
0.26767468
0.26767352
0.2676727
0.26767208
0.26767155
0.2676711
0.26767073
0.26767045
0.26767022
0.26767005
0.25143929
0.25143944
0.25143965
0.25143992
0.25144027
0.25144071
0.25144122
0.25144184
0.25144264
0.25144379
0.25144519
0.25144626
0.25144629
0.25144528
0.25144393
0.25144285
0.2514421
0.25144151
0.25144102
0.2514406
0.25144026
0.25143999
0.25143977
0.25143961
0.23521016
0.23521031
0.23521051
0.23521077
0.2352111
0.23521152
0.23521201
0.23521259
0.23521334
0.23521441
0.23521574
0.23521674
0.23521678
0.23521585
0.23521459
0.23521357
0.23521286
0.23521231
0.23521184
0.23521145
0.23521113
0.23521089
0.2352107
0.23521055
0.21898241
0.21898255
0.21898274
0.21898297
0.21898328
0.21898367
0.21898413
0.21898468
0.21898539
0.2189864
0.21898766
0.21898861
0.21898864
0.21898775
0.21898656
0.21898559
0.21898491
0.21898439
0.21898394
0.21898356
0.21898325
0.21898302
0.21898284
0.21898271
0.20275592
0.20275605
0.20275623
0.20275645
0.20275674
0.20275711
0.20275754
0.20275806
0.20275873
0.20275967
0.20276084
0.20276172
0.20276175
0.2027609
0.20275976
0.20275884
0.20275819
0.20275768
0.20275726
0.20275689
0.20275659
0.20275634
0.20275615
0.202756
0.18653064
0.18653076
0.18653092
0.18653114
0.18653141
0.18653176
0.18653216
0.18653265
0.18653326
0.18653414
0.18653524
0.18653606
0.18653607
0.18653526
0.18653417
0.18653329
0.18653267
0.18653218
0.18653178
0.18653144
0.18653118
0.18653097
0.18653081
0.18653069
0.17030648
0.17030659
0.17030674
0.17030694
0.1703072
0.17030752
0.17030791
0.17030836
0.17030893
0.17030975
0.17031075
0.1703115
0.17031149
0.17031073
0.17030971
0.17030888
0.17030829
0.17030783
0.17030744
0.17030712
0.17030686
0.17030666
0.17030651
0.1703064
0.15408331
0.15408342
0.15408357
0.15408376
0.154084
0.15408431
0.15408467
0.1540851
0.15408563
0.15408638
0.15408731
0.15408799
0.15408797
0.15408726
0.1540863
0.15408553
0.15408497
0.15408453
0.15408417
0.15408386
0.15408361
0.15408341
0.15408326
0.15408314
0.13786112
0.13786122
0.13786136
0.13786153
0.13786176
0.13786205
0.1378624
0.1378628
0.13786329
0.13786397
0.13786481
0.13786543
0.13786541
0.13786476
0.13786389
0.13786318
0.13786266
0.13786224
0.1378619
0.13786161
0.13786138
0.13786121
0.13786107
0.13786096
0.12163972
0.12163982
0.12163995
0.12164012
0.12164034
0.12164061
0.12164095
0.12164134
0.12164181
0.12164243
0.12164317
0.1216437
0.12164369
0.12164314
0.12164238
0.12164173
0.12164124
0.12164085
0.12164052
0.12164025
0.12164003
0.12163986
0.12163973
0.12163963
0.1054191
0.10541919
0.10541932
0.10541948
0.1054197
0.10541997
0.1054203
0.10542069
0.10542113
0.10542169
0.10542236
0.10542283
0.10542281
0.10542233
0.10542167
0.1054211
0.10542063
0.10542023
0.1054199
0.10541963
0.10541942
0.10541926
0.10541914
0.10541905
0.089199176
0.089199265
0.089199384
0.089199538
0.089199743
0.08920001
0.089200342
0.089200728
0.089201155
0.08920163
0.089202126
0.089202435
0.089202431
0.089202117
0.089201623
0.089201152
0.089200723
0.08920034
0.089200017
0.089199751
0.089199535
0.089199363
0.089199222
0.089199116
0.072979786
0.072979878
0.072980001
0.072980159
0.072980372
0.072980651
0.072980993
0.072981379
0.072981784
0.072982225
0.072982649
0.072982915
0.072982915
0.072982658
0.072982248
0.07298182
0.072981422
0.07298105
0.072980727
0.072980467
0.072980273
0.072980134
0.072980031
0.072979956
0.056761102
0.056761191
0.056761309
0.056761462
0.056761669
0.056761945
0.056762296
0.056762697
0.056763077
0.056763354
0.0567635
0.056763493
0.056763488
0.056763507
0.056763385
0.056763129
0.056762779
0.05676242
0.056762092
0.056761814
0.056761591
0.056761417
0.056761276
0.056761171
0.040542436
0.04054252
0.040542634
0.040542788
0.040543008
0.040543308
0.040543683
0.040544097
0.040544495
0.040544835
0.040545127
0.040545251
0.040545257
0.040545151
0.040544888
0.040544576
0.040544202
0.040543806
0.040543448
0.040543163
0.040542955
0.040542811
0.040542706
0.040542629
0.024325253
0.024325358
0.024325496
0.024325661
0.024325861
0.0243261
0.024326371
0.024326643
0.024326821
0.024326771
0.024326412
0.024325963
0.024325978
0.024326447
0.024326813
0.024326864
0.024326698
0.024326453
0.024326199
0.024325965
0.024325764
0.0243256
0.024325465
0.024325362
0.0081052747
0.0081053647
0.008105484
0.008105642
0.0081058592
0.0081061442
0.0081064854
0.0081068788
0.008107433
0.0081084488
0.0081100559
0.0081114833
0.0081114901
0.0081100701
0.0081084597
0.0081074347
0.0081068811
0.008106494
0.0081061554
0.008105873
0.0081056582
0.0081055
0.0081053781
0.0081052848
)
;

boundaryField
{
    INLET
    {
        type            zeroGradient;
    }
    OUTLET
    {
        type            fixedValue;
        value           uniform 0;
    }
    WALL
    {
        type            zeroGradient;
    }
    frontAndBackPlanes
    {
        type            empty;
    }
}


// ************************************************************************* //
