/*--------------------------------*- C++ -*----------------------------------*\
| =========                 |                                                 |
| \\      /  F ield         | OpenFOAM: The Open Source CFD Toolbox           |
|  \\    /   O peration     | Version:  2406                                  |
|   \\  /    A nd           | Website:  www.openfoam.com                      |
|    \\/     M anipulation  |                                                 |
\*---------------------------------------------------------------------------*/
FoamFile
{
    version     2.0;
    format      ascii;
    arch        "LSB;label=32;scalar=64";
    class       surfaceScalarField;
    location    "6";
    object      phi;
}
// * * * * * * * * * * * * * * * * * * * * * * * * * * * * * * * * * * * * * //

dimensions      [0 3 -1 0 0 0 0];

oriented        oriented;

internalField   nonuniform List<scalar> 
2279
(
2.3617492e-08
1.0148926e-05
2.0509728e-07
4.982375e-05
6.9331625e-07
0.00014252872
1.5784687e-06
0.00034353082
2.6788436e-06
0.00075378089
3.3472884e-06
0.0015415573
3.0435221e-06
0.0029497096
2.1516934e-06
0.005249171
1.4318234e-06
0.008582269
9.8962624e-07
0.012685995
5.1271392e-07
0.016666385
5.8230588e-11
0.01918202
-5.1260636e-07
0.01918202
-9.8953781e-07
0.016666385
-1.4317705e-06
0.012685995
-2.1516917e-06
0.0085822691
-3.0435635e-06
0.005249171
-3.3473412e-06
0.0029497097
-2.6788772e-06
0.0015415573
-1.5784823e-06
0.00075378091
-6.9332103e-07
0.00034353083
-2.0509988e-07
0.00014252872
-2.3619125e-08
4.982375e-05
1.0148927e-05
-9.5248661e-08
1.0244175e-05
-5.3794103e-07
5.0266441e-05
-1.6230036e-06
0.00014361378
-3.538957e-06
0.00034544677
-5.9201929e-06
0.00075616212
-7.4055096e-06
0.0015430426
-6.5847362e-06
0.0029488888
-3.9361719e-06
0.0052465224
-1.3884066e-06
0.0085797212
-6.5135753e-08
0.012684671
2.4239927e-07
0.016666078
3.9798173e-12
0.019182263
-2.4238332e-07
0.019182263
6.5165893e-08
0.016666078
1.3884557e-06
0.012684671
3.9362426e-06
0.0085797212
6.5848175e-06
0.0052465223
7.4055763e-06
0.0029488888
5.9202219e-06
0.0015430426
3.5389533e-06
0.00075616209
1.6229867e-06
0.00034544676
5.3792621e-07
0.00014361377
9.5240887e-08
5.0266439e-05
1.0244174e-05
5.0140081e-08
1.0194035e-05
2.6334461e-07
5.0053237e-05
7.4910462e-07
0.00014312802
1.5314513e-06
0.00034466442
2.3366432e-06
0.00075535692
2.5476461e-06
0.0015428316
1.8390816e-06
0.0029495973
9.7566751e-07
0.0052473858
6.7695938e-07
0.0085800199
6.7179578e-07
0.012684676
4.841854e-07
0.016666265
3.2740928e-11
0.019182747
-4.8412759e-07
0.019182747
-6.7175506e-07
0.016666265
-6.769426e-07
0.012684676
-9.7567037e-07
0.00858002
-1.8390912e-06
0.0052473859
-2.5476558e-06
0.0029495974
-2.336659e-06
0.0015428316
-1.5314744e-06
0.00075535693
-7.4913155e-07
0.00034466442
-2.633665e-07
0.00014312802
-5.0151864e-08
5.0053237e-05
1.0194035e-05
1.9584138e-08
1.0174449e-05
1.1184315e-07
4.9960975e-05
3.6127428e-07
0.00014287859
9.0503569e-07
0.00034412066
1.8716497e-06
0.00075439031
3.094818e-06
0.0015416084
3.8987219e-06
0.0029487934
3.7285554e-06
0.0052475559
2.9242181e-06
0.0085808242
1.9733933e-06
0.012685627
1.0128048e-06
0.016667226
5.273236e-11
0.019183759
-1.0127026e-06
0.019183759
-1.9732963e-06
0.016667226
-2.9241196e-06
0.012685627
-3.7284553e-06
0.0085808242
-3.8986212e-06
0.0052475559
-3.094738e-06
0.0029487934
-1.8716032e-06
0.0015416084
-9.0501493e-07
0.0007543903
-3.6126577e-07
0.00034412065
-1.118399e-07
0.00014287858
-1.9583486e-08
4.9960974e-05
1.0174448e-05
8.0791462e-09
1.0166365e-05
4.7131317e-08
4.9921918e-05
1.5493188e-07
0.00014277078
3.9844717e-07
0.00034387715
8.7978385e-07
0.00075390898
1.7015152e-06
0.0015407867
2.7512801e-06
0.0029477437
3.462367e-06
0.0052468448
3.470872e-06
0.0085808157
2.8007095e-06
0.012686297
1.550552e-06
0.016668476
4.8854021e-11
0.01918531
-1.5504588e-06
0.01918531
-2.8006353e-06
0.016668476
-3.4708205e-06
0.012686297
-3.4623074e-06
0.0085808157
-2.751218e-06
0.0052468449
-1.7014765e-06
0.0029477437
-8.7977245e-07
0.0015407867
-3.9845185e-07
0.00075390898
-1.5494044e-07
0.00034387715
-4.7137608e-08
0.00014277078
-8.0821232e-09
4.9921918e-05
1.0166365e-05
4.9324964e-09
1.0161429e-05
2.8692032e-08
4.9898156e-05
9.5111907e-08
0.00014270436
2.492051e-07
0.00034372305
5.636041e-07
0.00075359459
1.1213748e-06
0.001540229
1.9184599e-06
0.0029469466
2.6588248e-06
0.0052461045
2.893068e-06
0.0085805815
2.478789e-06
0.012686712
1.434468e-06
0.01666952
5.6457884e-11
0.019186744
-1.4343588e-06
0.019186744
-2.4786917e-06
0.016669521
-2.8929764e-06
0.012686712
-2.6587408e-06
0.0085805815
-1.9183972e-06
0.0052461045
-1.1213267e-06
0.0029469466
-5.6357907e-07
0.0015402289
-2.4920596e-07
0.00075359458
-9.512791e-08
0.00034372305
-2.8708566e-08
0.00014270436
-4.9419932e-09
4.9898155e-05
1.0161429e-05
4.4070309e-09
1.0157017e-05
2.5515432e-08
4.9877042e-05
8.381708e-08
0.00014264606
2.1688347e-07
0.00034358999
4.8449689e-07
0.00075332698
9.5636152e-07
0.0015397571
1.6413719e-06
0.0029462616
2.3245775e-06
0.0052454213
2.5939529e-06
0.0085803121
2.2393766e-06
0.012687066
1.3067096e-06
0.016670453
5.3809548e-11
0.019188051
-1.3066125e-06
0.019188051
-2.2393e-06
0.016670453
-2.5938921e-06
0.012687066
-2.3245348e-06
0.0085803121
-1.6413477e-06
0.0052454213
-9.5634887e-07
0.0029462616
-4.8448405e-07
0.0015397571
-2.168637e-07
0.00075332699
-8.3793853e-08
0.00034358999
-2.5497235e-08
0.00014264606
-4.3978414e-09
4.9877042e-05
1.0157017e-05
3.6189795e-09
1.0153391e-05
2.1024386e-08
4.9859631e-05
6.9422987e-08
0.00014259765
1.8112879e-07
0.00034347828
4.0970727e-07
0.0007530984
8.2390111e-07
0.0015393429
1.4539879e-06
0.0029456315
2.1430665e-06
0.0052447322
2.4674698e-06
0.0085799877
2.1884059e-06
0.012687345
1.286676e-06
0.016671355
5.3551188e-11
0.019189338
-1.2865787e-06
0.019189338
-2.1883256e-06
0.016671355
-2.4673993e-06
0.012687345
-2.1429909e-06
0.0085799877
-1.4539034e-06
0.0052447322
-8.2383441e-07
0.0029456315
-4.0968058e-07
0.0015393429
-1.8114237e-07
0.0007530984
-6.945752e-08
0.00034347828
-2.1056082e-08
0.00014259765
-3.6363745e-09
4.9859631e-05
1.0153391e-05
2.978182e-09
1.0150408e-05
1.7337787e-08
4.9845266e-05
5.7365528e-08
0.00014255762
1.5006256e-07
0.00034338558
3.4096108e-07
0.0007529075
6.9192165e-07
0.0015389919
1.2440983e-06
0.0029450793
1.9041769e-06
0.0052440721
2.3016004e-06
0.0085795902
2.097526e-06
0.012687549
1.2520453e-06
0.0166722
4.7303845e-11
0.01919059
-1.2519575e-06
0.01919059
-2.0974572e-06
0.0166722
-2.3015571e-06
0.012687549
-1.9041512e-06
0.0085795903
-1.2440768e-06
0.0052440721
-6.9190202e-07
0.0029450793
-3.4094978e-07
0.0015389919
-1.5006629e-07
0.00075290752
-5.7380834e-08
0.00034338559
-1.7353571e-08
0.00014255763
-2.9876417e-09
4.9845268e-05
1.0150408e-05
2.4647369e-09
1.0147942e-05
1.4362062e-08
4.9833368e-05
4.7625233e-08
0.00014252436
1.2502691e-07
0.00034330818
2.855847e-07
0.00075274693
5.8417016e-07
0.0015386933
1.0641719e-06
0.0029445993
1.6641499e-06
0.0052434721
2.0898778e-06
0.0085791645
1.9529162e-06
0.012687686
1.1802837e-06
0.016672973
4.6618618e-11
0.01919177
-1.1801978e-06
0.01919177
-1.9528488e-06
0.016672973
-2.0898303e-06
0.012687686
-1.6641167e-06
0.0085791645
-1.0641466e-06
0.0052434721
-5.8415158e-07
0.0029445993
-2.8557911e-07
0.0015386933
-1.2503704e-07
0.00075274694
-4.7643646e-08
0.00034330818
-1.4378054e-08
0.00014252436
-2.4735602e-09
4.9833369e-05
1.0147942e-05
2.0999698e-09
1.014584e-05
1.2253641e-08
4.9823212e-05
4.0683063e-08
0.00014249593
1.0698598e-07
0.00034324187
2.4507461e-07
0.00075260884
5.0384658e-07
0.0015384345
9.2622514e-07
0.0029441769
1.4715064e-06
0.0052429268
1.890917e-06
0.008578745
1.8050463e-06
0.012687772
1.1037276e-06
0.016673674
4.2662548e-11
0.019192874
-1.1036534e-06
0.019192874
-1.8049938e-06
0.016673674
-1.8908842e-06
0.012687772
-1.4714876e-06
0.0085787451
-9.2621042e-07
0.0052429268
-5.0383946e-07
0.0029441769
-2.450863e-07
0.0015384346
-1.0701532e-07
0.00075260885
-4.0717384e-08
0.00034324188
-1.227946e-08
0.00014249593
-2.1132053e-09
4.9823212e-05
1.014584e-05
1.8281021e-09
1.0144011e-05
1.0666304e-08
4.9814374e-05
3.543302e-08
0.00014247116
9.3287126e-08
0.00034318402
2.1414069e-07
0.00075248797
4.4192277e-07
0.0015382067
8.1810427e-07
0.0029438007
1.3163752e-06
0.0052424285
1.7245039e-06
0.0085783369
1.6780695e-06
0.012687819
1.0378412e-06
0.016674314
3.8833037e-11
0.019193911
-1.0377727e-06
0.019193911
-1.6780249e-06
0.016674315
-1.7244781e-06
0.012687819
-1.3163547e-06
0.008578337
-8.1807715e-07
0.0052424285
-4.4190035e-07
0.0029438007
-2.1414512e-07
0.0015382067
-9.3324291e-08
0.00075248798
-3.5486131e-08
0.00034318402
-1.0710235e-08
0.00014247116
-1.8515674e-09
4.9814375e-05
1.0144012e-05
1.6144744e-09
1.0142401e-05
9.4082669e-09
4.9806584e-05
3.1256757e-08
0.00014244931
8.2351843e-08
0.00034313292
1.8932405e-07
0.00075238099
3.9181539e-07
0.0015380042
7.2923132e-07
0.0029434632
1.1851438e-06
0.0052419725
1.5781875e-06
0.0085779438
1.5623687e-06
0.012687834
9.7673629e-07
0.0166749
3.5224621e-11
0.019194888
-9.7667214e-07
0.019194888
-1.5623271e-06
0.0166749
-1.5781766e-06
0.012687835
-1.1851505e-06
0.008577944
-7.2924793e-07
0.0052419726
-3.9182951e-07
0.0029434633
-1.8931895e-07
0.0015380042
-8.2322847e-08
0.000752381
-3.1215655e-08
0.00034313292
-9.3741425e-09
0.00014244931
-1.5970484e-09
4.9806583e-05
1.01424e-05
1.4387678e-09
1.0140968e-05
8.3762837e-09
4.9799653e-05
2.7830882e-08
0.00014242986
7.3368808e-08
0.00034308738
1.6887358e-07
0.00075228547
3.5025894e-07
0.0015378228
6.545714e-07
0.0029431589
1.0720609e-06
0.005241555
1.4464504e-06
0.0085775694
1.4549068e-06
0.012687826
9.1884882e-07
0.016675436
3.6843476e-11
0.019195807
-9.1878159e-07
0.019195807
-1.4548567e-06
0.016675436
-1.4464179e-06
0.012687826
-1.0720388e-06
0.0085775696
-6.5456012e-07
0.0052415551
-3.502579e-07
0.0029431589
-1.6888522e-07
0.0015378228
-7.3394009e-08
0.00075228548
-2.7862231e-08
0.00034308738
-8.4015798e-09
0.00014242986
-1.4519635e-09
4.9799653e-05
1.0140968e-05
1.2879621e-09
1.0139683e-05
7.5105372e-09
4.9793433e-05
2.4975338e-08
0.0001424124
6.5895072e-08
0.00034304645
1.5183705e-07
0.00075219952
3.1548162e-07
0.0015376592
5.9149598e-07
0.0029428829
9.7479643e-07
0.0052411717
1.3297264e-06
0.0085772145
1.356816e-06
0.012687799
8.652863e-07
0.016675928
3.4562761e-11
0.019196672
-8.6522772e-07
0.019196672
-1.356775e-06
0.016675928
-1.3296975e-06
0.012687799
-9.7478574e-07
0.0085772147
-5.9150269e-07
0.0052411718
-3.1548944e-07
0.0029428829
-1.5182702e-07
0.0015376592
-6.5862479e-08
0.00075219953
-2.4933991e-08
0.00034304646
-7.478463e-09
0.0001424124
-1.2720329e-09
4.9793433e-05
1.0139683e-05
1.1618806e-09
1.0138522e-05
6.7847854e-09
4.978781e-05
2.2577797e-08
0.0001423966
5.9609898e-08
0.00034300942
1.3747616e-07
0.00075212166
2.860498e-07
0.0015375106
5.377253e-07
0.0029426312
8.9072519e-07
0.0052408187
1.2264189e-06
0.0085768788
1.2675107e-06
0.012687758
8.1594827e-07
0.016676379
2.6127471e-11
0.019197488
-8.1590263e-07
0.019197488
-1.2674745e-06
0.016676379
-1.2263884e-06
0.012687758
-8.906995e-07
0.008576879
-5.3770714e-07
0.0052408189
-2.860423e-07
0.0029426313
-1.3747334e-07
0.0015375106
-5.9603703e-08
0.00075212166
-2.2567826e-08
0.00034300942
-6.7759014e-09
0.0001423966
-1.1568024e-09
4.9787809e-05
1.0138522e-05
1.0542114e-09
1.0137466e-05
6.1666215e-09
4.9782695e-05
2.0535207e-08
0.00014238223
5.4247213e-08
0.00034297571
1.251921e-07
0.00075205072
2.6077919e-07
0.001537375
4.9126991e-07
0.0029424007
8.172396e-07
0.0052404928
1.1341892e-06
0.0085765619
1.1857942e-06
0.012687706
7.7022149e-07
0.016676795
1.1741288e-11
0.019198258
-7.7019669e-07
0.019198258
-1.1857704e-06
0.016676795
-1.1341687e-06
0.012687706
-8.172144e-07
0.008576562
-4.9123799e-07
0.0052404929
-2.6074967e-07
0.0029424008
-1.2518256e-07
0.0015373751
-5.4266931e-08
0.00075205073
-2.0572728e-08
0.00034297572
-6.1999396e-09
0.00014238224
-1.07191e-09
4.9782697e-05
1.0137466e-05
9.5769686e-10
1.01365e-05
5.6254569e-09
4.977802e-05
1.8759436e-08
0.0001423691
4.9596822e-08
0.00034294488
1.1453997e-07
0.00075198579
2.388215e-07
0.0015372508
4.5071368e-07
0.0029421888
7.5247823e-07
0.005240191
1.0514781e-06
0.0085762629
1.1108032e-06
0.012687647
7.2766885e-07
0.016677178
-1.1598711e-11
0.019198986
-7.2769259e-07
0.019198986
-1.1108248e-06
0.016677178
-1.051486e-06
0.012687647
-7.5247712e-07
0.008576263
-4.5071141e-07
0.0052401911
-2.3881741e-07
0.0029421889
-1.1452838e-07
0.0015372508
-4.9576351e-08
0.0007519858
-1.8736255e-08
0.00034294488
-5.6080847e-09
0.0001423691
-9.4918237e-10
4.977802e-05
1.01365e-05
8.7911284e-10
1.0135615e-05
5.1641466e-09
4.9773728e-05
1.7222636e-08
0.00014235703
4.5543576e-08
0.00034291656
1.0522402e-07
0.00075192612
2.1957342e-07
0.0015371364
4.1503083e-07
0.0029419934
6.95057e-07
0.005239911
9.7704241e-07
0.0085759808
1.0418071e-06
0.012687582
6.8795458e-07
0.016677532
-3.603498e-11
0.019199674
-6.8803e-07
0.019199674
-1.0418768e-06
0.016677532
-9.7708567e-07
0.012687582
-6.9506233e-07
0.0085759809
-4.150049e-07
0.005239911
-2.1955374e-07
0.0029419934
-1.0524192e-07
0.0015371364
-4.5593138e-08
0.00075192612
-1.7277703e-08
0.00034291656
-5.2033444e-09
0.00014235703
-8.976453e-10
4.9773728e-05
1.0135615e-05
8.1296306e-10
1.0134799e-05
4.7636382e-09
4.9769774e-05
1.5876383e-08
0.00014234592
4.1978242e-08
0.00034289045
9.7010521e-08
0.00075187108
2.0256834e-07
0.0015370308
3.8340539e-07
0.0029418125
6.4382673e-07
0.0052396505
9.0975613e-07
0.0085757149
9.781441e-07
0.012687514
6.5077989e-07
0.016677859
-6.7110781e-11
0.019200325
-6.5090861e-07
0.019200325
-9.7825522e-07
0.016677859
-9.0985091e-07
0.012687514
-6.4389607e-07
0.008575715
-3.8343596e-07
0.0052396505
-2.0257256e-07
0.0029418125
-9.70126e-08
0.0015370308
-4.1991666e-08
0.00075187108
-1.5898377e-08
0.00034289045
-4.7832598e-09
0.00014234592
-8.2384893e-10
4.9769775e-05
1.0134799e-05
7.5343729e-10
1.0134045e-05
4.4064643e-09
4.976612e-05
1.4679451e-08
0.00014233564
3.8812434e-08
0.00034286631
8.9717012e-08
0.00075182016
1.8744734e-07
0.0015369331
3.5519962e-07
0.0029416447
5.9786146e-07
0.0052394078
8.4866915e-07
0.008575464
9.1924689e-07
0.012687443
6.1589895e-07
0.016678162
-9.5028501e-11
0.019200941
-6.1608008e-07
0.019200941
-9.1940924e-07
0.016678162
-8.4881128e-07
0.012687443
-5.9797688e-07
0.0085754641
-3.5528859e-07
0.0052394078
-1.8750224e-07
0.0029416447
-8.9723159e-08
0.0015369331
-3.8772507e-08
0.00075182015
-1.4617708e-08
0.00034286631
-4.3546402e-09
0.00014233564
-7.2633903e-10
4.9766118e-05
1.0134044e-05
6.9922317e-10
1.0133346e-05
4.0858312e-09
4.9762733e-05
1.3608715e-08
0.00014232612
3.5982663e-08
0.00034284393
8.3194852e-08
0.00075177294
1.7390884e-07
0.0015368423
3.2988313e-07
0.0029414887
5.5639511e-07
0.0052391812
7.9298408e-07
0.0085752274
8.646242e-07
0.012687371
5.8309599e-07
0.016678444
-1.1382159e-10
0.019201524
-5.833175e-07
0.019201524
-8.6483343e-07
0.016678444
-7.9316526e-07
0.012687371
-5.5652562e-07
0.0085752274
-3.2997256e-07
0.0052391812
-1.7397522e-07
0.0029414887
-8.3250829e-08
0.0015368423
-3.6036762e-08
0.00075177293
-1.3659172e-08
0.00034284393
-4.1222737e-09
0.00014232611
-7.1711697e-10
4.9762733e-05
1.0133346e-05
6.5207561e-10
1.0132697e-05
3.8016887e-09
4.9759587e-05
1.2653442e-08
0.00014231727
3.344767e-08
0.00034282314
7.7336123e-08
0.00075172903
1.6172179e-07
0.0015367579
3.0703447e-07
0.0029413434
5.1879658e-07
0.0052389694
7.4202983e-07
0.0085750041
8.1386389e-07
0.012687299
5.5220048e-07
0.016678705
-1.2732033e-10
0.019202076
-5.5244875e-07
0.019202076
-8.1409837e-07
0.016678706
-7.4223614e-07
0.012687299
-5.1895474e-07
0.0085750041
-3.0712929e-07
0.0052389694
-1.6175214e-07
0.0029413433
-7.7320949e-08
0.0015367579
-3.341342e-08
0.00075172902
-1.2621243e-08
0.00034282313
-3.7812194e-09
0.00014231726
-6.4333465e-10
4.9759586e-05
1.0132696e-05
6.0680573e-10
1.0132092e-05
3.5388839e-09
4.9756657e-05
1.1780528e-08
0.00014230903
3.1145075e-08
0.00034280377
7.2029621e-08
0.00075168813
1.5068985e-07
0.0015366792
2.8632007e-07
0.0029412077
4.8456593e-07
0.0052387712
6.9524503e-07
0.0085747934
7.6659357e-07
0.012687228
5.2305356e-07
0.016678949
-1.3884896e-10
0.019202599
-5.2332644e-07
0.019202599
-7.6684345e-07
0.016678949
-6.9545233e-07
0.012687228
-4.8473729e-07
0.0085747934
-2.8645434e-07
0.0052387711
-1.5077461e-07
0.0029412077
-7.2068631e-08
0.0015366792
-3.1154836e-08
0.00075168813
-1.1777872e-08
0.00034280377
-3.5343801e-09
0.00014230903
-6.0431086e-10
4.9756658e-05
1.0132092e-05
5.6905259e-10
1.0131528e-05
3.3069289e-09
4.9753925e-05
1.0996737e-08
0.00014230134
2.9061528e-08
0.0003427857
6.721246e-08
0.00075164996
1.4065976e-07
0.0015366058
2.6745352e-07
0.0029410809
4.5327575e-07
0.0052385853
6.5215862e-07
0.0085745945
7.2249888e-07
0.012687158
4.9552515e-07
0.016679176
-1.4829379e-10
0.019203095
-4.9580591e-07
0.019203095
-7.2273154e-07
0.016679176
-6.5231855e-07
0.012687158
-4.5337114e-07
0.0085745944
-2.6751135e-07
0.0052385852
-1.4069435e-07
0.0029410808
-6.7235281e-08
0.0015366057
-2.9085075e-08
0.00075164995
-1.1023533e-08
0.00034278569
-3.3288938e-09
0.00014230134
-5.8087354e-10
4.9753925e-05
1.0131529e-05
5.3044704e-10
1.0131002e-05
3.0864484e-09
4.9751373e-05
1.026929e-08
0.00014229416
2.7149794e-08
0.00034276881
6.2813084e-08
0.00075161429
1.3150469e-07
0.0015365371
2.5020191e-07
0.0029409622
4.2456004e-07
0.005238411
6.1235053e-07
0.0085744068
6.8129186e-07
0.012687089
4.6950218e-07
0.016679388
-1.5926922e-10
0.019203565
-4.6979585e-07
0.019203565
-6.81519e-07
0.016679388
-6.1249691e-07
0.012687089
-4.2462943e-07
0.0085744066
-2.5022048e-07
0.0052384109
-1.3149873e-07
0.0029409621
-6.2785216e-08
0.001536537
-2.7103244e-08
0.00075161427
-1.0218887e-08
0.0003427688
-3.0489347e-09
0.00014229415
-5.119562e-10
4.9751371e-05
1.0131002e-05
4.925193e-10
1.013051e-05
2.878968e-09
4.9748985e-05
9.5947004e-09
0.00014228744
2.5390271e-08
0.00034275302
5.8777476e-08
0.00075158091
1.2311258e-07
0.0015364728
2.3437097e-07
0.002940851
3.9813068e-07
0.0052382473
5.7548663e-07
0.0085742294
6.4272843e-07
0.012687022
4.4488565e-07
0.016679586
-1.5833299e-10
0.01920401
-4.4517594e-07
0.01920401
-6.4294764e-07
0.016679585
-5.7561186e-07
0.012687021
-3.9816393e-07
0.0085742292
-2.343387e-07
0.005238247
-1.2307221e-07
0.0029408508
-5.8775696e-08
0.0015364727
-2.5431796e-08
0.00075158087
-9.6537251e-09
0.000342753
-2.9258022e-09
0.00014228743
-5.1579003e-10
4.9748984e-05
1.013051e-05
4.6188108e-10
1.0130049e-05
2.6988532e-09
4.9746749e-05
8.9932271e-09
0.00014228115
2.3796962e-08
0.00034273822
5.5088625e-08
0.00075154962
1.1540174e-07
0.0015364125
2.1978646e-07
0.0029407466
3.7372307e-07
0.0052380933
5.4127529e-07
0.0085740619
6.0660325e-07
0.012686956
4.2158414e-07
0.016679771
-1.6352754e-10
0.019204431
-4.2188008e-07
0.019204431
-6.068083e-07
0.01667977
-5.413694e-07
0.012686956
-3.7374444e-07
0.0085740615
-2.1977464e-07
0.005238093
-1.1537484e-07
0.0029407464
-5.5059568e-08
0.0015364123
-2.3765687e-08
0.00075154957
-8.9593869e-09
0.00034273819
-2.6719161e-09
0.00014228113
-4.4797927e-10
4.9746744e-05
1.0130047e-05
4.3020152e-10
1.0129616e-05
2.5258255e-09
4.9744652e-05
8.4290309e-09
0.00014227525
2.2318909e-08
0.00034272433
5.1682373e-08
0.00075152027
1.0828966e-07
0.0015363559
2.0632167e-07
0.0029406486
3.5113155e-07
0.0052379485
5.0945811e-07
0.0085739036
5.7272437e-07
0.012686893
3.9952306e-07
0.016679944
-1.7453215e-10
0.019204831
-3.9983872e-07
0.019204831
-5.7294677e-07
0.016679944
-5.0954551e-07
0.012686892
-3.5110634e-07
0.008573903
-2.0625163e-07
0.0052379481
-1.0822732e-07
0.0029406483
-5.1659903e-08
0.0015363557
-2.2334936e-08
0.00075152018
-8.4588686e-09
0.00034272429
-2.5493743e-09
0.00014227523
-4.4189411e-10
4.9744645e-05
1.0129615e-05
4.0496165e-10
1.012921e-05
2.3739325e-09
4.9742683e-05
7.9175778e-09
0.0001422697
2.0959194e-08
0.0003427113
4.8532633e-08
0.00075149271
1.0170926e-07
0.0015363027
1.9386451e-07
0.0029405564
3.3019238e-07
0.0052378122
4.7982713e-07
0.008573754
5.4091451e-07
0.012686832
3.7861681e-07
0.016680106
-1.9196885e-10
0.01920521
-3.7896218e-07
0.01920521
-5.4117273e-07
0.016680106
-4.7997698e-07
0.012686831
-3.3023624e-07
0.0085737533
-1.9385375e-07
0.0052378117
-1.0169232e-07
0.0029405561
-4.8516688e-08
0.0015363025
-2.0943806e-08
0.0007514926
-7.9065248e-09
0.00034271125
-2.3686089e-09
0.00014226968
-4.0389075e-10
4.9742675e-05
1.0129208e-05
3.8476131e-10
1.0128828e-05
2.2400746e-09
4.9740833e-05
7.4542903e-09
0.0001422645
1.9710632e-08
0.00034269905
4.5620782e-08
0.0007514668
9.5606868e-08
0.0015362527
1.8229522e-07
0.0029404698
3.1071476e-07
0.0052376839
4.5216725e-07
0.0085736126
5.1101771e-07
0.012686773
3.5880418e-07
0.016680258
-2.1758284e-10
0.019205569
-3.5919296e-07
0.019205569
-5.1129449e-07
0.016680258
-4.5233884e-07
0.012686772
-3.1080417e-07
0.0085736117
-1.8231988e-07
0.0052376832
-9.5608624e-08
0.0029404693
-4.5619727e-08
0.0015362525
-1.9710775e-08
0.00075146668
-7.4590776e-09
0.00034269899
-2.246966e-09
0.00014226447
-3.897994e-10
4.9740824e-05
1.0128826e-05
3.559795e-10
1.0128469e-05
2.0935643e-09
4.9739092e-05
6.9900717e-09
0.0001422596
1.8514494e-08
0.00034268752
4.2890545e-08
0.00075144243
8.9928598e-08
0.0015362057
1.7153435e-07
0.0029403882
2.925565e-07
0.0052375628
4.2628235e-07
0.0085734789
4.828583e-07
0.012686717
3.3999634e-07
0.016680401
-2.4551297e-10
0.019205909
-3.4045692e-07
0.019205909
-4.8321927e-07
0.016680401
-4.2652318e-07
0.012686716
-2.9271519e-07
0.0085734779
-1.716268e-07
0.0052375621
-8.9979223e-08
0.0029403877
-4.2944912e-08
0.0015362054
-1.8596089e-08
0.00075144231
-7.0838762e-09
0.00034268747
-2.1665424e-09
0.00014225958
-3.9287841e-10
4.9739086e-05
1.0128468e-05
3.3602927e-10
1.0128132e-05
1.971195e-09
4.9737455e-05
6.5772284e-09
0.00014225499
1.7418886e-08
0.00034267668
4.0357149e-08
0.0007514195
8.4635069e-08
0.0015361614
1.6149004e-07
0.0029403113
2.7559169e-07
0.0052374488
4.0203786e-07
0.0085733524
4.5635403e-07
0.012686662
3.2218333e-07
0.016680535
-2.6280651e-10
0.019206232
-3.2268423e-07
0.019206231
-4.5676994e-07
0.016680535
-4.0231837e-07
0.012686661
-2.7577469e-07
0.0085733514
-1.6163469e-07
0.0052374481
-8.4736368e-08
0.0029403109
-4.0409778e-08
0.0015361612
-1.743661e-08
0.00075141938
-6.5722872e-09
0.00034267663
-1.9583701e-09
0.00014225497
-3.2621166e-10
4.9737448e-05
1.012813e-05
3.1787485e-10
1.0127814e-05
1.8588674e-09
4.9735914e-05
6.1965422e-09
0.00014225065
1.6403205e-08
0.00034266647
3.7994634e-08
0.0007513979
7.967631e-08
0.0015361197
1.5206222e-07
0.0029402389
2.5966218e-07
0.0052373411
3.7924712e-07
0.0085732328
4.3132916e-07
0.01268661
3.0525486e-07
0.016680662
-2.6888722e-10
0.019206537
-3.0575978e-07
0.019206537
-4.3177301e-07
0.016680661
-3.796013e-07
0.012686609
-2.5991033e-07
0.0085732319
-1.5225168e-07
0.0052373405
-7.983186e-08
0.0029402385
-3.8092725e-08
0.0015361195
-1.6428158e-08
0.0007513978
-6.1670836e-09
0.00034266642
-1.8175384e-09
0.00014225063
-2.9140472e-10
4.9735907e-05
1.0127813e-05
2.9591447e-10
1.0127515e-05
1.7429695e-09
4.9734462e-05
5.8237617e-09
0.00014224657
1.5434601e-08
0.00034265686
3.577016e-08
0.00075137757
7.5030239e-08
0.0015360805
1.432357e-07
0.0029401707
2.4473197e-07
0.0052372396
3.5783778e-07
0.0085731197
4.077462e-07
0.01268656
2.8925122e-07
0.01668078
-2.6120239e-10
0.019206827
-2.8973513e-07
0.019206826
-4.0815294e-07
0.016680779
-3.5818288e-07
0.012686559
-2.4498669e-07
0.0085731187
-1.4338644e-07
0.005237239
-7.5143174e-08
0.0029401703
-3.587694e-08
0.0015360803
-1.5521472e-08
0.00075137747
-5.8827243e-09
0.00034265682
-1.7765655e-09
0.00014224655
-3.1028579e-10
4.9734457e-05
1.0127514e-05
2.8828801e-10
1.0127233e-05
1.6610692e-09
4.9733096e-05
5.5111347e-09
0.00014224272
1.4558473e-08
0.00034264781
3.3694533e-08
0.00075135842
7.0658173e-08
0.0015360435
1.3493343e-07
0.0029401064
2.307043e-07
0.0052371438
3.3769691e-07
0.0085730126
3.8544e-07
0.012686512
2.7398905e-07
0.016680891
-2.225155e-10
0.019207101
-2.7441346e-07
0.019207101
-3.8578413e-07
0.016680891
-3.3797158e-07
0.012686511
-2.3093224e-07
0.0085730118
-1.3507607e-07
0.0052371432
-7.071536e-08
0.002940106
-3.3696359e-08
0.0015360433
-1.4539357e-08
0.00075135833
-5.4972813e-09
0.00034264777
-1.6574137e-09
0.00014224271
-2.8903052e-10
4.9733093e-05
1.0127233e-05
2.7280275e-10
1.0126968e-05
1.5665312e-09
4.9731809e-05
5.1918394e-09
0.0001422391
1.3707489e-08
0.00034263929
3.1719259e-08
0.00075134038
6.6527425e-08
0.0015360086
1.2710832e-07
0.0029400458
2.1749965e-07
0.0052370534
3.1875123e-07
0.0085729114
3.6446443e-07
0.012686467
2.5964937e-07
0.016680996
-1.5497884e-10
0.019207361
-2.5994869e-07
0.01920736
-3.6472455e-07
0.016680995
-3.1895295e-07
0.012686466
-2.1766704e-07
0.0085729105
-1.2725358e-07
0.0052370528
-6.6611711e-08
0.0029400454
-3.1695565e-08
0.0015360084
-1.3584009e-08
0.00075134029
-5.0295048e-09
0.00034263924
-1.4370062e-09
0.00014223908
-2.0558436e-10
4.9731803e-05
1.0126966e-05
2.5665757e-10
1.0126718e-05
1.47382e-09
4.9730599e-05
4.8851329e-09
0.00014223569
1.2900496e-08
0.00034263127
2.9862641e-08
0.0007513234
6.2662737e-08
0.0015359758
1.1979013e-07
0.0029399886
2.0511737e-07
0.005236968
3.0090821e-07
0.0085728156
3.4458548e-07
0.012686423
2.4592082e-07
0.016681095
-9.6707393e-11
0.019207607
-2.4608659e-07
0.019207606
-3.4471853e-07
0.016681094
-3.0099887e-07
0.012686422
-2.0514821e-07
0.0085728147
-1.197931e-07
0.0052369674
-6.2675982e-08
0.0029399882
-2.9889926e-08
0.0015359756
-1.2929264e-08
0.0007513233
-4.9080298e-09
0.00034263122
-1.4888791e-09
0.00014223567
-2.6323815e-10
4.9730594e-05
1.0126717e-05
2.4477319e-10
1.0126484e-05
1.3929577e-09
4.9729461e-05
4.6043026e-09
0.00014223249
1.2145825e-08
0.00034262372
2.8113974e-08
0.00075130742
5.9024185e-08
0.0015359449
1.1292823e-07
0.0029399347
1.9356143e-07
0.0052368874
2.8429311e-07
0.0085727249
3.260629e-07
0.012686381
2.3316463e-07
0.016681188
-4.1755465e-11
0.01920784
-2.3322086e-07
0.01920784
-3.2607704e-07
0.016681187
-2.8427468e-07
0.01268638
-1.9352731e-07
0.0085727239
-1.1290612e-07
0.0052368868
-5.9019343e-08
0.0029399343
-2.8102712e-08
0.0015359447
-1.2120061e-08
0.0007513073
-4.5777723e-09
0.00034262367
-1.3763751e-09
0.00014223247
-2.3841146e-10
4.9729455e-05
1.0126482e-05
2.2246935e-10
1.0126263e-05
1.295376e-09
4.9728391e-05
4.3128403e-09
0.00014222947
1.1416124e-08
0.00034261662
2.6472984e-08
0.00075129235
5.5644515e-08
0.0015359157
1.0656253e-07
0.0029398838
1.8280705e-07
0.0052368112
2.6874238e-07
0.008572639
3.0862042e-07
0.012686341
2.2101874e-07
0.016681276
5.5358399e-12
0.019208061
-2.2099923e-07
0.019208061
-3.0857632e-07
0.016681274
-2.686672e-07
0.01268634
-1.8271488e-07
0.0085726379
-1.0650215e-07
0.0052368105
-5.5622462e-08
0.0029398834
-2.6437421e-08
0.0015359155
-1.1341246e-08
0.00075129222
-4.2194847e-09
0.00034261655
-1.2210293e-09
0.00014222944
-1.8404226e-10
4.9728382e-05
1.0126261e-05
2.142375e-10
1.0126056e-05
1.2320736e-09
4.9727384e-05
4.0847544e-09
0.00014222663
1.0792087e-08
0.00034260991
2.5015208e-08
0.00075127813
5.2603351e-08
0.0015358881
1.0082232e-07
0.0029398357
1.7310822e-07
0.005236739
2.5468222e-07
0.0085725575
2.9271048e-07
0.012686303
2.0989315e-07
0.016681358
1.6180874e-11
0.019208271
-2.0984456e-07
0.01920827
-2.9261912e-07
0.016681357
-2.5456132e-07
0.012686302
-1.7298375e-07
0.0085725563
-1.0072063e-07
0.0052367382
-5.2546853e-08
0.0029398351
-2.4981491e-08
0.0015358878
-1.0752031e-08
0.00075127798
-4.0370491e-09
0.00034260985
-1.1941249e-09
0.0001422266
-1.9423687e-10
4.9727373e-05
1.0126053e-05
1.9759468e-10
1.012586e-05
1.1565496e-09
4.9726431e-05
3.8540695e-09
0.00014222394
1.020714e-08
0.00034260356
2.3695416e-08
0.00075126464
4.9891261e-08
0.0015358619
9.5722447e-08
0.0029397898
1.644461e-07
0.0052366703
2.4197283e-07
0.00857248
2.7820829e-07
0.012686267
1.9963426e-07
0.016681437
-4.0682151e-12
0.019208471
-1.9962147e-07
0.01920847
-2.7813893e-07
0.016681436
-2.4187903e-07
0.012686266
-1.6439001e-07
0.0085724788
-9.5701057e-08
0.0052366695
-4.9888622e-08
0.0029397893
-2.3689418e-08
0.0015358617
-1.0176289e-08
0.00075126451
-3.8094833e-09
0.00034260351
-1.1222362e-09
0.00014222392
-1.8164386e-10
4.9726422e-05
1.0125858e-05
1.789914e-10
1.0125673e-05
1.0854089e-09
4.9725524e-05
3.6526613e-09
0.00014222138
9.7137363e-09
0.00034259751
2.2599047e-08
0.00075125175
4.7656446e-08
0.0015358369
9.152498e-08
0.002939746
1.5725245e-07
0.0052366046
2.3120957e-07
0.008572406
2.6557127e-07
0.012686233
1.9054353e-07
0.016681512
-1.2126785e-11
0.019208661
-1.9057349e-07
0.019208661
-2.6558357e-07
0.016681511
-2.3116447e-07
0.012686231
-1.5718517e-07
0.0085724048
-9.1476163e-08
0.0052366037
-4.7615767e-08
0.0029397454
-2.2555304e-08
0.0015358366
-9.6806828e-09
0.00075125161
-3.6458527e-09
0.00034259745
-1.0964609e-09
0.00014222136
-1.9112455e-10
4.9725517e-05
1.0125672e-05
1.7901892e-10
1.0125494e-05
1.0629946e-09
4.972465e-05
3.5492772e-09
0.00014221891
9.3972704e-09
0.00034259166
2.1818101e-08
0.00075123929
4.5985074e-08
0.0015358126
8.8306564e-08
0.0029397036
1.516076e-07
0.0052365413
2.2255216e-07
0.0085723351
2.5526537e-07
0.0126862
1.8305904e-07
0.016681584
-3.7716354e-11
0.019208844
-1.8312996e-07
0.019208844
-2.5533985e-07
0.016681583
-2.2259895e-07
0.012686199
-1.5162109e-07
0.0085723338
-8.8333782e-08
0.0052365405
-4.5997511e-08
0.0029397031
-2.1750378e-08
0.0015358124
-9.2424913e-09
0.00075123919
-3.3672789e-09
0.00034259161
-9.2514711e-10
0.00014221889
-1.1105623e-10
4.9724642e-05
1.0125492e-05
1.5691378e-10
1.0125319e-05
1.0022856e-09
4.9723798e-05
3.4161417e-09
0.0001422165
9.1291838e-09
0.00034258594
2.1291377e-08
0.00075122709
4.4954727e-08
0.0015357889
8.6271339e-08
0.0029396622
1.476867e-07
0.0052364799
2.1583656e-07
0.008572267
2.4654754e-07
0.01268617
1.7618541e-07
0.016681655
-1.002061e-10
0.019209021
-1.7635775e-07
0.01920902
-2.4666401e-07
0.016681653
-2.1589865e-07
0.012686168
-1.4768593e-07
0.0085722656
-8.6251684e-08
0.005236479
-4.4944075e-08
0.0029396618
-2.1294536e-08
0.0015357887
-9.1647801e-09
0.00075122704
-3.4879689e-09
0.00034258593
-1.0754144e-09
0.0001422165
-2.0040517e-10
4.97238e-05
1.0125319e-05
1.7560671e-10
1.0125141e-05
1.0513533e-09
4.9722933e-05
3.5052147e-09