/*--------------------------------*- C++ -*----------------------------------*\
| =========                 |                                                 |
| \\      /  F ield         | OpenFOAM: The Open Source CFD Toolbox           |
|  \\    /   O peration     | Version:  2406                                  |
|   \\  /    A nd           | Website:  www.openfoam.com                      |
|    \\/     M anipulation  |                                                 |
\*---------------------------------------------------------------------------*/
FoamFile
{
    version     2.0;
    format      ascii;
    arch        "LSB;label=32;scalar=64";
    class       volVectorField;
    location    "6";
    object      U;
}
// * * * * * * * * * * * * * * * * * * * * * * * * * * * * * * * * * * * * * //

dimensions      [0 1 -1 0 0 0 0];

internalField   nonuniform List<vector> 
1176
(
(0.019493789 7.0786658e-07 0)
(0.066677318 8.1696492e-06 0)
(0.13357994 3.9503093e-05 0)
(0.22724701 0.00010873554 0)
(0.35591522 0.00021175988 0)
(0.52772023 0.00030396245 0)
(0.74780387 0.0003181801 0)
(1.0136216 0.00024904643 0)
(1.3093323 0.00016667136 0)
(1.6017081 0.00011264938 0)
(1.8421723 7.0217902e-05 0)
(1.9793239 2.3945706e-05 0)
(1.9793239 -2.3935056e-05 0)
(1.8421723 -7.0208546e-05 0)
(1.6017081 -0.00011264253 0)
(1.3093323 -0.00016666865 0)
(1.0136216 -0.00024904851 0)
(0.74780387 -0.00031818508 0)
(0.52772023 -0.00030396683 0)
(0.35591522 -0.00021176206 0)
(0.227247 -0.0001087363 0)
(0.13357994 -3.9503443e-05 0)
(0.066677317 -8.1698481e-06 0)
(0.019493789 -7.079357e-07 0)
(0.020187017 -3.7419255e-06 0)
(0.068813532 -2.4638682e-05 0)
(0.13732107 -9.6548706e-05 0)
(0.23247391 -0.00024839495 0)
(0.36204617 -0.00047268838 0)
(0.53373556 -0.00067421256 0)
(0.75267406 -0.00069487017 0)
(1.0170176 -0.00049687462 0)
(1.3116385 -0.0002334607 0)
(1.6034438 -4.982623e-05 0)
(1.8436588 1.976313e-05 0)
(1.9807026 1.3427026e-05 0)
(1.9807026 -1.342692e-05 0)
(1.8436588 -1.9761699e-05 0)
(1.6034438 4.9830145e-05 0)
(1.3116385 0.00023346694 0)
(1.0170177 0.00049688256 0)
(0.75267408 0.00069487788 0)
(0.53373557 0.00067421727 0)
(0.36204617 0.00047268931 0)
(0.23247391 0.0002483936 0)
(0.13732107 9.6546871e-05 0)
(0.068813532 2.4637642e-05 0)
(0.020187017 3.7415552e-06 0)
(0.020018442 2.0918463e-06 0)
(0.068327406 1.2720783e-05 0)
(0.13655405 4.6877149e-05 0)
(0.23159544 0.00011389691 0)
(0.36138708 0.00019769166 0)
(0.53366968 0.00023903095 0)
(0.75344343 0.00020559657 0)
(1.0184881 0.00011361002 0)
(1.3134639 7.4313266e-05 0)
(1.6053464 7.9533432e-05 0)
(1.8455118 7.0517893e-05 0)
(1.9825245 2.7828007e-05 0)
(1.9825245 -2.782241e-05 0)
(1.8455118 -7.0513029e-05 0)
(1.6053464 -7.9530085e-05 0)
(1.3134639 -7.4312378e-05 0)
(1.0184881 -0.00011361051 0)
(0.75344341 -0.00020559713 0)
(0.53366966 -0.00023903277 0)
(0.36138707 -0.00019769362 0)
(0.23159543 -0.00011389941 0)
(0.13655404 -4.6879777e-05 0)
(0.068327402 -1.2722334e-05 0)
(0.020018441 -2.0923678e-06 0)
(0.019966548 7.0065426e-07 0)
(0.068159233 4.6866624e-06 0)
(0.13624021 1.9354623e-05 0)
(0.2311194 5.6455033e-05 0)
(0.36078092 0.00013444446 0)
(0.53306292 0.00025829225 0)
(0.75295635 0.00035344696 0)
(1.0181104 0.00036911993 0)
(1.313184 0.00030758907 0)
(1.6051632 0.0002277736 0)
(1.8453995 0.00014556189 0)
(1.9824491 5.0001298e-05 0)
(1.9824491 -4.999157e-05 0)
(1.8453995 -0.00014555242 0)
(1.6051633 -0.00022776474 0)
(1.313184 -0.0003075788 0)
(1.0181104 -0.00036910951 0)
(0.75295637 -0.00035343847 0)
(0.53306293 -0.00025828572 0)
(0.36078093 -0.00013444144 0)
(0.2311194 -5.6453844e-05 0)
(0.13624021 -1.9354119e-05 0)
(0.068159234 -4.6865025e-06 0)
(0.019966548 -7.0062735e-07 0)
(0.019942204 2.9055718e-07 0)
(0.068078705 1.9865253e-06 0)
(0.13608629 8.2347976e-06 0)
(0.23087699 2.3697723e-05 0)
(0.36044744 5.6880179e-05 0)
(0.53266447 0.00012306818 0)
(0.75256876 0.00022681835 0)
(1.0178079 0.00032272258 0)
(1.3129044 0.00034572531 0)
(1.604912 0.00030730139 0)
(1.8452028 0.00021095591 0)
(1.9822897 7.4618581e-05 0)
(1.9822897 -7.4609524e-05 0)
(1.8452028 -0.00021094788 0)
(1.604912 -0.00030729507 0)
(1.3129044 -0.00034572096 0)
(1.0178079 -0.00032271652 0)
(0.75256875 -0.00022681295 0)
(0.53266446 -0.00012306556 0)
(0.36044743 -5.6880015e-05 0)
(0.23087699 -2.3698502e-05 0)
(0.13608628 -8.2356194e-06 0)
(0.068078702 -1.9869566e-06 0)
(0.019942203 -2.9070498e-07 0)
(0.019933133 1.716649e-07 0)
(0.068047759 1.1936125e-06 0)
(0.13602489 5.0643275e-06 0)
(0.23077535 1.4967865e-05 0)
(0.36029898 3.6218707e-05 0)
(0.53247919 7.6943894e-05 0)
(0.75239426 0.00014713785 0)
(1.0177221 0.00023749062 0)
(1.3129292 0.00028525658 0)
(1.6049746 0.00027441646 0)
(1.8452865 0.00019644928 0)
(1.9823834 7.1181676e-05 0)
(1.9823834 -7.1171118e-05 0)
(1.8452865 -0.0001964395 0)
(1.6049746 -0.00027440756 0)
(1.3129292 -0.00028524671 0)
(1.0177222 -0.00023748416 0)
(0.75239427 -0.00014713241 0)
(0.5324792 -7.6940351e-05 0)
(0.36029899 -3.6217738e-05 0)
(0.23077536 -1.4968892e-05 0)
(0.13602489 -5.0661717e-06 0)
(0.068047759 -1.1948136e-06 0)
(0.019933133 -1.7207199e-07 0)
(0.019923401 1.5563851e-07 0)
(0.06801551 1.0693605e-06 0)
(0.13596286 4.4922011e-06 0)
(0.23067607 1.3194207e-05 0)
(0.36015773 3.1856307e-05 0)
(0.53230177 6.6958023e-05 0)
(0.75221428 0.00012411885 0)
(1.0176105 0.00019917025 0)
(1.3129358 0.0002549083 0)
(1.6050903 0.00024595236 0)
(1.8454579 0.00018128149 0)
(1.9825798 6.6552887e-05 0)
(1.9825798 -6.6543148e-05 0)
(1.8454579 -0.00018127314 0)
(1.6050903 -0.00024594588 0)
(1.3129358 -0.00025490332 0)
(1.0176105 -0.00019916683 0)
(0.75221427 -0.00012411698 0)
(0.53230176 -6.6956811e-05 0)
(0.36015772 -3.1854715e-05 0)
(0.23067607 -1.319207e-05 0)
(0.13596286 -4.4900029e-06 0)
(0.068015509 -1.0680876e-06 0)
(0.019923401 -1.5526295e-07 0)
(0.019915698 1.2728791e-07 0)
(0.067989795 8.7714987e-07 0)
(0.13591293 3.6945057e-06 0)
(0.23059503 1.0900148e-05 0)
(0.36003987 2.6612303e-05 0)
(0.53214752 5.7236636e-05 0)
(0.75204131 0.00010911015 0)
(1.0174722 0.00017936563 0)
(1.3128926 0.0002380242 0)
(1.6051413 0.00023746804 0)
(1.8455876 0.00017750913 0)
(1.9827513 6.5543653e-05 0)
(1.9827513 -6.5533966e-05 0)
(1.8455876 -0.00017750066 0)
(1.6051413 -0.00023746071 0)
(1.3128926 -0.00023801735 0)
(1.0174722 -0.00017935751 0)
(0.75204132 -0.00010910262 0)
(0.53214752 -5.7231933e-05 0)
(0.36003987 -2.661183e-05 0)
(0.23059503 -1.0902846e-05 0)
(0.13591294 -3.698264e-06 0)
(0.067989796 -8.7942406e-07 0)
(0.019915698 -1.2809741e-07 0)
(0.019909217 1.0443124e-07 0)
(0.067968143 7.2248402e-07 0)
(0.13587084 3.0509657e-06 0)
(0.23052654 9.0106506e-06 0)
(0.35993984 2.1998772e-05 0)
(0.5320154 4.7472425e-05 0)
(0.75188899 9.2013084e-05 0)
(1.0173341 0.00015618091 0)
(1.3128277 0.00021699623 0)
(1.6051595 0.00022709721 0)
(1.8456699 0.00017232893 0)
(1.982868 6.4151725e-05 0)
(1.982868 -6.4143028e-05 0)
(1.8456699 -0.0001723216 0)
(1.6051595 -0.00022709175 0)
(1.3128278 -0.00021699329 0)
(1.0173341 -0.00015617847 0)
(0.75188899 -9.2010789e-05 0)
(0.53201541 -4.7470773e-05 0)
(0.35993984 -2.1998501e-05 0)
(0.23052654 -9.0117487e-06 0)
(0.13587084 -3.0527838e-06 0)
(0.067968144 -7.2365746e-07 0)
(0.019909218 -1.0486171e-07 0)
(0.019903972 8.6092046e-08 0)
(0.067950554 5.9688449e-07 0)
(0.13583649 2.5272501e-06 0)
(0.2304703 7.4914695e-06 0)
(0.35985691 1.8376005e-05 0)
(0.53190434 3.9835008e-05 0)
(0.75175834 7.7711097e-05 0)
(1.0172122 0.00013432338 0)
(1.3127613 0.00019323345 0)
(1.6051771 0.00021058476 0)
(1.8457533 0.00016273269 0)
(1.9829862 6.1088354e-05 0)
(1.9829862 -6.1079892e-05 0)
(1.8457533 -0.00016272542 0)
(1.6051771 -0.00021057931 0)
(1.3127613 -0.00019322969 0)
(1.0172122 -0.00013432026 0)
(0.75175834 -7.7708572e-05 0)
(0.53190435 -3.9833658e-05 0)
(0.35985692 -1.8376426e-05 0)
(0.2304703 -7.4931583e-06 0)
(0.13583649 -2.5292298e-06 0)
(0.067950556 -5.9802577e-07 0)
(0.019903972 -8.6515687e-08 0)
(0.019899543 7.324496e-08 0)
(0.067935689 5.0864287e-07 0)
(0.13580742 2.1563598e-06 0)
(0.23042258 6.4022913e-06 0)
(0.35978625 1.5747215e-05 0)
(0.53180887 3.4277335e-05 0)
(0.75164406 6.7203821e-05 0)
(1.017102 0.00011722931 0)
(1.3126976 0.00017262493 0)
(1.6051928 0.00019309058 0)
(1.8458371 0.00015220164 0)
(1.9831061 5.7548548e-05 0)
(1.9831061 -5.7541196e-05 0)
(1.8458371 -0.00015219581 0)
(1.6051928 -0.00019308627 0)
(1.3126976 -0.00017262255 0)
(1.017102 -0.00011722753 0)
(0.75164407 -6.7202511e-05 0)
(0.53180888 -3.42774e-05 0)
(0.35978626 -1.5749355e-05 0)
(0.23042259 -6.4056791e-06 0)
(0.13580742 -2.1596688e-06 0)
(0.06793569 -5.104517e-07 0)
(0.019899543 -7.3861145e-08 0)
(0.019895721 6.3714795e-08 0)
(0.06792285 4.4254504e-07 0)
(0.13578228 1.876891e-06 0)
(0.23038124 5.5769068e-06 0)
(0.35972482 1.3739067e-05 0)
(0.53172532 2.9997928e-05 0)
(0.75154261 5.911087e-05 0)
(1.017001 0.00010388748 0)
(1.3126344 0.00015540305 0)
(1.6052015 0.00017849701 0)
(1.8459124 0.00014271855 0)
(1.9832185 5.4334149e-05 0)
(1.9832185 -5.4327393e-05 0)
(1.8459124 -0.00014271328 0)
(1.6052015 -0.00017849398 0)
(1.3126344 -0.00015540065 0)
(1.017001 -0.00010388481 0)
(0.75154261 -5.9108146e-05 0)
(0.53172533 -2.9996986e-05 0)
(0.35972482 -1.3741374e-05 0)
(0.23038124 -5.5816843e-06 0)
(0.13578228 -1.8821878e-06 0)
(0.06792285 -4.4567192e-07 0)
(0.019895721 -6.4707573e-08 0)
(0.01989237 5.6264051e-08 0)
(0.067911585 3.9035428e-07 0)
(0.1357602 1.655238e-06 0)
(0.23034489 4.9200466e-06 0)
(0.35967067 1.2132864e-05 0)
(0.53165133 2.6542287e-05 0)
(0.75145186 5.249793e-05 0)
(1.0169085 9.2875083e-05 0)
(1.3125727 0.00014061529 0)
(1.605205 0.00016529809 0)
(1.8459797 0.00013399248 0)
(1.9833221 5.1390939e-05 0)
(1.9833221 -5.1384496e-05 0)
(1.8459798 -0.00013398763 0)
(1.605205 -0.00016529544 0)
(1.3125728 -0.0001406153 0)
(1.0169086 -9.287603e-05 0)
(0.75145187 -5.2499232e-05 0)
(0.53165134 -2.6542724e-05 0)
(0.35967068 -1.2131179e-05 0)
(0.2303449 -4.9164851e-06 0)
(0.13576021 -1.6511775e-06 0)
(0.067911586 -3.8797767e-07 0)
(0.01989237 -5.5526723e-08 0)
(0.019889402 5.0132514e-08 0)
(0.067901605 3.4752559e-07 0)
(0.13574063 1.4734571e-06 0)
(0.23031263 4.381221e-06 0)
(0.35962251 1.0813477e-05 0)
(0.53158528 2.3691192e-05 0)
(0.75137025 4.6983061e-05 0)
(1.016824 8.3545752e-05 0)
(1.3125138 0.00012773824 0)
(1.605205 0.00015293566 0)
(1.8460414 0.00012582371 0)
(1.9834195 4.8620109e-05 0)
(1.9834196 -4.8613364e-05 0)
(1.8460414 -0.00012581804 0)
(1.6052051 -0.00015293173 0)
(1.3125139 -0.00012773558 0)
(1.016824 -8.3544159e-05 0)
(0.75137026 -4.698269e-05 0)
(0.53158528 -2.3691837e-05 0)
(0.35962251 -1.0815256e-05 0)
(0.23031263 -4.3840289e-06 0)
(0.13574063 -1.4764758e-06 0)
(0.067901604 -3.4931185e-07 0)
(0.019889402 -5.0689055e-08 0)
(0.019886751 4.4835e-08 0)
(0.067892683 3.1133629e-07 0)
(0.13572313 1.3214898e-06 0)
(0.23028374 3.9327883e-06 0)
(0.35957933 9.7160921e-06 0)
(0.53152589 2.1315337e-05 0)
(0.75129643 4.2359921e-05 0)
(1.0167465 7.5620181e-05 0)
(1.312458 0.00011654369 0)
(1.6052026 0.00014170126 0)
(1.8460982 0.00011827402 0)
(1.9835116 4.6034961e-05 0)
(1.9835116 -4.6028696e-05 0)
(1.8460982 -0.00011826907 0)
(1.6052026 -0.0001416981 0)
(1.3124581 -0.00011654158 0)
(1.0167465 -7.5619831e-05 0)
(0.75129645 -4.236075e-05 0)
(0.5315259 -2.1315473e-05 0)
(0.35957933 -9.7139819e-06 0)
(0.23028374 -3.928937e-06 0)
(0.13572313 -1.3174952e-06 0)
(0.067892682 -3.0911496e-07 0)
(0.019886751 -4.4117564e-08 0)
(0.019884362 4.0412948e-08 0)
(0.067884642 2.8104495e-07 0)
(0.13570735 1.1940356e-06 0)
(0.23025768 3.5560704e-06 0)
(0.35954033 8.7923318e-06 0)
(0.53147212 1.9309914e-05 0)
(0.75122929 3.8440985e-05 0)
(1.0166752 6.8840483e-05 0)
(1.3124052 0.00010678538 0)
(1.6051982 0.00013155445 0)
(1.8461503 0.00011132993 0)
(1.9835984 4.3633576e-05 0)
(1.9835985 -4.3628603e-05 0)
(1.8461503 -0.00011132612 0)
(1.6051982 -0.00013155089 0)
(1.3124052 -0.00010678263 0)
(1.0166753 -6.8838575e-05 0)
(0.75122931 -3.8439946e-05 0)
(0.53147213 -1.9309378e-05 0)
(0.35954033 -8.7917834e-06 0)
(0.23025769 -3.5552231e-06 0)
(0.13570735 -1.1930214e-06 0)
(0.067884643 -2.8039748e-07 0)
(0.019884362 -4.0233582e-08 0)
(0.019882195 3.6631541e-08 0)
(0.067877348 2.5524838e-07 0)
(0.13569302 1.0855156e-06 0)
(0.23023402 3.2350139e-06 0)
(0.35950488 8.0033033e-06 0)
(0.53142317 1.7591516e-05 0)
(0.75116792 3.5068749e-05 0)
(1.0166095 6.2965775e-05 0)
(1.3123553 9.82042e-05 0)
(1.6051922 0.00012233393 0)
(1.8461982 0.00010491366 0)
(1.9836803 4.1391394e-05 0)
(1.9836803 -4.1388881e-05 0)
(1.8461982 -0.00010491138 0)
(1.6051923 -0.00012233182 0)
(1.3123553 -9.8201881e-05 0)
(1.0166095 -6.2962945e-05 0)
(0.75116794 -3.5065686e-05 0)
(0.53142318 -1.7589597e-05 0)
(0.35950488 -8.0039425e-06 0)
(0.23023402 -3.2380198e-06 0)
(0.13569302 -1.0893973e-06 0)
(0.067877347 -2.5760832e-07 0)
(0.019882195 -3.7363272e-08 0)
(0.019880219 3.3211333e-08 0)
(0.067870694 2.3248579e-07 0)
(0.13567995 9.9085163e-07 0)
(0.23021242 2.9563865e-06 0)
(0.3594725 7.3193804e-06 0)
(0.53137838 1.6100576e-05 0)
(0.7511116 3.2134136e-05 0)
(1.0165487 5.7823738e-05 0)
(1.3123082 9.0601145e-05 0)
(1.6051851 0.0001139509 0)
(1.8462423 9.8953648e-05 0)
(1.9837576 3.9287428e-05 0)
(1.9837576 -3.9289636e-05 0)
(1.8462423 -9.8955803e-05 0)
(1.6051851 -0.00011395224 0)
(1.3123082 -9.0601389e-05 0)
(1.0165488 -5.7823465e-05 0)
(0.75111161 -3.2133632e-05 0)
(0.53137839 -1.609979e-05 0)
(0.35947251 -7.3178686e-06 0)
(0.23021243 -2.9542604e-06 0)
(0.13567996 -9.8874494e-07 0)
(0.067870696 -2.312958e-07 0)
(0.01988022 -3.2870702e-08 0)
(0.019878409 3.0471507e-08 0)
(0.067864598 2.1339595e-07 0)
(0.13566798 9.0956501e-07 0)
(0.23019262 2.7142922e-06 0)
(0.3594428 6.7222139e-06 0)
(0.53133725 1.4795528e-05 0)
(0.75105972 2.9559113e-05 0)
(1.0164924 5.3290477e-05 0)
(1.3122638 8.3827409e-05 0)
(1.6051772 0.00010631834 0)
(1.846283 9.3398019e-05 0)
(1.9838306 3.7308297e-05 0)
(1.9838306 -3.7315378e-05 0)
(1.846283 -9.3405002e-05 0)
(1.6051772 -0.00010632375 0)
(1.3122638 -8.3829869e-05 0)
(1.0164924 -5.3289511e-05 0)
(0.75105974 -2.9556717e-05 0)
(0.53133726 -1.479532e-05 0)
(0.35944281 -6.7257415e-06 0)
(0.23019263 -2.7197414e-06 0)
(0.13566798 -9.1459022e-07 0)
(0.067864599 -2.1605267e-07 0)
(0.019878409 -3.1297683e-08 0)
(0.019876744 2.8202188e-08 0)
(0.067858991 1.969959e-07 0)
(0.13565696 8.3870076e-07 0)
(0.2301744 2.5017454e-06 0)
(0.35941545 6.1962726e-06 0)
(0.53129933 1.3643872e-05 0)
(0.75101179 2.7282068e-05 0)
(1.0164401 4.9266268e-05 0)
(1.3122219 7.7760083e-05 0)
(1.6051687 9.9347317e-05 0)
(1.8463206 8.8204878e-05 0)
(1.9838997 3.5442044e-05 0)
(1.9838997 -3.5454768e-05 0)
(1.8463206 -8.8216519e-05 0)
(1.6051687 -9.935749e-05 0)
(1.3122219 -7.7768202e-05 0)
(1.0164401 -4.9271172e-05 0)
(0.75101178 -2.7283674e-05 0)
(0.53129932 -1.3644144e-05 0)
(0.35941544 -6.1970519e-06 0)
(0.2301744 -2.5035267e-06 0)
(0.13565696 -8.4092747e-07 0)
(0.06785899 -1.9842311e-07 0)
(0.019876744 -2.8607438e-08 0)
(0.019875208 2.6158151e-08 0)
(0.067853816 1.8232236e-07 0)
(0.13564679 7.7560525e-07 0)
(0.23015757 2.3129538e-06 0)
(0.35939018 5.7293661e-06 0)
(0.53126426 1.262073e-05 0)
(0.75096737 2.5255349e-05 0)
(1.0163914 4.5671605e-05 0)
(1.3121824 7.2297427e-05 0)
(1.6051599 9.2961593e-05 0)
(1.8463555 8.3339228e-05 0)
(1.9839651 3.367943e-05 0)
(1.9839651 -3.3697439e-05 0)
(1.8463555 -8.3355612e-05 0)
(1.6051599 -9.2976321e-05 0)
(1.3121824 -7.231039e-05 0)
(1.0163914 -4.5681737e-05 0)
(0.75096738 -2.5262279e-05 0)
(0.53126426 -1.2623594e-05 0)
(0.35939018 -5.7274579e-06 0)
(0.23015758 -2.3076278e-06 0)
(0.13564679 -7.6940949e-07 0)
(0.067853817 -1.7867274e-07 0)
(0.019875208 -2.5001933e-08 0)
(0.019873786 2.4282692e-08 0)
(0.067849026 1.6909147e-07 0)
(0.13563738 7.1907145e-07 0)
(0.23014199 2.1441876e-06 0)
(0.35936677 5.3119874e-06 0)
(0.53123174 1.1705322e-05 0)
(0.75092611 2.3439259e-05 0)
(1.0163459 4.2441153e-05 0)
(1.3121451 6.7355355e-05 0)
(1.6051508 8.7093821e-05 0)
(1.8463878 7.8771464e-05 0)
(1.984027 3.2011686e-05 0)
(1.984027 -3.2033495e-05 0)
(1.8463878 -7.8792059e-05 0)
(1.6051508 -8.711313e-05 0)
(1.3121451 -6.7370838e-05 0)
(1.0163459 -4.2452051e-05 0)
(0.75092611 -2.3446969e-05 0)
(0.53123174 -1.1711132e-05 0)
(0.35936676 -5.3171467e-06 0)
(0.23014199 -2.1493086e-06 0)
(0.13563737 -7.23663e-07 0)
(0.067849024 -1.7159013e-07 0)
(0.019873785 -2.5073612e-08 0)
(0.019872467 2.2661797e-08 0)
(0.067844581 1.5745632e-07 0)
(0.13562864 6.6882525e-07 0)
(0.23012753 1.9933037e-06 0)
(0.35934503 4.9375953e-06 0)
(0.53120153 1.0882248e-05 0)
(0.75088771 2.1802791e-05 0)
(1.0163035 3.9521808e-05 0)
(1.3121099 6.2863559e-05 0)
(1.6051417 8.1687489e-05 0)
(1.8464178 7.4477805e-05 0)
(1.9840856 3.0431311e-05 0)
(1.9840856 -3.0455773e-05 0)
(1.8464178 -7.4501109e-05 0)
(1.6051417 -8.1709696e-05 0)
(1.3121099 -6.2881375e-05 0)
(1.0163034 -3.9533763e-05 0)
(0.75088771 -2.1808631e-05 0)
(0.53120152 -1.0882809e-05 0)
(0.35934502 -4.9348896e-06 0)
(0.23012752 -1.9898461e-06 0)
(0.13562863 -6.6611846e-07 0)
(0.067844579 -1.5612537e-07 0)
(0.019872466 -2.2280341e-08 0)
(0.01987124 2.1086539e-08 0)
(0.067840446 1.465484e-07 0)
(0.13562051 6.2262543e-07 0)
(0.23011407 1.8558897e-06 0)
(0.35932479 4.5980809e-06 0)
(0.53117338 1.0137206e-05 0)
(0.7508519 2.0320979e-05 0)
(1.0162637 3.6871972e-05 0)
(1.3120768 5.8764745e-05 0)
(1.6051326 7.6692945e-05 0)
(1.8464457 7.0436474e-05 0)
(1.9841412 2.89312e-05 0)
(1.9841412 -2.8957769e-05 0)
(1.8464457 -7.0462176e-05 0)
(1.6051326 -7.6715658e-05 0)
(1.3120768 -5.8783351e-05 0)
(1.0162637 -3.6886672e-05 0)
(0.75085188 -2.0331402e-05 0)
(0.53117337 -1.0142968e-05 0)
(0.35932479 -4.6002597e-06 0)
(0.23011407 -1.8560878e-06 0)
(0.13562051 -6.2218074e-07 0)
(0.067840446 -1.4620302e-07 0)
(0.01987124 -2.1010884e-08 0)
(0.019870096 1.9798804e-08 0)
(0.067836592 1.3710717e-07 0)
(0.13561293 5.8150154e-07 0)
(0.23010152 1.7319435e-06 0)
(0.35930592 4.2902896e-06 0)
(0.53114713 9.4603242e-06 0)
(0.75081844 1.8972954e-05 0)
(1.0162265 3.4456218e-05 0)
(1.3120454 5.5010753e-05 0)
(1.6051237 7.2068122e-05 0)
(1.8464717 6.6629033e-05 0)
(1.9841937 2.750531e-05 0)
(1.9841937 -2.7533445e-05 0)
(1.8464717 -6.6654296e-05 0)
(1.6051237 -7.2087861e-05 0)
(1.3120454 -5.5023062e-05 0)
(1.0162265 -3.4463481e-05 0)
(0.75081844 -1.8977285e-05 0)
(0.53114712 -9.4628698e-06 0)
(0.35930592 -4.2924718e-06 0)
(0.23010152 -1.7344798e-06 0)
(0.13561293 -5.8412815e-07 0)
(0.067836594 -1.3865765e-07 0)
(0.019870097 -2.0307778e-08 0)
(0.019869029 1.8449201e-08 0)
(0.067832995 1.2789716e-07 0)
(0.13560586 5.4285975e-07 0)
(0.23008981 1.6176452e-06 0)
(0.3592883 4.0086889e-06 0)
(0.53112259 8.8425505e-06 0)
(0.75078715 1.774177e-05 0)
(1.0161916 3.2244771e-05 0)
(1.3120159 5.1559676e-05 0)
(1.6051148 6.7775322e-05 0)
(1.8464959 6.3038748e-05 0)
(1.9842436 2.6148584e-05 0)
(1.9842436 -2.6178866e-05 0)
(1.8464959 -6.3065209e-05 0)
(1.6051148 -6.7793415e-05 0)
(1.3120159 -5.1569698e-05 0)
(1.0161916 -3.2248605e-05 0)
(0.75078713 -1.7742161e-05 0)
(0.53112258 -8.8407703e-06 0)
(0.35928829 -4.0048455e-06 0)
(0.2300898 -1.6126975e-06 0)
(0.13560585 -5.3820558e-07 0)
(0.067832994 -1.2531283e-07 0)
(0.019869029 -1.7666598e-08 0)
(0.019868031 1.7099662e-08 0)
(0.067829633 1.1908641e-07 0)
(0.13559924 5.0673187e-07 0)
(0.23007886 1.5120906e-06 0)
(0.35927182 3.7500148e-06 0)
(0.53109963 8.2762248e-06 0)
(0.75075784 1.6613023e-05 0)
(1.0161589 3.0213791e-05 0)
(1.311988 4.8378089e-05 0)
(1.6051062 6.3783091e-05 0)
(1.8465186 5.9651005e-05 0)
(1.9842908 2.4857587e-05 0)
(1.9842908 -2.4887818e-05 0)
(1.8465186 -5.9676601e-05 0)
(1.6051062 -6.3800428e-05 0)
(1.3119879 -4.8385436e-05 0)
(1.0161588 -3.021306e-05 0)
(0.75075781 -1.6608736e-05 0)
(0.53109961 -8.2739237e-06 0)
(0.35927181 -3.752227e-06 0)
(0.23007885 -1.5174292e-06 0)
(0.13559924 -5.1247753e-07 0)
(0.067829631 -1.2230558e-07 0)
(0.019868031 -1.8097569e-08 0)
(0.019867098 1.6031744e-08 0)
(0.067826486 1.1165204e-07 0)
(0.13559305 4.7498991e-07 0)
(0.2300686 1.4172389e-06 0)
(0.35925638 3.5146098e-06 0)
(0.53107812 7.7569783e-06 0)
(0.75073035 1.557443e-05 0)
(1.0161281 2.8341543e-05 0)
(1.3119616 4.5436681e-05 0)
(1.6050978 6.0064539e-05 0)
(1.8465397 5.6452773e-05 0)
(1.9843356 2.3627336e-05 0)
(1.9843355 -2.3658554e-05 0)
(1.8465397 -5.6478081e-05 0)
(1.6050978 -6.0079341e-05 0)
(1.3119616 -4.5442109e-05 0)
(1.016128 -2.8341161e-05 0)
(0.75073031 -1.5571754e-05 0)
(0.53107809 -7.75414e-06 0)
(0.35925636 -3.5117946e-06 0)
(0.23006859 -1.4140414e-06 0)
(0.13559304 -4.7176024e-07 0)
(0.067826481 -1.0976833e-07 0)
(0.019867096 -1.543789e-08 0)
(0.019866222 1.4904642e-08 0)
(0.067823535 1.043206e-07 0)
(0.13558725 4.4485247e-07 0)
(0.23005899 1.3288392e-06 0)
(0.35924191 3.296863e-06 0)
(0.53105794 7.278012e-06 0)
(0.75070455 1.4616263e-05 0)
(1.0160992 2.6611523e-05 0)
(1.3119367 4.2710745e-05 0)
(1.6050897 5.6595495e-05 0)
(1.8465596 5.343256e-05 0)
(1.984378 2.2454997e-05 0)
(1.9843779 -2.2488642e-05 0)
(1.8465595 -5.3459574e-05 0)
(1.6050896 -5.6610649e-05 0)
(1.3119366 -4.2713468e-05 0)
(1.0160991 -2.6606315e-05 0)
(0.75070448 -1.4609147e-05 0)
(0.53105789 -7.273461e-06 0)
(0.35924187 -3.2967896e-06 0)
(0.23005896 -1.3314364e-06 0)
(0.13558723 -4.4775088e-07 0)
(0.067823526 -1.0593264e-07 0)
(0.01986622 -1.5406797e-08 0)
(0.019865401 1.4033318e-08 0)
(0.067820766 9.8098151e-08 0)
(0.1355818 4.1797628e-07 0)
(0.23004996 1.2480164e-06 0)
(0.35922832 3.0958783e-06 0)
(0.531039 6.83488e-06 0)
(0.7506803 1.373004e-05 0)
(1.0160719 2.5010403e-05 0)
(1.3119132 4.0180673e-05 0)
(1.6050818 5.3354652e-05 0)
(1.8465781 5.0578337e-05 0)
(1.9844182 2.1337097e-05 0)
(1.9844181 -2.1373815e-05 0)
(1.8465781 -5.0608588e-05 0)
(1.6050817 -5.3375002e-05 0)
(1.3119131 -4.018963e-05 0)
(1.0160718 -2.5011375e-05 0)
(0.75068022 -1.372834e-05 0)
(0.53103893 -6.8329821e-06 0)
(0.35922827 -3.0940915e-06 0)
(0.23004993 -1.2466973e-06 0)
(0.13558178 -4.172222e-07 0)
(0.067820756 -9.782334e-08 0)
(0.019865398 -1.4005796e-08 0)
(0.01986463 1.3365926e-08 0)
(0.067818166 9.2797894e-08 0)
(0.13557669 3.939886e-07 0)
(0.23004149 1.1742353e-06 0)
(0.35921556 2.9106149e-06 0)
(0.53102119 6.4244253e-06 0)
(0.75065751 1.2907488e-05 0)
(1.0160463 2.3522856e-05 0)
(1.3118909 3.7825487e-05 0)
(1.6050742 5.0322166e-05 0)
(1.8465955 4.7880131e-05 0)
(1.9844562 2.0270834e-05 0)
(1.9844562 -2.0312196e-05 0)
(1.8465954 -4.7913753e-05 0)
(1.6050741 -5.0343885e-05 0)
(1.3118908 -3.7837479e-05 0)
(1.0160462 -2.352764e-05 0)
(0.7506574 -1.2908288e-05 0)
(0.53102111 -6.4241528e-06 0)
(0.3592155 -2.9102751e-06 0)
(0.23004145 -1.1744713e-06 0)
(0.13557667 -3.9482321e-07 0)
(0.067818154 -9.3392262e-08 0)
(0.019864626 -1.3661013e-08 0)
(0.019863904 1.2325281e-08 0)
(0.06781572 8.6407724e-08 0)
(0.13557188 3.6879785e-07 0)
(0.23003351 1.1021085e-06 0)
(0.35920355 2.7353075e-06 0)
(0.53100444 6.0414952e-06 0)
(0.75063605 1.2142642e-05 0)
(1.0160221 2.2138021e-05 0)
(1.3118699 3.562723e-05 0)
(1.6050669 4.7478245e-05 0)
(1.8466118 4.53253e-05 0)
(1.9844924 1.9252942e-05 0)
(1.9844923 -1.9300545e-05 0)
(1.8466117 -4.536593e-05 0)
(1.6050668 -4.7507428e-05 0)
(1.3118698 -3.564604e-05 0)
(1.016022 -2.2149681e-05 0)
(0.75063594 -1.2148933e-05 0)
(0.53100436 -6.0462058e-06 0)
(0.35920349 -2.7419659e-06 0)
(0.23003348 -1.110951e-06 0)
(0.13557186 -3.7779903e-07 0)
(0.06781571 -9.1550109e-08 0)
(0.019863901 -1.3896569e-08 0)
(0.019863222 1.1640593e-08 0)
(0.06781342 8.1413261e-08 0)
(0.13556735 3.4709713e-07 0)
(0.23002601 1.0368749e-06 0)
(0.35919226 2.5735059e-06 0)
(0.53098868 5.6850858e-06 0)
(0.75061584 1.1429149e-05 0)
(1.0159993 2.0845367e-05 0)
(1.31185 3.3572556e-05 0)
(1.6050599 4.4809465e-05 0)
(1.8466271 4.2910457e-05 0)
(1.9845265 1.8284099e-05 0)
(1.9845265 -1.8335349e-05 0)
(1.846627 -4.2955796e-05 0)
(1.6050598 -4.4842624e-05 0)
(1.3118499 -3.3594368e-05 0)
(1.0159992 -2.0860782e-05 0)
(0.75061573 -1.1440753e-05 0)
(0.53098859 -5.6924829e-06 0)
(0.3591922 -2.5769788e-06 0)
(0.23002598 -1.0373334e-06 0)
(0.13556733 -3.4581533e-07 0)
(0.067813411 -8.0387918e-08 0)
(0.019863219 -1.106616e-08 0)
(0.01986258 1.1026973e-08 0)
(0.067811256 7.6862786e-08 0)
(0.13556309 3.2717124e-07 0)
(0.23001896 9.7660348e-07 0)
(0.35918163 2.4230677e-06 0)
(0.53097384 5.351838e-06 0)
(0.75059682 1.0759793e-05 0)
(1.0159778 1.9631842e-05 0)
(1.3118312 3.1643472e-05 0)
(1.6050532 4.2299109e-05 0)
(1.8466415 4.0619791e-05 0)
(1.984559 1.7359462e-05 0)
(1.984559 -1.7411089e-05 0)
(1.8466414 -4.0666022e-05 0)
(1.6050531 -4.2337279e-05 0)
(1.311831 -3.1672262e-05 0)
(1.0159777 -1.9653522e-05 0)
(0.75059671 -1.0777193e-05 0)
(0.53097376 -5.3641203e-06 0)
(0.35918157 -2.4285259e-06 0)
(0.23001892 -9.7596963e-07 0)
(0.13556307 -3.2284607e-07 0)
(0.067811246 -7.3680122e-08 0)
(0.019862577 -9.8250802e-09 0)
(0.019861975 1.0244489e-08 0)
(0.067809217 7.1879528e-08 0)
(0.13555908 3.0711586e-07 0)
(0.23001231 9.1849604e-07 0)
(0.35917161 2.2806959e-06 0)
(0.53095986 5.0390857e-06 0)
(0.75057888 1.0133104e-05 0)
(1.0159576 1.8495207e-05 0)
(1.3118134 2.9834315e-05 0)
(1.6050467 3.993701e-05 0)
(1.846655 3.8456777e-05 0)
(1.9845897 1.6481516e-05 0)
(1.9845896 -1.6530968e-05 0)
(1.8466549 -3.85e-05 0)
(1.6050466 -3.9972879e-05 0)
(1.3118133 -2.9863585e-05 0)
(1.0159575 -1.8515578e-05 0)
(0.75057878 -1.0146333e-05 0)
(0.53095978 -5.0497768e-06 0)
(0.35917156 -2.2896401e-06 0)
(0.23001228 -9.2545583e-07 0)
(0.13555907 -3.117753e-07 0)
(0.067809209 -7.4068403e-08 0)
(0.019861973 -1.0887017e-08 0)
(0.019861406 1.0059651e-08 0)
(0.067807298 6.9034164e-08 0)
(0.13555531 2.9168759e-07 0)
(0.23000605 8.6759153e-07 0)
(0.35916218 2.1495082e-06 0)
(0.53094669 4.7455579e-06 0)
(0.75056198 9.5433497e-06 0)
(1.0159384 1.7426974e-05 0)
(1.3117966 2.8133863e-05 0)
(1.6050406 3.771293e-05 0)
(1.8466678 3.6399309e-05 0)
(1.9846188 1.5642155e-05 0)
(1.9846188 -1.568469e-05 0)
(1.8466677 -3.6436605e-05 0)
(1.6050404 -3.7742359e-05 0)
(1.3117964 -2.8159156e-05 0)
(1.0159383 -1.7445791e-05 0)
(0.75056188 -9.5531204e-06 0)
(0.53094662 -4.7482789e-06 0)
(0.35916214 -2.1480035e-06 0)
(0.23000603 -8.6546476e-07 0)
(0.13555529 -2.9080869e-07 0)
(0.067807293 -6.8956753e-08 0)
(0.019861405 -1.0032757e-08 0)
(0.01986087 9.5393724e-09 0)
(0.067805492 6.5189294e-08 0)
(0.13555175 2.7496709e-07 0)
(0.23000016 8.1707206e-07 0)
(0.35915331 2.0235296e-06 0)
(0.53093429 4.467356e-06 0)
(0.75054605 8.9868721e-06 0)
(1.0159204 1.6421308e-05 0)
(1.3117806 2.6535541e-05 0)
(1.6050346 3.5618977e-05 0)
(1.8466797 3.4465357e-05 0)
(1.9846463 1.485131e-05 0)
(1.9846463 -1.4881093e-05 0)
(1.8466796 -3.4491718e-05 0)
(1.6050345 -3.5641874e-05 0)
(1.3117805 -2.6554235e-05 0)
(1.0159203 -1.6437183e-05 0)
(0.75054596 -8.9984176e-06 0)
(0.53093422 -4.4701741e-06 0)
(0.35915326 -2.0154162e-06 0)
(0.23000013 -8.0199429e-07 0)
(0.13555174 -2.5911334e-07 0)
(0.067805485 -5.6090079e-08 0)
(0.019860869 -6.6007627e-09 0)
(0.019860365 8.9743783e-09 0)
(0.06780379 6.1323414e-08 0)
(0.1355484 2.5870301e-07 0)
(0.22999461 7.6887574e-07 0)
(0.35914494 1.904692e-06 0)
(0.5309226 4.2066838e-06 0)
(0.75053102 8.4665925e-06 0)
(1.0159034 1.5479393e-05 0)
(1.3117656 2.5032956e-05 0)
(1.605029 3.3645354e-05 0)
(1.846691 3.2620313e-05 0)
(1.9846726 1.4090727e-05 0)
(1.9846725 -1.4108321e-05 0)
(1.8466909 -3.263452e-05 0)
(1.6050289 -3.365667e-05 0)
(1.3117654 -2.503941e-05 0)
(1.0159032 -1.5481439e-05 0)
(0.75053093 -8.4678184e-06 0)
(0.53092253 -4.208573e-06 0)
(0.35914489 -1.907035e-06 0)
(0.22999458 -7.7127308e-07 0)
(0.13554839 -2.606546e-07 0)
(0.067803782 -6.2281612e-08 0)
(0.019860363 -9.3281093e-09 0)
(0.019859891 8.5823124e-09 0)
(0.067802192 5.8138949e-08 0)
(0.13554526 2.4415921e-07 0)
(0.2299894 7.2412229e-07 0)
(0.35913708 1.7929107e-06 0)
(0.5309116 3.960934e-06 0)
(0.75051688 7.9778679e-06 0)
(1.0158873 1.4599458e-05 0)
(1.3117513 2.363431e-05 0)
(1.6050236 3.1803458e-05 0)
(1.8467015 3.090257e-05 0)
(1.9846971 1.3380976e-05 0)
(1.9846971 -1.3387804e-05 0)
(1.8467014 -3.0906534e-05 0)
(1.6050234 -3.1803115e-05 0)
(1.3117512 -2.3632236e-05 0)
(1.0158872 -1.4597011e-05 0)
(0.75051678 -7.9767429e-06 0)
(0.53091152 -3.9603391e-06 0)
(0.35913702 -1.7909131e-06 0)
(0.22998936 -7.2122691e-07 0)
(0.13554524 -2.4181814e-07 0)
(0.067802184 -5.7080941e-08 0)
(0.019859889 -8.2776188e-09 0)
(0.019859445 7.7197148e-09 0)
(0.067800686 5.3632381e-08 0)
(0.1355423 2.2781933e-07 0)
(0.22998448 6.7949868e-07 0)
(0.35912965 1.6867083e-06 0)
(0.53090121 3.7319146e-06 0)
(0.75050349 7.5246635e-06 0)
(1.0158721 1.3782132e-05 0)
(1.3117378 2.2328673e-05 0)
(1.6050184 3.0077992e-05 0)
(1.8467116 2.9273996e-05 0)
(1.9847208 1.2700968e-05 0)
(1.9847207 -1.2699658e-05 0)
(1.8467114 -2.9270913e-05 0)
(1.6050183 -3.0072444e-05 0)
(1.3117376 -2.2320693e-05 0)
(1.0158719 -1.37755e-05 0)
(0.75050339 -7.5213411e-06 0)
(0.53090113 -3.7293344e-06 0)
(0.3591296 -1.6808056e-06 0)
(0.22998444 -6.7057506e-07 0)
(0.13554227 -2.1863538e-07 0)
(0.067800676 -4.8429137e-08 0)
(0.019859442 -5.9879726e-09 0)
(0.019859027 7.4451089e-09 0)
(0.067799276 5.1241777e-08 0)
(0.13553952 2.1622025e-07 0)
(0.22997986 6.4276867e-07 0)
(0.35912268 1.5937686e-06 0)
(0.53089145 3.526702e-06 0)
(0.75049091 7.1165607e-06 0)
(1.0158578 1.3046695e-05 0)
(1.3117251 2.1152372e-05 0)
(1.6050135 2.8506574e-05 0)
(1.8467209 2.7782921e-05 0)
(1.9847428 1.2074878e-05 0)
(1.9847428 -1.2071045e-05 0)
(1.8467208 -2.7776479e-05 0)
(1.6050133 -2.8496413e-05 0)
(1.3117249 -2.1140745e-05 0)
(1.0158576 -1.3036045e-05 0)
(0.75049078 -7.1094451e-06 0)
(0.53089135 -3.5227425e-06 0)
(0.35912261 -1.5898003e-06 0)
(0.22997981 -6.3806651e-07 0)
(0.13553949 -2.1150316e-07 0)
(0.06779926 -4.8543222e-08 0)
(0.019859022 -6.5593459e-09 0)
(0.019858631 6.7975812e-09 0)
(0.067797937 4.7808294e-08 0)
(0.13553688 2.0341329e-07 0)
(0.22997547 6.0710694e-07 0)
(0.35911605 1.5083127e-06 0)
(0.53088213 3.3427637e-06 0)
(0.75047888 6.7543125e-06 0)
(1.015844 1.2393149e-05 0)
(1.3117128 2.0095967e-05 0)
(1.6050088 2.7081674e-05 0)
(1.8467299 2.6410966e-05 0)
(1.9847641 1.1488947e-05 0)
(1.9847641 -1.1489423e-05 0)
(1.8467298 -2.640646e-05 0)
(1.6050086 -2.7073798e-05 0)
(1.3117127 -2.0089348e-05 0)
(1.0158439 -1.2389927e-05 0)