/*--------------------------------*- C++ -*----------------------------------*\
| =========                 |                                                 |
| \\      /  F ield         | OpenFOAM: The Open Source CFD Toolbox           |
|  \\    /   O peration     | Version:  2406                                  |
|   \\  /    A nd           | Website:  www.openfoam.com                      |
|    \\/     M anipulation  |                                                 |
\*---------------------------------------------------------------------------*/
FoamFile
{
    version     2.0;
    format      ascii;
    arch        "LSB;label=32;scalar=64";
    class       surfaceScalarField;
    location    "16.25";
    object      phi;
}
// * * * * * * * * * * * * * * * * * * * * * * * * * * * * * * * * * * * * * //

dimensions      [0 3 -1 0 0 0 0];

oriented        oriented;

internalField   nonuniform List<scalar> 
101088
(
-8.1985439e-05
1.0508084e-05
2.3958838e-06
-7.7088211e-06
-0.00020825398
5.5385993e-05
5.285137e-06
-4.1862542e-05
-0.00039005333
0.00015936056
-6.5459726e-07
-0.00012306402
-0.0006226521
0.00035288106
-3.2236292e-05
-0.00027900538
-0.00086560927
0.00062616296
-0.00010880422
-0.00051059089
-0.0010512538
0.000903273
-0.00022749707
-0.00076221712
-0.0011374262
0.0010978462
-0.0003464003
-0.0009528133
-0.0011440022
0.0011775727
-0.00041090321
-0.0010360754
0.0011418354
-0.0003969937
-0.0010173234
-0.0011117913
-9.9195696e-05
1.2139386e-05
3.3653213e-06
-0.00024857695
6.5532003e-05
7.5877055e-06
-0.00045786927
0.00018988974
-5.8290359e-08
-0.00071407064
0.00041750608
-4.1868362e-05
-0.00096104607
0.00072530459
-0.00014105086
-0.001121883
0.0010201314
-0.00028983226
-0.0011641305
0.0012190692
-0.0004342466
-0.0011227006
0.001301946
-0.00051105309
0.0012695944
-0.00049737626
-0.001059291
-0.00011714979
1.2799254e-05
4.7207421e-06
-0.00029031431
7.1295505e-05
1.1458342e-05
-0.00052592973
0.00021022617
3.8693299e-06
-0.00080157484
0.00046384833
-4.6136444e-05
-0.001048622
0.00079737525
-0.00016535865
-0.0011854402
0.0011036654
-0.00033987097
-0.0011902275
0.0013088794
-0.00050425407
-0.0011116621
0.0014035972
-0.00058964164
0.0013861864
-0.00057566919
-0.00101874
-0.00013491768
1.2410773e-05
6.388316e-06
-0.00033177672
7.1980232e-05
1.6617631e-05
-0.00059268177
0.00021739938
1.0832132e-05
-0.00088455313
0.00048497949
-4.4955687e-05
-0.0011274462
0.00083190486
-0.00018077361
-0.0012423518
0.0011463485
-0.0003764647
-0.0012193109
0.0013640518
-0.00055635059
-0.0011167617
0.0014814207
-0.00064787355
0.0014853105
-0.00063333695
-0.0010020273
-0.00015141704
1.0234574e-05
8.4055662e-06
-0.00036932961
6.4820659e-05
2.3185624e-05
-0.00065204841
0.00020603876
2.1544443e-05
-0.00095743672
0.00047413668
-3.7094958e-05
-0.0011980138
0.00082404391
-0.00018590135
-0.0012996446
0.0011471124
-0.00039867067
-0.0012618439
0.0013858759
-0.0005909494
-0.001146925
0.0015341972
-0.00068682803
0.0015621671
-0.00067095328
-0.0010189628
-0.00016722373
6.371464e-06
1.0817677e-05
-0.00040654772
4.9925857e-05
3.169563e-05
-0.00071289547
0.00017590234
3.6675214e-05
-0.0010362128
0.00043087308
-2.1177982e-05
-0.0012835834
0.00077553667
-0.00017948561
-0.0013828775
0.0011070932
-0.00040587848
-0.0013409942
0.0013725431
-0.00060699919
-0.0012196723
0.0015536934
-0.00070500043
0.0016059303
-0.00068797796
-0.0010816502
-0.00018177567
8.426933e-07
1.3632908e-05
-0.00044293442
2.7714671e-05
4.2552025e-05
-0.00077561456
0.00012784883
5.6832684e-05
-0.0011242369
0.00035653714
4.9370131e-06
-0.0013895763
0.00068748863
-0.00015779671
-0.0015009368
0.0010270717
-0.00039332169
-0.0014668092
0.0013198433
-0.00060021424
-0.0013468201
0.001530868
-0.00069942385
0.0016032582
-0.00068224587
-0.0012015054
-0.00019573213
-5.5591489e-06
1.695268e-05
-0.00048155214
1.0892054e-06
5.5947776e-05
-0.00084946053
6.7811775e-05
8.3452865e-05
-0.0012394542
0.0002591306
4.3618101e-05
-0.0015425064
0.00056646492
-0.00011742825
-0.0016832003
0.00090688835
-0.00035702647
-0.0016670827
0.0012177394
-0.00056638102
-0.0015508653
0.0014469659
-0.00066592672
0.0015309669
-0.00065012604
-0.0013952308
-0.00020978161
-1.1136232e-05
2.0744458e-05
-0.00052619597
-2.3598757e-05
7.1772445e-05
-0.00094733585
8.9355152e-06
0.00011870912
-0.0014032587
0.00015526783
9.5034751e-05
-0.0017700458
0.00042398456
-5.6804183e-05
-0.0019581269
0.00074430877
-0.0002939811
-0.0019663733
0.001048049
-0.00050126773
-0.0018502512
0.0012723106
-0.00059990264
0.0013552265
-0.00058772147
-0.0016748729
-0.00022473042
-1.2981224e-05
2.4754366e-05
-0.00058088814
-3.5565274e-05
8.9002125e-05
-0.0010755759
-2.7907438e-05
0.00015741501
-0.0016245498
7.0233449e-05
0.00015332455
-0.0020807414
0.0002755587
1.9943158e-05
-0.0023300727
0.00053610775
-0.00020725674
-0.0023632369
0.00078867454
-0.0004067589
-0.0022382875
0.00097309984
-0.00050261636
0.001040441
-0.00049642374
-0.0020308486
-0.00023908219
-8.8805739e-06
2.8322524e-05
-0.00063863282
-2.6292182e-05
0.00010458817
-0.0012138127
-2.8143176e-05
0.00019272177
-0.0018688624
2.0426889e-05
0.00021352413
-0.0024215858
0.00013356619
9.7640156e-05
-0.002733295
0.00028320117
-0.00011355805
-0.0027863596
0.00042985786
-0.00030070375
-0.0026450713
0.00053526875
-0.00039246267
0.00057341427
-0.00039319977
-0.0023988671
-0.00024848104
-1.7054835e-10
3.0497233e-05
-0.00067799199
-7.6276689e-10
0.00011421392
-0.0013083455
-1.8408439e-09
0.00021518875
-0.0020383221
-3.1406732e-09
0.00025370458
-0.0026574088
-4.2225022e-09
0.00014933493
-0.0030105979
-4.7923948e-09
-4.8509747e-05
-0.0030743544
-4.8181066e-09
-0.00022563389
-0.0029199348
-4.1887321e-09
-0.00031422203
-3.0824146e-09
-0.00031998169
-0.0026456739
-0.00024848107
8.8802941e-06
3.0497225e-05
-0.00067799146
2.629077e-05
0.00011421389
-0.0013083449
2.8139564e-05
0.00021518866
-0.0020383218
-2.0433307e-05
0.00025370443
-0.0026574087
-0.00013357488
0.00014933477
-0.003010598
-0.00028321085
-4.8509889e-05
-0.0030743547
-0.00042986736
-0.00022563397
-0.0029199352
-0.00053527688
-0.00031422207
-0.00057342002
-0.00031998171
-0.0026456747
-0.0002390825
1.2980906e-05
2.8322512e-05
-0.00063863236
3.5563695e-05
0.00010458812
-0.0012138127
2.7903659e-05
0.00019272162
-0.0018688626
-7.0239976e-05
0.00021352384
-0.0024215866
-0.00027556749
9.7639812e-05
-0.0027332963
-0.00053611736
-0.00011355838
-0.0027863611
-0.00078868376
-0.00030070398
-0.0026450725
-0.00097310785
-0.00039246281
-0.0010404467
-0.00039319987
-0.0023988685
-0.00022473063
1.1135822e-05
2.4754342e-05
-0.00058088812
2.3597022e-05
8.9002029e-05
-0.0010755769
-8.9390818e-06
0.0001574148
-0.00162455
-0.00015527355
0.00015332421
-0.0020807423
-0.00042399236
1.9942745e-05
-0.0023300746
-0.00074431733
-0.00020725713
-0.0023632392
-0.0010480572
-0.00040675919
-0.0022382889
-0.0012723186
-0.00050261656
-0.0013552331
-0.0004964239
-0.0020308498
-0.00020978116
5.5588243e-06
2.0744438e-05
-0.00052619572
-1.0904983e-06
7.1772361e-05
-0.00094733716
-6.7814604e-05
0.00011870892
-0.0014032593
-0.00025913546
9.5034427e-05
-0.0017700475
-0.00056647159
-5.6804594e-05
-0.0019581295
-0.00090689533
-0.00029398152
-0.0019663767
-0.0012177463
-0.00050126811
-0.0018502533
-0.001446974
-0.0005999029
-0.0015309753
-0.00058772167
-0.001674874
-0.00019573156
-8.4304984e-07
1.6952664e-05
-0.00048155207
-2.7715847e-05
5.5947702e-05
-0.00084946241
-0.00012785162
8.3452686e-05
-0.0012394563
-0.00035654192
4.3617798e-05
-0.0015425094
-0.00068749415
-0.00011742865
-0.0016832035
-0.0010270769
-0.00035702691
-0.0016670871
-0.0013198491
-0.0005663814
-0.0015508688
-0.0015308757
-0.00066592699
-0.0016032673
-0.00065012628
-0.0013952331
-0.00018177536
-6.3716303e-06
1.3632898e-05
-0.00044293428
-4.9926378e-05
4.2551971e-05
-0.00077561684
-0.00017590395
5.6832549e-05
-0.00112424
-0.00043087617
4.9367526e-06
-0.00138958
-0.00077554012
-0.00015779709
-0.0015009404
-0.0011070967
-0.0003933221
-0.0014668142
-0.0013725481
-0.00060021455
-0.0013468247
-0.0015536999
-0.00069942411
-0.0016059388
-0.00068224614
-0.0012015092
-0.00016722393
-1.0234651e-05
1.0817669e-05
-0.00040654839
-6.4821028e-05
3.169559e-05
-0.00071289775
-0.00020603968
3.6675108e-05
-0.0010362152
-0.0004741386
-2.1178209e-05
-0.0012835875
-0.00082404712
-0.00017948595
-0.0013828814
-0.0011471156
-0.00040587886
-0.0013409992
-0.0013858797
-0.00060699952
-0.0012196765
-0.0015342019
-0.00070500076
-0.0015621744
-0.00068797818
-0.0010816546
-0.00015141675
-1.2410886e-05
8.4055558e-06
-0.00036932854
-7.198057e-05
2.3185582e-05
-0.00065204788
-0.00021740004
2.1544334e-05
-0.00095743856
-0.00048498153
-3.7095155e-05
-0.0011980169
-0.00083190826
-0.00018590162
-0.0012996472
-0.0011463512
-0.00039867095
-0.0012618472
-0.0013640544
-0.00059094968
-0.0011469274
-0.0014814242
-0.0006868283
-0.0014853161
-0.0006709533
-0.001018967
-0.0001349178
-1.2799379e-05
6.3883045e-06
-0.00033177693
-7.1295886e-05
1.6617586e-05
-0.00059268247
-0.00021022677
1.0832036e-05
-0.00088455516
-0.00046384928
-4.4955855e-05
-0.0011274472
-0.00079737609
-0.00018077388
-0.0012423528
-0.0011036661
-0.00037646502
-0.001219312
-0.0013088796
-0.00055635085
-0.001116764
-0.0014035996
-0.00064787369
-0.0013861918
-0.00063333686
-0.0010020314
-0.00011714973
-1.2139443e-05
4.7207316e-06
-0.00029031378
-6.5532151e-05
1.1458303e-05
-0.00052592853
-0.00018989002
3.869243e-06
-0.00080157414
-0.00041750662
-4.6136598e-05
-0.0010486223
-0.00072530532
-0.00016535887
-0.0011854405
-0.0010201313
-0.00033987125
-0.0011902292
-0.0012190681
-0.00050425431
-0.0011116659
-0.001301945
-0.00058964177
-0.0012695985
-0.00057566921
-0.0010187437
-9.9195535e-05
-1.0508093e-05
3.3653129e-06
-0.00024857627
-5.5385986e-05
7.5876725e-06
-0.00045786808
-0.0001593606
-5.8367333e-08
-0.00071406998
-0.00035288133
-4.1868508e-05
-0.00096104647
-0.00062616331
-0.00014105109
-0.0011218823
-0.00090327198
-0.00028983257
-0.001164129
-0.0010978445
-0.0004342469
-0.0011226998
-0.0011775736
-0.00051105318
-0.0011418376
-0.00049737629
-0.0010592909
-8.1985382e-05
2.3958768e-06
-7.7088269e-06
-0.00020825369
5.2851089e-06
-4.186252e-05
-0.00039005286
-6.5466418e-07
-0.00012306387
-0.00062265154
-3.223642e-05
-0.00027900481
-0.0008656083
-0.00010880442
-0.00051058975
-0.0010512537
-0.00022749732
-0.0007622161
-0.0011374269
-0.00034640045
-0.00095281375
-0.0011440007
-0.00041090328
-0.0010360786
-0.0003969937
-0.0010173284
-0.0011117905
1.4349683e-06
2.1256093e-07
2.1310567e-06
-1.382699e-06
6.1082223e-06
-5.6143614e-07
6.0124807e-06
-4.8392412e-06
1.503051e-05
-6.0611195e-06
4.4937199e-06
-8.009712e-06
2.8411683e-05
-2.5210199e-05
-1.6110581e-05
-4.2969638e-06
4.5079433e-05
-7.141262e-05
-7.2184904e-05
1.81255e-05
6.4744526e-05
-0.0001505041
-0.00016570583
6.9048067e-05
8.9938793e-05
-0.00024558558
-0.00026638862
0.0001403796
0.00012113907
-0.00032408
-0.00032622516
0.00020820174
-0.00036302651
-0.00031972947
0.0002528803
0.00015402173
2.3281758e-06
-1.4611538e-06
2.7108237e-06
1.0282722e-05
-8.3723112e-06
7.4439244e-06
2.5563311e-05
-2.6147439e-05
4.747328e-06
4.719981e-05
-6.5835559e-05
-2.2879162e-05
7.0008585e-05
-0.00014001969
-9.5251601e-05
9.0529991e-05
-0.00024793317
-0.00021292449
0.00011110157
-0.00036324873
-0.00033715578
0.00013561807
-0.00044909281
-0.00041055581
-0.00048379051
-0.0004057252
0.00016473169
3.5670524e-06
-3.7381937e-06
3.4306632e-06
1.5868186e-05
-1.8706354e-05
9.4909566e-06
3.9068499e-05
-5.1982595e-05
6.5037984e-06
6.9845379e-05
-0.00011614252
-2.6606212e-05
9.7909521e-05
-0.00022075689
-0.00011268515
0.00011670495
-0.00035611016
-0.00025048938
0.00012997784
-0.00048739108
-0.00039338393
0.00014523561
-0.00057715494
-0.00047683785
-0.00060659616
-0.00047310724
0.00016548028
5.0750037e-06
-6.5791256e-06
4.1542543e-06
2.2663328e-05
-3.1291539e-05
1.16145e-05
5.5428406e-05
-8.2557739e-05
8.6427032e-06
9.6712734e-05
-0.00017335748
-2.902381e-05
0.00013009366
-0.00030820712
-0.00012670486
0.00014617787
-0.00046762754
-0.00028103152
0.00015116803
-0.0006105273
-0.00043820502
0.00015593956
-0.00070138672
-0.0005284132
-0.00072441873
-0.00052488464
0.00016531029
6.7128902e-06
-9.7546223e-06
4.8680368e-06
2.9970063e-05
-4.5135516e-05
1.3771926e-05
7.3289372e-05
-0.00011542599
1.1093187e-05
0.00012593756
-0.00023281634
-3.0283391e-05
0.0001648182
-0.00039522994
-0.00013775838
0.00017817704
-0.00057393891
-0.00030571823
0.0001751476
-0.0007245915
-0.00047385548
0.00016980461
-0.00081453673
-0.00056833562
-0.0008299374
-0.00056410681
0.00016847674
8.5922059e-06
-1.3085794e-05
5.5566655e-06
3.8480588e-05
-5.9233695e-05
1.5905697e-05
9.3838921e-05
-0.00014784688
1.3738614e-05
0.00015952916
-0.0002890719
-3.0612948e-05
0.00020470213
-0.00047351384
-0.00014637392
0.00021558628
-0.00066498201
-0.00032571953
0.00020512234
-0.00081869049
-0.00050243584
0.0001903428
-0.00090534566
-0.00059941237
-0.00091224046
-0.00059368821
0.00017835608
1.0416171e-05
-1.6065575e-05
6.1962823e-06
4.7172047e-05
-7.1382527e-05
1.7944945e-05
0.00011428723
-0.00017461905
1.6490752e-05
0.00019313001
-0.00033290816
-3.0069553e-05
0.00024461761
-0.00053016136
-0.00015263743
0.00025375876
-0.00072603856
-0.00034140736
0.00023762122
-0.00087786548
-0.00052490155
0.00021542166
-0.00095925087
-0.00062331932
-0.00095764748
-0.00061575038
0.00019433305
1.2030477e-05
-1.7971697e-05
6.828009e-06
5.5077348e-05
-7.8536735e-05
2.0055275e-05
0.00013292913
-0.00018870242
1.9685588e-05
0.00022425793
-0.0003524408
-2.8177707e-05
0.00028219275
-0.00054937398
-0.00015615026
0.00029082605
-0.00073888553
-0.00035281343
0.00027126143
-0.00088267433
-0.00054200765
0.00024408523
-0.0009565445
-0.00064145742
-0.00094747282
-0.00063200066
0.00021578494
1.3118414e-05
-1.7815009e-05
7.4691085e-06
6.0828142e-05
-7.677356e-05
2.2299354e-05
0.00014893053
-0.00018157117
2.3475764e-05
0.00025038968
-0.00033403009
-2.48359e-05
0.00031410761
-0.00051305972
-0.00015683634
0.00032333582
-0.00068212386
-0.00035997106
0.00030272923
-0.00080929748
-0.0005540381
0.00027315346
-0.00087240343
-0.00065446852
-0.00085841603
-0.00064349971
0.0002398749
1.3693252e-05
-1.4843674e-05
8.0899869e-06
6.4462408e-05
-6.3147326e-05
2.4606693e-05
0.00016002907
-0.0001474322
2.7709505e-05
0.0002675798
-0.00026787304
-2.0383995e-05
0.00033608651
-0.0004063974
-0.00015522607
0.00034721096
-0.0005370361
-0.00036346884
0.00032800566
-0.00063535549
-0.00056149552
0.00029847282
-0.0006826578
-0.00066282935
-0.00066823145
-0.00065074202
0.00026260684
1.3519914e-05
-8.6439663e-06
8.6030859e-06
6.4728564e-05
-3.6367546e-05
2.6599473e-05
0.00016247109
-8.4039561e-05
3.1586548e-05
0.0002749162
-0.0001510309
-1.5763048e-05
0.00034621822
-0.00022750476
-0.00015255432
0.00035979506
-0.00029992306
-0.00036424761
0.00034327983
-0.00035458948
-0.0005649543
0.00031535114
-0.00038028453
-0.00066690703
-0.00037093656
-0.00065413537
0.00027899229
1.2913046e-05
3.3048022e-11
8.9402349e-06
6.2805037e-05
1.6217268e-10
2.7954018e-05
0.00015960461
4.3473253e-10
3.4349032e-05
0.00027449111
9.8254204e-10
-1.2213407e-05
0.00034655118
1.7196618e-09
-0.00015023134
0.00036206001
2.2184655e-09
-0.00036394363
0.00034808139
2.2442631e-09
-0.00056624682
0.0003222119
2.0425837e-09
-0.00066863872
1.8172468e-09
-0.00065553617
0.00028682846
1.291303e-05
8.6440488e-06
8.9402329e-06
6.280525e-05
3.636789e-05
2.7954012e-05
0.00015960478
8.4040389e-05
3.4349021e-05
0.00027449106
0.00015103265
-1.2213416e-05
0.00034655095
0.00022750774
-0.00015023134
0.00036205976
0.00029992699
-0.0003639436
0.00034808125
0.00035459363
-0.00056624678
0.0003222119
0.00038028846
-0.0006686387
0.00037094022
-0.0006555362
0.00028682846
1.3519796e-05
1.4843736e-05
8.6030828e-06
6.4728804e-05
6.3147569e-05
2.6599462e-05
0.00016247108
0.00014743281
3.1586526e-05
0.00027491598
0.00026787435
-1.5763079e-05
0.00034621769
0.00040639965
-0.00015255435
0.00035979443
0.00053703923
-0.00036424763
0.00034327943
0.00063535914
-0.00056495432
0.00031535117
0.00068266135
-0.00066690708
0.00066823481
-0.00065413546
0.00027899247
1.3693092e-05
1.7814982e-05
8.08998e-06
6.446229e-05
7.6773559e-05
2.460667e-05
0.00016002838
0.0001815715
2.770947e-05
0.00026757944
0.00033403115
-2.0384026e-05
0.000336086
0.00051306157
-0.00015522608
0.00034721031
0.00068212658
-0.00036346882
0.00032800516
0.00080930089
-0.0005614955
0.00029847291
0.00087240645
-0.00066282938
0.00085841829
-0.00065074211
0.00026260735
1.3118554e-05
1.797167e-05
7.4691025e-06
6.082818e-05
7.8536792e-05
2.2299334e-05
0.00014892976
0.00018870283
2.3475729e-05
0.00025038943
0.00035244186
-2.4835934e-05
0.00031410719
0.00054937577
-0.00015683635
0.00032333528
0.00073888833
-0.00035997106
0.00030272852
0.00088267776
-0.00055403812
0.00027315327
0.000956547
-0.00065446855
0.00094747379
-0.00064349979
0.00023987525
1.2030753e-05
1.6065506e-05
6.8280039e-06
5.507749e-05
7.1382519e-05
2.0055255e-05
0.00013292834
0.00017461922
1.9685551e-05
0.00022425729
0.00033290877
-2.8177749e-05
0.00028219203
0.00053016304
-0.00015615029
0.00029082544
0.00072604167
-0.00035281345
0.0002712604
0.00087786893
-0.00054200768
0.00024408453
0.00095925316
-0.00064145745
0.0009576481
-0.00063200072
0.00021578468
1.0416358e-05
1.3085782e-05
6.1962784e-06
4.7172231e-05
5.9233863e-05
1.7944928e-05
0.0001142863
0.0001478472
1.6490719e-05
0.00019312897
0.00028907261
-3.0069598e-05
0.00024461651
0.00047351588
-0.00015263748
0.00025375793
0.00066498547
-0.00034140741
0.00023761993
0.00081869396
-0.00052490158
0.00021542064
0.00090534823
-0.00062331937
0.00091224145
-0.00061575045
0.00019433236
8.592221e-06
9.7546087e-06
5.556663e-06
3.8480487e-05
4.5135631e-05
1.5905685e-05
9.3838007e-05
0.0001154263
1.3738586e-05
0.00015952832
0.00023281714
-3.0613006e-05
0.00020470071
0.00039523164
-0.00014637401
0.00021558524
0.00057394203
-0.00032571964
0.00020512116
0.00072459517
-0.00050243595
0.00019034219
0.00081453983
-0.00059941248
0.00082993847
-0.00059368828
0.00017835571
6.7129896e-06
6.5791271e-06
4.868034e-06
2.9970495e-05
3.1291689e-05
1.3771913e-05
7.3289592e-05
8.2558153e-05
1.1093153e-05
0.00012593677
0.00017335806
-3.0283455e-05
0.00016481697
0.00030820837
-0.00013775846
0.00017817625
0.00046763057
-0.00030571831
0.00017514698
0.00061053112
-0.00047385557
0.00016980481
0.00070138991
-0.00056833573
0.0007244196
-0.00056410684
0.0001684769
5.075005e-06
3.738142e-06
4.1542487e-06
2.2663436e-05
1.8706327e-05
1.1614477e-05
5.5428332e-05
5.1982741e-05
8.6426564e-06
9.6711757e-05
0.00011614301
-2.9023884e-05
0.00013009322
0.00022075858
-0.00012670496
0.0001461776
0.00035611349
-0.00028103162
0.00015116823
0.00048739531
-0.00043820512
0.00015593994
0.00057715776
-0.00052841329
0.00060659571
-0.00052488467
0.00016531099
3.5670289e-06
1.4611451e-06
3.4306573e-06
1.5868316e-05
8.3724082e-06
9.4909337e-06
3.9068917e-05
2.6147792e-05
6.5037505e-06
6.984543e-05
6.5836373e-05
-2.6606291e-05
9.7909114e-05
0.00014002157
-0.00011268526
0.00011670463
0.00024793688
-0.00025048951
0.000129977
0.00036325319
-0.00039338405
0.00014523483
0.00044909648
-0.00047683795
0.00048378938
-0.00047310733
0.00016548075
2.328227e-06
-2.125475e-07
2.710819e-06
1.0283001e-05
5.6158077e-07
7.4439055e-06
2.5563845e-05
6.0615225e-06
4.7472842e-06
4.7199925e-05
2.5211012e-05
-2.2879244e-05
7.0007926e-05
7.1414477e-05
-9.5251731e-05
9.0529468e-05
0.00015050818
-0.00021292466
0.00011110168
0.00024559001
-0.00033715597
0.00013561834
0.0003240823
-0.00041055595
0.00036302554
-0.00040572532
0.00016473241
1.4349869e-06
2.1310536e-06
-1.3826598e-06
6.108381e-06
6.0124677e-06
-4.8390348e-06
1.5030787e-05
4.4936884e-06
-8.0091493e-06
2.8411951e-05
-1.6110642e-05
-4.2956946e-06
4.5080141e-05
-7.2185003e-05
1.8127993e-05
6.4744979e-05
-0.00016570596
6.9051772e-05
8.9939155e-05
-0.00026638875
0.00014038285
0.00012113996
-0.00032622528
0.00020820345
-0.00031972956
0.0002528786
0.00015402172
2.2116197e-09
-4.2746466e-07
2.107568e-06
4.4874183e-07
3.0340985e-07
-1.5774589e-06
5.5647199e-06
1.7239946e-06
7.7478332e-07
-3.096002e-06
3.5172911e-06
3.6009838e-06
1.0206938e-07
-4.3728074e-06
-1.6795671e-05
5.7305264e-06
-3.1999799e-06
-4.2851028e-06
-7.1922554e-05
7.3247848e-06
-8.9833863e-06
-1.7546389e-06
-0.00016551574
7.3480139e-06
-1.4822869e-05
2.9083136e-06
-0.00026877863
5.3211193e-06
-1.7821571e-05
7.3058602e-06
-0.00033294318
2.4108379e-06
7.8880573e-06
-0.00032945235
2.1914527e-07
-1.6205801e-05
7.0931023e-09
-4.569027e-07
2.7331513e-06
4.0075767e-07
-1.6081931e-06
7.0809275e-06
9.6890826e-07
-2.9214116e-06
4.0044715e-06
2.991737e-08
-3.4667533e-06
-2.2846277e-05
-4.1150708e-06
-1.7306793e-06
-9.3660959e-05
-1.1041551e-05
3.3655952e-06
-0.00021111838
-1.7788984e-05
1.0646257e-05
-0.00033814662
-2.1026951e-05
1.6475567e-05
-0.00041648747
1.6979444e-05
-0.00041586083
-1.9982788e-05
2.8811663e-08
-5.4241747e-07
3.4873477e-06
6.2339401e-07
-1.8768272e-06
9.1649375e-06
1.5865216e-06
-3.2850282e-06
5.9042145e-06
9.2004615e-07
-3.4277391e-06
-2.5978675e-05
-3.3708722e-06
-2.1829529e-07
-0.00010990653
-1.0839502e-05
7.4829783e-06
-0.00024713816
-1.8298757e-05
1.7538393e-05
-0.00039281667
-2.2340933e-05
2.5177493e-05
-0.0004814978
2.6528639e-05
-0.00048279017
-2.2207101e-05
5.8182212e-08
-6.7457551e-07
4.2282159e-06
8.9725122e-07
-2.3592832e-06
1.1257827e-05
2.3849121e-06
-4.1683631e-06
8.0384038e-06
2.2939563e-06
-4.3053408e-06
-2.8055012e-05
-1.6770399e-06
8.4389511e-08
-0.00012303673
-9.2461474e-06
1.0313116e-05
-0.00027629254
-1.7257168e-05
2.3257751e-05
-0.00043591354
-2.2196396e-05
3.299763e-05
-0.00053129412
3.5508995e-05
-0.00053326962
-2.2791716e-05
1.0136935e-07
-8.42458e-07
4.9345237e-06
1.2401968e-06
-3.0165071e-06
1.3290218e-05
3.3814413e-06
-5.49575e-06
1.0279276e-05
4.0935795e-06
-6.0008771e-06
-2.9299825e-05
7.7489476e-07
-8.3371447e-07
-0.00013352142
-6.6145865e-06
1.1630402e-05
-0.00029964607
-1.5092741e-05
2.7313352e-05
-0.00046943294
-2.094468e-05
3.9106545e-05
-0.00056859279
4.280855e-05
-0.00057007905
-2.2272017e-05
1.6419957e-07
-1.030178e-06
5.5801822e-06
1.662585e-06
-3.7734116e-06
1.5164278e-05
4.5710157e-06
-7.0906527e-06
1.24253e-05
6.2744468e-06
-8.2629551e-06
-3.005439e-05
3.791075e-06
-2.7654348e-06
-0.00014195862
-3.3565102e-06
1.1381512e-05
-0.0003183231
-1.2306497e-05
2.9144397e-05
-0.00049531687
-1.9108374e-05
4.2539249e-05
-0.00059604336
4.7245234e-05
-0.00059600725
-2.1226016e-05
2.3765554e-07
-1.2000988e-06
6.1284922e-06
2.1275469e-06
-4.4801742e-06
1.6761793e-05
5.878219e-06
-8.638456e-06
1.4288159e-05
8.6951901e-06
-1.0628137e-05
-3.0521323e-05
7.1346229e-06
-5.2895119e-06
-0.00014855297
3.5647979e-07
9.5025473e-06
-0.00033275066
-9.1017061e-06
2.8293087e-05
-0.0005145921
-1.7003551e-05
4.2525186e-05
-0.00061540352
4.7864287e-05
-0.00061330434
-2.0068668e-05
3.2209363e-07
-1.3016095e-06
6.6073662e-06
2.6347094e-06
-4.9317862e-06
1.8194318e-05
7.2885605e-06
-9.7026194e-06
1.6096176e-05
1.1342553e-05
-1.2466186e-05
-3.0393546e-05
1.083921e-05
-7.8233753e-06
-0.00015311303
4.3098173e-06
6.434047e-06
-0.00034321584
-5.8617224e-06
2.4790415e-05
-0.00052833356
-1.4993837e-05
3.8725092e-05
-0.00062852538
4.4200388e-05
-0.00062424656
-1.9084081e-05
4.1702649e-07
-1.2725304e-06
7.0229311e-06
3.1750344e-06
-4.8771219e-06
1.948666e-05
8.8010064e-06
-9.7465008e-06
1.7893776e-05
1.4077536e-05
-1.2936557e-05
-2.9642272e-05
1.4507752e-05
-9.3452702e-06
-0.00015574467
8.0514366e-06
3.0826399e-06
-0.00035016346
-2.8583881e-06
1.916223e-05
-0.00053750017
-1.3209475e-05
3.1469132e-05
-0.00063686163
3.6426357e-05
-0.00063062056
-1.8314583e-05
5.0997181e-07
-1.0535154e-06
7.3610311e-06
3.7332745e-06
-4.0662745e-06
2.0572559e-05
1.0398116e-05
-8.2183077e-06
1.951658e-05
1.6840187e-05
-1.1179484e-05
-2.8583329e-05
1.8025413e-05
-8.7907032e-06
-0.00015696591
1.1517465e-05
4.6502934e-07
-0.00035434327
-2.7989367e-07
1.254722e-05
-0.00054308313
-1.1751007e-05
2.1775278e-05
-0.00064166443
2.5547211e-05
-0.00063386338
-1.7750395e-05
5.8460988e-07
-6.1275584e-07
7.5777605e-06
4.2165915e-06
-2.3698456e-06
2.1271017e-05
1.18266e-05
-4.8162455e-06
2.057455e-05
1.9352685e-05
-6.6329388e-06
-2.7835617e-05
2.0982905e-05
-5.4221956e-06
-0.00015755293
1.4213345e-05
-4.0639939e-07
-0.0003566065
1.6723343e-06
6.1197378e-06
-0.00054598571
-1.0654462e-05
1.107613e-05
-0.000643881
1.3092441e-05
-0.0006350045
-1.7330414e-05
6.1645432e-07
-2.0465074e-11
7.7110677e-06
4.4768957e-06
-4.9809239e-11
2.1723751e-05
1.2683937e-05
-6.32693e-11
2.1325862e-05
2.0959321e-05
-1.7253288e-12
-2.7121554e-05
2.2756649e-05
1.8761836e-10
-0.00015745086
1.5774697e-05
3.9986523e-10
-0.00035736834
2.7818097e-06
4.9524528e-10
-0.00054713458
-1.0030524e-05
4.7994185e-10
-0.00064475057
4.8010076e-10
-0.00063537661
-1.709796e-05
6.1645107e-07
6.1271614e-07
7.7110664e-06
4.4769597e-06
2.36975e-06
2.1723747e-05
1.268401e-05
4.8161113e-06
2.1325857e-05
2.095936e-05
6.6328984e-06
-2.7121554e-05
2.2756645e-05
5.4224977e-06
-0.00015745085
1.5774657e-05
4.0714098e-07
-0.00035736831
2.7817541e-06
-6.1187438e-06
-0.00054713455
-1.0030589e-05
-1.1075133e-05
-0.00064475055
-1.3091448e-05
-0.00063537661
-1.709804e-05
5.8458197e-07
1.0534726e-06
7.5777593e-06
4.2166445e-06
4.066172e-06
2.1271013e-05
1.1826582e-05
8.2181526e-06
2.0574543e-05
1.9352623e-05
1.1179393e-05
-2.7835628e-05
2.0982743e-05
8.7909237e-06
-0.00015755294
1.4213093e-05
-4.6433883e-07
-0.00035660651
1.6720566e-06
-1.2546169e-05
-0.00054598572
-1.0654699e-05
-2.1774235e-05
-0.00064388102
-2.5546258e-05
-0.00063500453
-1.7330623e-05
5.0995514e-07
1.2724639e-06
7.3610281e-06
3.7332676e-06
4.8769642e-06
2.0572549e-05
1.0397963e-05
9.746296e-06
1.9516565e-05
1.6840129e-05
1.2936482e-05
-2.8583337e-05
1.8025262e-05
9.3455806e-06
-0.0001569659
1.1517174e-05
-3.0817706e-06
-0.00035434324
-2.8026898e-07
-1.916095e-05
-0.00054308309
-1.1751325e-05
-3.1468015e-05
-0.00064166441
-3.6425596e-05
-0.0006338634
-1.7750641e-05
4.1707503e-07
1.3015407e-06
7.022929e-06
3.1750587e-06
4.9316372e-06
1.9486652e-05
8.8008434e-06
9.7024488e-06
1.7893764e-05
1.4077491e-05
1.2466206e-05
-2.9642283e-05
1.4507554e-05
7.8239189e-06
-0.00015574467
8.0510833e-06
-6.4327797e-06
-0.00035016344
-2.8588766e-06
-2.4788834e-05
-0.00053750015
-1.3209858e-05
-3.8723943e-05
-0.00063686163
-4.4199888e-05
-0.00063062057
-1.8314813e-05
3.2215042e-07
1.2000156e-06
6.6073653e-06
2.6347497e-06
4.4799956e-06
1.8194313e-05
7.2883911e-06
8.6382389e-06
1.6096165e-05
1.1342347e-05
1.0628151e-05
-3.039356e-05
1.0838854e-05
5.2902711e-06
-0.00015311304
4.3093934e-06
-9.5008131e-06
-0.00034321585
-5.862352e-06
-2.8291179e-05
-0.00052833356
-1.4994269e-05
-4.2524024e-05
-0.00062852538
-4.7863978e-05
-0.00062424657
-1.908417e-05
2.3770122e-07
1.0301086e-06
6.1284918e-06
2.1275966e-06
3.7732825e-06
1.6761789e-05
5.8779502e-06
7.0905006e-06
1.4288149e-05
8.6947837e-06
8.2630837e-06
-3.0521343e-05
7.1340084e-06
2.766555e-06
-0.000148553
3.5583428e-07
-1.1379355e-05
-0.0003327507
-9.1025126e-06
-2.9142226e-05
-0.00051459214
-1.7003985e-05
-4.2538109e-05
-0.00061540355
-4.7245319e-05
-0.00061330435
-2.0068354e-05
1.6420504e-07
8.4239521e-07
5.5801826e-06
1.6625217e-06
3.0163938e-06
1.5164276e-05
4.570667e-06
5.495636e-06
1.242529e-05
6.2740181e-06
6.0011059e-06
-3.0054425e-05
3.7903033e-06
8.3493631e-07
-0.0001419587
-3.3573984e-06
-1.1628036e-05
-0.00031832321
-1.2307485e-05
-2.73109e-05
-0.00049531698
-1.9108806e-05
-3.9105491e-05
-0.00059604343
-4.2809602e-05
-0.00059600727
-2.1225207e-05
1.0138311e-07
6.7451649e-07
4.9345225e-06
1.2402329e-06
2.3591966e-06
1.3290212e-05
3.3813151e-06
4.1683408e-06
1.0279257e-05
4.0930282e-06
4.3056887e-06
-2.9299866e-05
7.7405038e-07
-8.3092564e-08
-0.00013352149
-6.6155284e-06
-1.0310536e-05
-0.00029964617
-1.5093747e-05
-2.3254994e-05
-0.00046943302
-2.0945152e-05
-3.2996722e-05
-0.00056859283
-3.5511422e-05
-0.00057007904
-2.2271024e-05
5.8163601e-08
5.4236943e-07
4.2282137e-06
8.9718007e-07
1.8767914e-06
1.1257817e-05
2.3846224e-06
3.285123e-06
8.0383789e-06
2.2932246e-06
3.4282362e-06
-2.8055061e-05
-1.6778433e-06
2.1984755e-07
-0.00012303681
-9.2470472e-06
-7.4802279e-06
-0.00027629264
-1.7257976e-05
-1.7535389e-05
-0.00043591362
-2.2197013e-05
-2.5176713e-05
-0.00053129414
-2.6532582e-05
-0.00053326961
-2.2790994e-05
2.8776707e-08
4.5688567e-07
3.4873451e-06
6.232819e-07
1.608263e-06
9.1649263e-06
1.586247e-06
2.9217045e-06
5.9041891e-06
9.1932582e-07
3.4675557e-06
-2.5978722e-05
-3.371979e-06
1.7324902e-06
-0.0001099066
-1.0840636e-05
-3.3626636e-06
-0.00024713825
-1.8299811e-05
-1.0643318e-05
-0.00039281674
-2.2341666e-05
-1.6474837e-05
-0.00048149783
-1.6983801e-05
-0.00048279018
-2.2207202e-05
7.0659588e-09
4.2748799e-07
2.7331504e-06
4.0067045e-07
1.577646e-06
7.0809227e-06
9.6865254e-07
3.0965274e-06
4.0044576e-06
2.920169e-08
4.3739569e-06
-2.2846309e-05
-4.1163656e-06
4.2873376e-06
-9.3661018e-05
-1.1043115e-05
1.758095e-06
-0.00021111847
-1.7790627e-05
-2.9050527e-06
-0.00033814671
-2.1028704e-05
-7.3052698e-06
-0.00041648754
-7.8918979e-06
-0.00041586089
-1.9984762e-05
2.1959499e-09
2.1075685e-06
4.4878432e-07
3.0338583e-07
5.564721e-06
1.7242209e-06
7.747193e-07
3.5172917e-06
3.6015937e-06
1.0187243e-07
-1.6795675e-05
5.7318964e-06
-3.2003008e-06
-7.192257e-05
7.3274265e-06
-8.9843861e-06
-0.00016551577
7.3519965e-06
-1.4824826e-05
-0.00026877867
5.3249963e-06
-1.7824813e-05
-0.00033294324
2.4127639e-06
-0.0003294524
2.1624902e-07
-1.6210388e-05
-6.1303337e-08
-2.7689301e-07
2.3192982e-06
1.2646577e-07
-4.7605636e-07
-1.2941559e-06
6.635058e-06
6.385573e-07
-1.3894619e-06
-3.4230711e-06
6.0512487e-06
1.8024773e-06
-2.4233327e-06
-7.3277442e-06
-1.2545459e-05
4.1113277e-06
-2.8275358e-06
-1.3542927e-05
-6.605294e-05
8.0774136e-06
-1.8640447e-06
-2.1986186e-05
-0.00015833326
1.3840108e-05
8.5432891e-07
-3.1506661e-05
-0.00026072156
2.0731095e-05
5.1278824e-06
-3.9825785e-05
-0.00032464326
2.7252216e-05
-4.4235955e-05
-0.00032184906
3.1842283e-05
9.9181873e-06
-7.1459409e-08
-4.3395217e-07
2.9616606e-06
-5.5425445e-07
-1.9925592e-06
8.2620821e-06
-1.5900281e-06
-5.1490488e-06
6.7661236e-06
-2.7025205e-06
-1.0690243e-05
-1.8371439e-05
-3.0706237e-06
-1.909003e-05
-8.7745942e-05
-2.0058254e-06
-2.998377e-05
-0.00020418581
7.4607646e-07
-4.1776891e-05
-0.0003306285
4.8896762e-06