/*--------------------------------*- C++ -*----------------------------------*\
| =========                 |                                                 |
| \\      /  F ield         | OpenFOAM: The Open Source CFD Toolbox           |
|  \\    /   O peration     | Version:  2406                                  |
|   \\  /    A nd           | Website:  www.openfoam.com                      |
|    \\/     M anipulation  |                                                 |
\*---------------------------------------------------------------------------*/
FoamFile
{
    version     2.0;
    format      ascii;
    arch        "LSB;label=32;scalar=64";
    class       volScalarField;
    location    "0.095";
    object      T;
}
// * * * * * * * * * * * * * * * * * * * * * * * * * * * * * * * * * * * * * //

dimensions      [0 0 0 1 0 0 0];

internalField   nonuniform List<scalar> 
12225
(
1.00694
1.00397
1.00144
1.00053
1.00001
0.99965
0.999458
0.99937
0.999324
0.999294
0.999272
0.999241
0.999183
0.999043
0.998693
0.997869
0.995626
0.99072
0.994965
0.99447
0.996349
0.997908
0.99867
0.998979
0.999136
0.99924
0.999303
0.999336
0.999347
0.99934
0.999295
0.999167
0.998832
0.998041
0.996033
0.991465
0.999592
0.99992
1
0.999967
0.999819
0.999637
0.999514
0.999449
0.999411
0.999381
0.999354
0.999321
0.99926
0.999128
0.998809
0.998076
0.99633
0.992669
1.00032
1.00007
0.999547
0.99942
0.999421
0.999388
0.999355
0.999342
0.999335
0.999327
0.999314
0.999292
0.999241
0.999124
0.998841
0.998199
0.996768
0.99394
1.00013
0.999833
0.999434
0.999387
0.999436
0.999423
0.999388
0.999365
0.999349
0.999334
0.999315
0.999288
0.999237
0.999126
0.998877
0.998335
0.997201
0.995095
0.999993
0.999846
0.999578
0.999496
0.999494
0.99946
0.999412
0.999377
0.999351
0.999328
0.999303
0.999272
0.99922
0.99912
0.998907
0.998466
0.9976
0.996078
0.999975
0.999925
0.999719
0.999592
0.999547
0.999499
0.999444
0.999399
0.999363
0.999332
0.999301
0.999264
0.999212
0.999121
0.998943
0.998598
0.997957
0.996883
0.999983
0.999963
0.999798
0.999661
0.999596
0.999539
0.999477
0.999423
0.999379
0.999339
0.999301
0.999259
0.999206
0.999123
0.998973
0.998697
0.998208
0.997417
0.999986
0.999973
0.99984
0.999706
0.999627
0.99956
0.999491
0.99943
0.999378
0.999331
0.999288
0.999242
0.999188
0.999111
0.998983
0.99876
0.998383
0.997791
0.999984
0.999963
0.999852
0.999723
0.999631
0.999554
0.999478
0.99941
0.999351
0.999298
0.999249
0.999199
0.999144
0.999074
0.998966
0.998791
0.99851
0.998082
0.99998
0.999942
0.99984
0.999715
0.999612
0.999524
0.999441
0.999366
0.9993
0.999242
0.999187
0.999135
0.99908
0.999015
0.998924
0.99879
0.998587
0.99829
0.999976
0.999921
0.999818
0.999694
0.999583
0.999486
0.999398
0.999317
0.999246
0.999181
0.999123
0.999069
0.999014
0.998954
0.998878
0.998777
0.998634
0.998435
0.999975
0.999912
0.999811
0.99969
0.999577
0.999476
0.999384
0.9993
0.999224
0.999157
0.999098
0.999042
0.998987
0.998931
0.998869
0.998792
0.998693
0.998564
0.999978
0.999919
0.999828
0.999717
0.99961
0.999512
0.999421
0.999338
0.999264
0.999197
0.999138
0.999084
0.999031
0.998981
0.99893
0.998872
0.998804
0.998723
0.999982
0.999936
0.999861
0.999769
0.999677
0.99959
0.999511
0.999438
0.99937
0.999309
0.999255
0.999207
0.999162
0.99912
0.999078
0.999035
0.99899
0.998941
0.999987
0.999957
0.999905
0.99984
0.999774
0.999712
0.999654
0.9996
0.999549
0.999503
0.999462
0.999427
0.999395
0.999365
0.999335
0.999306
0.999279
0.999251
0.999993
0.999986
0.999968
0.999941
0.999912
0.999886
0.999864
0.999841
0.99982
0.999801
0.999783
0.999768
0.999756
0.999745
0.999733
0.999721
0.99971
0.9997
1
1.00003
1.00005
1.00007
1.00009
1.00011
1.00013
1.00015
1.00017
1.00018
1.0002
1.00021
1.00022
1.00023
1.00024
1.00025
1.00025
1.00026
1.00001
1.00006
1.00011
1.00017
1.00022
1.00028
1.00034
1.00039
1.00043
1.00048
1.00051
1.00055
1.00058
1.0006
1.00063
1.00065
1.00067
1.00068
1.00001
1.00006
1.00012
1.00019
1.00026
1.00033
1.00039
1.00046
1.00052
1.00057
1.00062
1.00067
1.00071
1.00075
1.00078
1.00081
1.00084
1.00086
1.00001
1.00006
1.00012
1.00018
1.00025
1.00031
1.00038
1.00045
1.00051
1.00057
1.00062
1.00068
1.00072
1.00077
1.00081
1.00085
1.00088
1.00091
1.00001
1.00006
1.00012
1.00017
1.00023
1.0003
1.00036
1.00043
1.00049
1.00055
1.00061
1.00067
1.00072
1.00077
1.00081
1.00085
1.00089
1.00092
1
1.00008
1.00013
1.00016
1.00021
1.00027
1.00034
1.00041
1.00048
1.00054
1.0006
1.00066
1.00071
1.00076
1.00081
1.00085
1.00089
1.00093
0.999997
1.0001
1.00014
1.00015
1.00019
1.00026
1.00033
1.0004
1.00047
1.00054
1.00061
1.00067
1.00072
1.00077
1.00082
1.00086
1.00091
1.00094
1
1.00009
1.0001
1.00012
1.00019
1.00028
1.00035
1.00042
1.00049
1.00056
1.00063
1.00069
1.00074
1.00079
1.00084
1.00088
1.00093
1.00097
1.00014
1.00014
0.999953
0.999972
1.00014
1.00029
1.00039
1.00047
1.00055
1.00062
1.00068
1.00074
1.0008
1.00084
1.00089
1.00093
1.00097
1.00101
1.0005
1.00058
1.0001
0.999927
1.00003
1.00018
1.00031
1.00042
1.00053
1.00062
1.0007
1.00076
1.00082
1.00088
1.00093
1.00097
1.00102
1.00106
1.00004
1.00088
1.00115
1.00111
1.00099
1.00088
1.00081
1.0008
1.00082
1.00085
1.00088
1.00092
1.00096
1.00099
1.00103
1.00106
1.0011
1.00113
0.994517
0.993822
0.99606
0.998048
0.999185
0.99978
1.00015
1.0004
1.00059
1.00072
1.00083
1.00091
1.00098
1.00104
1.00109
1.00114
1.00118
1.00121
1.00648
1.00454
1.00223
1.0015
1.00119
1.00097
1.00088
1.00087
1.00089
1.00092
1.00096
1.00099
1.00103
1.00107
1.0011
1.00114
1.00117
1.00122
0.785343
0.785353
0.785324
0.785285
0.78525
0.785217
0.78518
0.785142
0.785105
0.785071
0.78504
0.785011
0.784983
0.784958
0.784936
0.784916
0.7849
0.784889
0.784883
0.784884
0.784892
0.784909
0.784935
0.784972
0.785021
0.785082
0.785155
0.785239
0.78533
0.785432
0.785556
0.785733
0.786041
0.786615
0.787193
0.787576
0.787967
0.788313
0.788636
0.788944
0.789208
0.789521
0.789925
0.790291
0.790687
0.791162
0.791644
0.792145
0.792664
0.793199
0.793748
0.79431
0.794883
0.795467
0.79606
0.796662
0.797272
0.797889
0.798511
0.79914
0.799772
0.800408
0.801048
0.80169
0.802333
0.802978
0.803623
0.804268
0.804912
0.805556
0.806197
0.806837
0.807473
0.808107
0.808738
0.809365
0.809988
0.810606
0.81122
0.811829
0.812433
0.813031
0.813624
0.814212
0.814793
0.815369
0.815938
0.816501
0.817059
0.81761
0.818155
0.818694
0.819226
0.819751
0.820269
0.82078
0.82128
0.82177
0.822256
0.822738
0.823212
0.82368
0.82414
0.824592
0.825037
0.825474
0.825903
0.826325
0.826738
0.827144
0.827542
0.827931
0.828313
0.828687
0.829052
0.829409
0.829759
0.830099
0.830431
0.830754
0.831069
0.831374
0.83167
0.831956
0.832231
0.832497
0.832753
0.833
0.833236
0.833463
0.833681
0.833889
0.834087
0.834275
0.834454
0.834623
0.834782
0.834932
0.835072
0.835203
0.835324
0.835435
0.835536
0.835626
0.835704
0.835771
0.835827
0.835872
0.835905
0.835926
0.835936
0.835934
0.83592
0.835894
0.835856
0.835807
0.835746
0.835673
0.835589
0.835492
0.835383
0.835259
0.835113
0.834932
0.834718
0.83449
0.834251
0.834004
0.833748
0.833484
0.833211
0.832927
0.832633
0.832326
0.832005
0.831661
0.831314
0.830833
0.830609
0.829004
0.785893
0.785891
0.785891
0.785881
0.785871
0.785861
0.785849
0.785832
0.78581
0.785782
0.785751
0.785717
0.785685
0.785655
0.785628
0.785607
0.78559
0.785581
0.785579
0.785587
0.785606
0.785637
0.785683
0.785748
0.785835
0.785947
0.78609
0.786269
0.786486
0.786744
0.787032
0.787331
0.787619
0.787702
0.787671
0.787815
0.788044
0.788349
0.78871
0.789099
0.789533
0.78997
0.79036
0.790801
0.791293
0.791766
0.792247
0.792742
0.793253
0.793779
0.794319
0.794873
0.795439
0.796015
0.796601
0.797196
0.797799
0.798409
0.799025
0.799647
0.800272
0.800902
0.801536
0.802171
0.802808
0.803447
0.804085
0.804724
0.805362
0.805999
0.806634
0.807267
0.807897
0.808525
0.809149
0.80977
0.810386
0.810998
0.811605
0.812208
0.812805
0.813397
0.813983
0.814563
0.815138
0.815706
0.816269
0.816825
0.817374
0.817917
0.818454
0.818984
0.819507
0.820024
0.820533
0.821037
0.821535
0.822028
0.822513
0.822988
0.823454
0.823913
0.824364
0.824807
0.825243
0.82567
0.826089
0.826501
0.826904
0.827299
0.827687
0.828066
0.828437
0.828799
0.829154
0.8295
0.829837
0.830166
0.830486
0.830798
0.8311
0.831393
0.831676
0.831949
0.832212
0.832465
0.832708
0.832941
0.833164
0.833378
0.833582
0.833776
0.83396
0.834134
0.834298
0.834452
0.834597
0.834731
0.834856
0.834971
0.835076
0.835171
0.835256
0.835329
0.83539
0.83544
0.835479
0.835506
0.835521
0.835524
0.835515
0.835493
0.83546
0.835415
0.835357
0.835288
0.835206
0.835112
0.835005
0.834887
0.834754
0.834608
0.83445
0.834284
0.834107
0.833917
0.833714
0.833501
0.833277
0.833043
0.832798
0.832541
0.832274
0.831993
0.831699
0.831385
0.831065
0.830642
0.830378
0.829242
0.787103
0.787052
0.787032
0.787017
0.787003
0.786983
0.786958
0.786927
0.786893
0.786855
0.786815
0.786774
0.786734
0.786696
0.786661
0.786632
0.786607
0.78659
0.786582
0.786583
0.786596
0.786621
0.786662
0.786718
0.786794
0.786888
0.787002
0.787133
0.78728
0.78744
0.78761
0.787794
0.787998
0.788202
0.788407
0.788641
0.788897
0.789182
0.789501
0.789854
0.790246
0.790675
0.791124
0.791589
0.792061
0.792536
0.793021
0.793519
0.79403
0.794554
0.79509
0.795639
0.796199
0.79677
0.79735
0.797939
0.798536
0.79914
0.79975
0.800366
0.800986
0.801611
0.802239
0.802869
0.803501
0.804135
0.804769
0.805404
0.806038
0.806671
0.807302
0.807932
0.808559
0.809183
0.809805
0.810423
0.811036
0.811646
0.812251
0.812852
0.813447
0.814037
0.814622
0.815201
0.815775
0.816342
0.816904
0.817459
0.818008
0.818551
0.819087
0.819617
0.820141
0.820657
0.821167
0.821669
0.822164
0.822652
0.823133
0.823607
0.824073
0.824532
0.824983
0.825426
0.825861
0.826288
0.826708
0.827119
0.827522
0.827918
0.828305
0.828684
0.829054
0.829417
0.829771
0.830116
0.830453
0.830781
0.831101
0.831411
0.831713
0.832005
0.832287
0.832558
0.83282
0.833071
0.833313
0.833544
0.833766
0.833977
0.834179
0.834371
0.834552
0.834724
0.834885
0.835036
0.835177
0.835309
0.83543
0.835541
0.835642
0.835732
0.835812
0.83588
0.835936
0.835981
0.836014
0.836034
0.836043
0.83604
0.836024
0.835996
0.835956
0.835903
0.835838
0.83576
0.83567
0.835568
0.835453
0.835326
0.835187
0.835035
0.834873
0.834707
0.834533
0.834348
0.834152
0.833944
0.833725
0.833496
0.833255
0.833004
0.83274
0.832463
0.832172
0.831861
0.831538
0.831127
0.830829
0.829972
0.7889
0.788802
0.788753
0.788725
0.788696
0.78866
0.788619
0.788573
0.788524
0.788473
0.788421
0.788368
0.788317
0.788268
0.788223
0.788182
0.788148
0.788121
0.788102
0.788094
0.788097
0.788112
0.788142
0.788187
0.788247
0.788325
0.788419
0.788529
0.788655
0.788798
0.78896
0.789143
0.789346
0.78956
0.789787
0.790037
0.790308
0.790601
0.790915
0.791252
0.791613
0.791997
0.792402
0.792828
0.793272
0.793729
0.794202
0.794689
0.795189
0.795702
0.796228
0.796766
0.797315
0.797874
0.798443
0.799021
0.799607
0.8002
0.8008
0.801405
0.802016
0.802631
0.803249
0.803871
0.804494
0.80512
0.805746
0.806373
0.807
0.807626
0.808251
0.808875
0.809497
0.810116
0.810733
0.811347
0.811957
0.812563
0.813165
0.813763
0.814357
0.814945
0.815528
0.816106
0.816679
0.817246
0.817808
0.818363
0.818913
0.819457
0.819994
0.820526
0.821051
0.821569
0.822081
0.822586
0.823084
0.823575
0.824059
0.824535
0.825005
0.825466
0.82592
0.826367
0.826806
0.827237
0.827659
0.828075
0.828482
0.828881
0.829272
0.829655
0.830029
0.830396
0.830754
0.831103
0.831444
0.831776
0.8321
0.832414
0.832719
0.833014
0.8333
0.833574
0.833839
0.834094
0.834338
0.834573
0.834797
0.835011
0.835215
0.835409
0.835593
0.835766
0.835929
0.836081
0.836224
0.836356
0.836478
0.836589
0.83669
0.83678
0.836859
0.836926
0.836981
0.837025
0.837056
0.837075
0.837081
0.837075
0.837057
0.837026
0.836983
0.836927
0.836858
0.836777
0.836684
0.836578
0.83646
0.836329
0.836186
0.836032
0.835867
0.835695
0.835515
0.835324
0.835122
0.834909
0.834685
0.834451
0.834206
0.833949
0.833681
0.833399
0.833102
0.832784
0.832449
0.832036
0.831713
0.830985
0.791242
0.7911
0.791027
0.790987
0.790946
0.790896
0.79084
0.790778
0.790714
0.790646
0.790578
0.790509
0.790442
0.790377
0.790316
0.79026
0.79021
0.790167
0.790133
0.790109
0.790096
0.790096
0.790108
0.790135
0.790177
0.790236
0.790311
0.790403
0.790513
0.790643
0.790792
0.790961
0.791149
0.791352
0.791573
0.791814
0.792077
0.792361
0.792665
0.79299
0.793335
0.793701
0.794086
0.79449
0.794912
0.795351
0.795806
0.796276
0.79676
0.797257
0.797768
0.79829
0.798824
0.799369
0.799923
0.800486
0.801058
0.801637
0.802223
0.802815
0.803413
0.804015
0.804621
0.805231
0.805844
0.806459
0.807075
0.807692
0.80831
0.808927
0.809544
0.81016
0.810775
0.811388
0.811998
0.812606
0.813212
0.813813
0.814411
0.815006
0.815596
0.816182
0.816763
0.817339
0.817911
0.818477
0.819038
0.819593
0.820143
0.820687
0.821226
0.821758
0.822285
0.822805
0.823318
0.823826
0.824326
0.82482
0.825307
0.825787
0.826259
0.826725
0.827182
0.827633
0.828076
0.828511
0.828938
0.829357
0.829769
0.830173
0.830569
0.830956
0.831335
0.831707
0.832069
0.832423
0.832769
0.833106
0.833433
0.833752
0.834061
0.834361
0.83465
0.834929
0.835198
0.835456
0.835704
0.835942
0.836169
0.836387
0.836593
0.83679
0.836975
0.83715
0.837315
0.837469
0.837613
0.837746
0.837868
0.83798
0.838081
0.83817
0.838248
0.838314
0.838368
0.83841
0.838439
0.838455
0.838459
0.838451
0.83843
0.838395
0.838349
0.838289
0.838217
0.838131
0.838034
0.837923
0.8378
0.837665
0.837518
0.837359
0.837189
0.83701
0.836822
0.836624
0.836415
0.836196
0.835965
0.835725
0.835473
0.83521
0.834936
0.834647
0.834344
0.834018
0.833673
0.833256
0.832922
0.832236
0.79413
0.793957
0.793866
0.793816
0.793763
0.793699
0.793627
0.793549
0.793467
0.793381
0.793294
0.793207
0.793121
0.793037
0.792957
0.792881
0.792812
0.79275
0.792697
0.792654
0.792621
0.792601
0.792594
0.792601
0.792623
0.792661
0.792717
0.792791
0.792883
0.792995
0.793126
0.793277
0.793447
0.793634
0.79384
0.794067
0.794313
0.79458
0.794868
0.795176
0.795504
0.795851
0.796218
0.796603
0.797005
0.797424
0.797858
0.798308
0.798772
0.79925
0.799741
0.800244
0.800759
0.801284
0.80182
0.802365
0.802918
0.803479
0.804048
0.804624
0.805205
0.805791
0.806382
0.806977
0.807575
0.808176
0.808779
0.809383
0.809989
0.810595
0.811201
0.811807
0.812412
0.813016
0.813618
0.814218
0.814816
0.815411
0.816003
0.816592
0.817178
0.817759
0.818336
0.81891
0.819478
0.820042
0.820601
0.821155
0.821704
0.822248
0.822787
0.823319
0.823847
0.824368
0.824882
0.825391
0.825894
0.82639
0.826879
0.827362
0.827837
0.828306
0.828767
0.829221
0.829667
0.830106
0.830538
0.830962
0.831378
0.831786
0.832186
0.832578
0.832962
0.833338
0.833705
0.834064
0.834414
0.834755
0.835087
0.83541
0.835723
0.836027
0.83632
0.836603
0.836875
0.837137
0.837388
0.837629
0.83786
0.83808
0.838289
0.838487
0.838674
0.838851
0.839017
0.839172
0.839316
0.839449
0.839572
0.839683
0.839783
0.839871
0.839948
0.840012
0.840063
0.840102
0.840128
0.840141
0.840142
0.840129
0.840104
0.840065
0.840014
0.839949
0.839871
0.839781
0.839677
0.839561
0.839432
0.839291
0.839137
0.838972
0.838796
0.83861
0.838415
0.838209
0.837992
0.837765
0.837528
0.83728
0.837021
0.836752
0.836471
0.836176
0.835865
0.835532
0.835179
0.834758
0.834416
0.833728
0.797579
0.79739
0.797287
0.797226
0.79716
0.797082
0.796994
0.796898
0.796798
0.796693
0.796586
0.796478
0.796371
0.796266
0.796164
0.796067
0.795976
0.795892
0.795817
0.795752
0.795698
0.795655
0.795627
0.795612
0.795613
0.79563
0.795665
0.795718
0.79579
0.795881
0.795991
0.796121
0.79627
0.796437
0.796624
0.796831
0.797058
0.797304
0.797571
0.797858
0.798164
0.79849
0.798833
0.799195
0.799574
0.799969
0.80038
0.800806
0.801246
0.8017
0.802167
0.802647
0.803138
0.803641
0.804154
0.804676
0.805208
0.805747
0.806295
0.806849
0.80741
0.807977
0.808548
0.809125
0.809705
0.810288
0.810875
0.811463
0.812054
0.812645
0.813237
0.81383
0.814423
0.815015
0.815606
0.816196
0.816784
0.81737
0.817954
0.818535
0.819113
0.819688
0.82026
0.820828
0.821392
0.821952
0.822507
0.823058
0.823605
0.824146
0.824683
0.825215
0.825741
0.826262
0.826777
0.827286
0.82779
0.828287
0.828778
0.829262
0.82974
0.830211
0.830675
0.831131
0.831581
0.832023
0.832458
0.832886
0.833305
0.833717
0.834122
0.834518
0.834906
0.835285
0.835657
0.83602
0.836374
0.836719
0.837055
0.837382
0.837699
0.838006
0.838303
0.838589
0.838865
0.83913
0.839384
0.839628
0.839861
0.840082
0.840293
0.840493
0.840682
0.84086
0.841026
0.841181
0.841326
0.841459
0.84158
0.84169
0.841789
0.841875
0.841949
0.84201
0.842058
0.842094
0.842116
0.842125
0.842121
0.842104
0.842073
0.842029
0.841972
0.841901
0.841817
0.84172
0.841609
0.841486
0.84135
0.841202
0.841041
0.840868
0.840685
0.840491
0.840286
0.840072
0.839847
0.839612
0.839366
0.83911
0.838844
0.838567
0.838279
0.837976
0.837658
0.837318
0.836957
0.836531
0.83618
0.83547
0.801618
0.801422
0.80131
0.801237
0.801158
0.801065
0.80096
0.800847
0.800727
0.800602
0.800474
0.800344
0.800214
0.800086
0.799961
0.79984
0.799726
0.799618
0.79952
0.799431
0.799353
0.799287
0.799235
0.799198
0.799176
0.79917
0.799182
0.799212
0.79926
0.799327
0.799414
0.79952
0.799645
0.799789
0.799952
0.800135
0.800338
0.800561
0.800803
0.801064
0.801345
0.801644
0.801961
0.802296
0.802647
0.803015
0.803398
0.803796
0.804208
0.804634
0.805074
0.805526
0.80599
0.806465
0.80695
0.807446
0.807951
0.808465
0.808987
0.809517
0.810053
0.810596
0.811145
0.811699
0.812257
0.812819
0.813385
0.813954
0.814525
0.815099
0.815673
0.816249
0.816826
0.817403
0.81798
0.818556
0.819131
0.819705
0.820278
0.820848
0.821416
0.821982
0.822546
0.823106
0.823662
0.824216
0.824765
0.825311
0.825853
0.82639
0.826923
0.827452
0.827975
0.828494
0.829008
0.829515
0.830018
0.830515
0.831005
0.83149
0.831968
0.83244
0.832905
0.833364
0.833815
0.834259
0.834697
0.835126
0.835549
0.835964
0.836371
0.83677
0.837161
0.837544
0.837918
0.838284
0.838642
0.83899
0.83933
0.83966
0.83998
0.840289
0.840589
0.840878
0.841156
0.841423
0.84168
0.841926
0.84216
0.842383
0.842596
0.842796
0.842986
0.843163
0.84333
0.843485
0.843628
0.84376
0.84388
0.843988
0.844084
0.844168
0.844238
0.844296
0.84434
0.844371
0.844389
0.844393
0.844383
0.84436
0.844323
0.844273
0.844209
0.844131
0.84404
0.843935
0.843817
0.843686
0.843542
0.843385
0.843216
0.843035
0.842843
0.84264
0.842426
0.842202
0.841968
0.841724
0.841469
0.841204
0.84093
0.840645
0.840348
0.840038
0.839713
0.839365
0.838997
0.838565
0.838203
0.837464
0.806279
0.80608
0.80596
0.805875
0.805783
0.805674
0.805552
0.80542
0.80528
0.805134
0.804983
0.804831
0.804678
0.804525
0.804376
0.80423
0.804091
0.803959
0.803835
0.803721
0.803618
0.803527
0.80345
0.803388
0.803341
0.80331
0.803296
0.803301
0.803323
0.803364
0.803425
0.803504
0.803602
0.803719
0.803855
0.804011
0.804186
0.80438
0.804593
0.804825
0.805076
0.805345
0.805631
0.805934
0.806254
0.80659
0.806941
0.807307
0.807687
0.808081
0.808489
0.808908
0.80934
0.809783
0.810238
0.810702
0.811177
0.81166
0.812152
0.812653
0.81316
0.813675
0.814196
0.814723
0.815255
0.815792
0.816333
0.816878
0.817426
0.817977
0.81853
0.819086
0.819642
0.8202
0.820759
0.821318
0.821876
0.822434
0.822992
0.823548
0.824103
0.824656
0.825207
0.825756
0.826303
0.826846
0.827387
0.827924
0.828458
0.828989
0.829515
0.830038
0.830556
0.83107
0.831579
0.832083
0.832582
0.833076
0.833564
0.834047
0.834524
0.834994
0.835459
0.835917
0.836368
0.836812
0.83725
0.83768
0.838103
0.838519
0.838928
0.839328
0.839721
0.840105
0.840482
0.840849
0.841209
0.841559
0.8419
0.842232
0.842554
0.842865
0.843166
0.843456
0.843736
0.844005
0.844262
0.844509
0.844744
0.844967
0.84518
0.84538
0.845569
0.845746
0.845911
0.846065
0.846207
0.846336
0.846454
0.846559
0.846652
0.846732
0.846798
0.846851
0.846891
0.846917
0.846928
0.846926
0.846911
0.846881
0.846837
0.846779
0.846708
0.846622
0.846522
0.846409
0.846283
0.846143
0.84599
0.845824
0.845646
0.845455
0.845253
0.84504
0.844816
0.844582
0.844338
0.844084
0.84382
0.843546
0.843262
0.842968
0.842663
0.842345
0.842012
0.841658
0.841284
0.840844
0.840473
0.839703
0.811595
0.811395
0.811267
0.81117
0.811062
0.810937
0.810797
0.810646
0.810486
0.810318
0.810145
0.809969
0.809791
0.809614
0.809439
0.809268
0.809103
0.808944
0.808794
0.808653
0.808524
0.808407
0.808303
0.808213
0.808139
0.808081
0.80804
0.808017
0.808011
0.808024
0.808055
0.808104
0.808172
0.808259
0.808365
0.808489
0.808633
0.808794
0.808975
0.809173
0.80939
0.809624
0.809875
0.810143
0.810427
0.810726
0.811041
0.81137
0.811714
0.812071
0.812441
0.812824
0.813219
0.813626
0.814044
0.814473
0.814912
0.81536
0.815817
0.816283
0.816757
0.817239
0.817728
0.818223
0.818724
0.81923
0.819742
0.820258
0.820779
0.821302
0.82183
0.822359
0.822892
0.823426
0.823962
0.824498
0.825036
0.825574
0.826112
0.82665
0.827187
0.827724
0.828259
0.828793
0.829325
0.829854
0.830382
0.830907
0.83143
0.831949
0.832466
0.832979
0.833488
0.833994
0.834496
0.834993
0.835485
0.835973
0.836456
0.836934
0.837406
0.837873
0.838334
0.838788
0.839237
0.839679
0.840114
0.840543
0.840964
0.841379
0.841786
0.842186
0.842577
0.842961
0.843337
0.843705
0.844064
0.844414
0.844755
0.845087
0.845408
0.84572
0.84602
0.846311
0.84659
0.846858
0.847115
0.847361
0.847595
0.847818
0.848029
0.848228
0.848415
0.84859
0.848753
0.848904
0.849043
0.849169
0.849283
0.849384
0.849473
0.849547
0.849609
0.849656
0.84969
0.849709
0.849715
0.849706
0.849683
0.849645
0.849594
0.849528
0.849447
0.849353
0.849245
0.849122
0.848986
0.848837
0.848674
0.848498
0.84831
0.848109
0.847897
0.847673
0.847439
0.847194
0.846939
0.846675
0.8464
0.846116
0.845823
0.84552
0.845206
0.84488
0.84454
0.844179
0.843799
0.843354
0.842973
0.842175
0.817601
0.817402
0.817266
0.817154
0.817031
0.816889
0.816731
0.816559
0.816378
0.816188
0.815991
0.815791
0.815588
0.815385
0.815184
0.814986
0.814794
0.814608
0.81443
0.814262
0.814104
0.813959
0.813827
0.813709
0.813606
0.813518
0.813448
0.813394
0.813357
0.813338
0.813337
0.813354
0.813389
0.813443
0.813514
0.813604
0.813711
0.813837
0.81398
0.814141
0.814319
0.814514
0.814725
0.814953
0.815197
0.815455
0.815729
0.816017
0.816318
0.816634
0.816962
0.817304
0.817657
0.818022
0.818399
0.818786
0.819184
0.819592
0.82001
0.820436
0.820871
0.821315
0.821765
0.822224
0.822688
0.823159
0.823636
0.824118
0.824605
0.825097
0.825593
0.826092
0.826594
0.8271
0.827607
0.828117
0.828629
0.829141
0.829655
0.830169
0.830684
0.831199
0.831713
0.832227
0.83274
0.833251
0.833761
0.83427
0.834776
0.835281
0.835783
0.836282
0.836779
0.837272
0.837762
0.838248
0.83873
0.839208
0.839682
0.840151
0.840615
0.841074
0.841527
0.841975
0.842418
0.842854
0.843284
0.843707
0.844124
0.844535
0.844938
0.845333
0.845722
0.846103
0.846475
0.84684
0.847196
0.847544
0.847882
0.848211
0.84853
0.848839
0.849138
0.849426
0.849703
0.849969
0.850223
0.850467
0.850698
0.850918
0.851126
0.851322
0.851505
0.851677
0.851836
0.851982
0.852117
0.852238
0.852347
0.852443
0.852525
0.852594
0.852649
0.85269
0.852716
0.852729
0.852726
0.852709
0.852678
0.852632
0.852572
0.852497
0.852407
0.852303
0.852185
0.852053
0.851907
0.851747
0.851573
0.851387
0.851188
0.850976
0.850753
0.850519
0.850273
0.850017
0.849752
0.849476
0.849191
0.848897
0.848594
0.848282
0.847959
0.847626
0.847279
0.846912
0.846527
0.846076
0.845687
0.844866
0.824336
0.824138
0.823993
0.823867
0.823727
0.823566
0.823388
0.823196
0.822992
0.822779
0.822558
0.822332
0.822103
0.821873
0.821645
0.821419
0.821198
0.820984
0.820777
0.82058
0.820393
0.820218
0.820056
0.819907
0.819773
0.819654
0.819551
0.819465
0.819395
0.819342
0.819306
0.819287
0.819286
0.819302
0.819335
0.819386
0.819454
0.819539
0.819641
0.81976
0.819895
0.820046
0.820214
0.820397
0.820595
0.820808
0.821035
0.821276
0.821531
0.8218
0.822081
0.822376
0.822682
0.823
0.82333
0.823671
0.824022
0.824384
0.824756
0.825138
0.825528
0.825927
0.826335
0.82675
0.827172
0.827602
0.828038
0.82848
0.828928
0.829382
0.82984
0.830303
0.830769
0.83124
0.831714
0.832191
0.83267
0.833152
0.833635
0.834121
0.834607
0.835094
0.835582
0.83607
0.836558
0.837046
0.837534
0.83802
0.838505
0.838989
0.839472
0.839952
0.840431
0.840907
0.84138
0.84185
0.842317
0.842781
0.843241
0.843697
0.844148
0.844595
0.845037
0.845475
0.845906
0.846333
0.846754
0.847168
0.847577
0.847979
0.848374
0.848763
0.849144
0.849518
0.849885
0.850243
0.850594
0.850936
0.851268
0.851592
0.851906
0.852209
0.852503
0.852786
0.853058
0.853319
0.853569
0.853807
0.854034
0.854249
0.854451
0.854642
0.85482
0.854986
0.855139
0.85528
0.855408
0.855523
0.855626
0.855714
0.855789
0.855851
0.855898
0.85593
0.855949
0.855952
0.855941
0.855915
0.855875
0.855819
0.855749
0.855664
0.855565
0.85545
0.855321
0.855179
0.855022
0.854851
0.854666
0.854469
0.854258
0.854036
0.853801
0.853555
0.853298
0.853031
0.852754
0.852468
0.852172
0.851868
0.851555
0.851234
0.850903
0.850562
0.850209
0.849837
0.849448
0.848993
0.848599
0.847758
0.831844
0.831646
0.831491
0.831348
0.831189
0.831009
0.830809
0.830595
0.830367
0.830128
0.829881
0.829629
0.829372
0.829114
0.828857
0.828602
0.828352
0.828107
0.82787
0.827642
0.827424
0.827218
0.827023
0.826842
0.826675
0.826522
0.826385
0.826263
0.826157
0.826066
0.825993
0.825935
0.825894
0.825869
0.825861
0.825869
0.825893
0.825933
0.82599
0.826062
0.826149
0.826252
0.82637
0.826504
0.826651
0.826813
0.826989
0.827178
0.827381
0.827597
0.827826
0.828068
0.828321
0.828587
0.828864
0.829152
0.829451
0.829761
0.830081
0.830411
0.830751
0.8311
0.831457
0.831823
0.832198
0.832579
0.832968
0.833364
0.833767
0.834175
0.834589
0.835009
0.835434
0.835863
0.836296
0.836734
0.837175
0.837619
0.838066
0.838515
0.838967
0.839421
0.839876
0.840332
0.84079
0.841248
0.841706
0.842164
0.842622
0.84308
0.843537
0.843993
0.844447
0.8449
0.845352
0.845801
0.846247
0.846691
0.847132
0.847569
0.848003
0.848433
0.848859
0.849281
0.849698
0.85011
0.850516
0.850918
0.851313
0.851703
0.852087
0.852464
0.852834
0.853197
0.853554
0.853902
0.854243
0.854576
0.854899
0.855214
0.855519
0.855814
0.8561
0.856375
0.856639
0.856892
0.857134
0.857365
0.857584
0.857791
0.857986
0.858169
0.85834
0.858497
0.858643
0.858776
0.858896
0.859003
0.859096
0.859176
0.859243
0.859295
0.859333
0.859356
0.859365
0.859358
0.859337
0.859301
0.85925
0.859185
0.859104
0.859008
0.858897
0.858772
0.858632
0.858477
0.858309
0.858127
0.857931
0.857722
0.8575
0.857265
0.857019
0.856762
0.856493
0.856215
0.855926
0.855629
0.855323
0.855009
0.854686
0.854356
0.854017
0.853669
0.85331
0.852935
0.852543
0.852087
0.851689
0.850836
0.84017
0.839971
0.839804
0.839643
0.839463
0.83926
0.839037
0.838797
0.838542
0.838276
0.838
0.837718
0.837432
0.837144
0.836855
0.836569
0.836287
0.836011
0.835741
0.835481
0.83523
0.83499
0.834761
0.834546
0.834343
0.834154
0.833979
0.833819
0.833674
0.833544
0.833429
0.833329
0.833244
0.833174
0.83312
0.833081
0.833057
0.833048
0.833054
0.833074
0.833109
0.833159
0.833223
0.833301
0.833392
0.833498
0.833616
0.833748
0.833893
0.834051
0.834221
0.834403
0.834598
0.834804
0.835022
0.835252
0.835492
0.835744
0.836005
0.836278
0.83656
0.836851
0.837153
0.837463
0.837781
0.838108
0.838443
0.838786
0.839136
0.839492
0.839856
0.840225
0.8406
0.840981
0.841367
0.841758
0.842154
0.842553
0.842956
0.843363
0.843773
0.844186
0.844602
0.845019
0.845439
0.84586
0.846282
0.846706
0.84713
0.847555
0.84798
0.848405
0.848829
0.849253
0.849676
0.850097
0.850517
0.850936
0.851351
0.851765
0.852175
0.852583
0.852987
0.853387
0.853784
0.854176
0.854564
0.854946
0.855324
0.855697
0.856064
0.856425
0.856779
0.857128
0.857469
0.857804
0.858131
0.858449
0.85876
0.859062
0.859355
0.859638
0.859911
0.860175
0.860428
0.86067
0.860901
0.861121
0.86133
0.861527
0.861711
0.861884
0.862044
0.862191
0.862327
0.862449
0.862559
0.862655
0.862738
0.862808
0.862863
0.862905
0.862932
0.862944
0.862942
0.862924
0.862892
0.862844
0.862782
0.862705
0.862612
0.862504
0.862382
0.862245
0.862093
0.861927
0.861746
0.861552
0.861344
0.861123
0.860889
0.860643
0.860385
0.860116
0.859836
0.859546
0.859247
0.858939
0.858623
0.858298
0.857967
0.857628
0.857282
0.856928
0.856565
0.856186
0.855794
0.855338
0.85494
0.85408
0.84937
0.849165
0.848983
0.8488
0.848595
0.848366
0.848115
0.847845
0.84756
0.847261
0.846953
0.846638
0.846318
0.845995
0.845673
0.845352
0.845036
0.844725
0.844421
0.844126
0.843839
0.843564
0.843299
0.843046
0.842805
0.842578
0.842363
0.842162
0.841974
0.8418
0.84164
0.841494
0.841362
0.841243
0.841139
0.841048
0.840971
0.840907
0.840858
0.840821
0.840798
0.840788
0.840792
0.840809
0.840838
0.840881
0.840936
0.841004
0.841085
0.841178
0.841283
0.8414
0.841529
0.84167
0.841822
0.841986
0.842161
0.842346
0.842543
0.84275
0.842968
0.843195
0.843433
0.843679
0.843935
0.8442
0.844474
0.844756
0.845045
0.845343
0.845647
0.845959
0.846278
0.846603
0.846934
0.84727
0.847612
0.84796
0.848312
0.848668
0.849029
0.849394
0.849762
0.850133
0.850508
0.850885
0.851264
0.851645
0.852028
0.852413
0.852799
0.853186
0.853573
0.853961
0.854349
0.854736
0.855123
0.855508
0.855893
0.856276
0.856657
0.857035
0.857411
0.857785
0.858155
0.858522
0.858885
0.859244
0.859598
0.859948
0.860293
0.860633
0.860967
0.861295
0.861617
0.861933
0.862241
0.862542
0.862835
0.86312
0.863396
0.863663
0.863921
0.864169
0.864407
0.864635
0.864852
0.865058
0.865252
0.865435
0.865606
0.865765
0.865912
0.866047
0.866169
0.866279
0.866376
0.86646
0.86653
0.866587
0.86663
0.866658
0.866673
0.866672
0.866657
0.866627
0.866582
0.866522
0.866447
0.866357
0.866252
0.866132
0.865997
0.865847
0.865682
0.865504
0.865311
0.865104
0.864884
0.864651
0.864405
0.864147
0.863877
0.863596
0.863305
0.863004
0.862694
0.862376
0.86205
0.861716
0.861376
0.86103
0.860677
0.860318
0.859951
0.859571
0.859179
0.858727
0.858332
0.857473
0.859535
0.85932
0.859118
0.858907
0.858671
0.858407
0.858118
0.857809
0.857483
0.857143
0.856793
0.856435
0.856073
0.85571
0.855347
0.854986
0.85463
0.854279
0.853936
0.853602
0.853276
0.852961
0.852656
0.852363
0.852081
0.85181
0.851552
0.851306
0.851072
0.850851
0.850642
0.850445
0.85026
0.850088
0.849927
0.849779
0.849643
0.849519
0.849407
0.849307
0.849219
0.849143
0.84908
0.849028
0.848989
0.848962
0.848946
0.848943
0.848952
0.848973
0.849005
0.849049
0.849105
0.849172
0.849251
0.849341
0.849443
0.849555
0.849679
0.849813
0.849958
0.850114
0.850279