/*--------------------------------*- C++ -*----------------------------------*\
| =========                 |                                                 |
| \\      /  F ield         | OpenFOAM: The Open Source CFD Toolbox           |
|  \\    /   O peration     | Version:  3.0.x                                 |
|   \\  /    A nd           | Web:      www.OpenFOAM.org                      |
|    \\/     M anipulation  |                                                 |
\*---------------------------------------------------------------------------*/
FoamFile
{
    version     2.0;
    format      ascii;
    class       volScalarField;
    location    "0";
    object      T;
}
// * * * * * * * * * * * * * * * * * * * * * * * * * * * * * * * * * * * * * //

dimensions      [0 0 -1 0 0 0 0];

internalField   nonuniform List<scalar> 
100
(
14.1319
42.2704
70.0336
97.1752
123.454
148.638
172.502
194.834
215.438
234.129
250.742
265.13
277.164
286.738
293.767
298.188
299.963
299.075
295.533
289.367
280.633
269.408
255.792
239.905
221.889
201.904
180.126
156.749
131.982
106.042
79.1618
51.5786
23.5376
-4.7123
-32.9204
-60.8363
-88.2122
-114.805
-140.379
-164.707
-187.573
-208.774
-228.122
-245.445
-260.59
-273.421
-283.826
-291.711
-297.007
-299.667
-299.667
-297.007
-291.711
-283.826
-273.421
-260.589
-245.445
-228.122
-208.774
-187.573
-164.707
-140.379
-114.805
-88.2119
-60.836
-32.9201
-4.71199
23.5379
51.5789
79.1621
106.043
131.982
156.75
180.126
201.904
221.889
239.906
255.792
269.408
280.633
289.367
295.533
299.075
299.963
298.188
293.767
286.738
277.164
265.13
250.742
234.129
215.438
194.834
172.501
148.637
123.454
97.1749
70.0333
42.2701
14.1316
)
;

boundaryField
{
    xmin
    {
        type            fixedValue;
        value           uniform 0;
    }
    xmax
    {
        type            fixedValue;
        value           uniform 0;
    }
    frontAndBack
    {
        type            empty;
    }
}


// ************************************************************************* //
