/*--------------------------------*- C++ -*----------------------------------*\
  =========                 |
  \\      /  F ield         | OpenFOAM: The Open Source CFD Toolbox
   \\    /   O peration     | Website:  https://openfoam.org
    \\  /    A nd           | Version:  10
     \\/     M anipulation  |
\*---------------------------------------------------------------------------*/
FoamFile
{
    format      ascii;
    class       volScalarField;
    location    "0.5";
    object      T;
}
// * * * * * * * * * * * * * * * * * * * * * * * * * * * * * * * * * * * * * //

dimensions      [0 0 -1 0 0 0 0];

internalField   nonuniform List<scalar> 
100
(
0.0639999
0.189731
0.308741
0.416814
0.510121
0.585356
0.639855
0.671687
0.679724
0.663681
0.624127
0.562463
0.480874
0.382249
0.270083
0.148349
0.0213603
-0.106386
-0.230363
-0.346179
-0.449732
-0.537353
-0.605938
-0.653057
-0.677041
-0.677041
-0.653056
-0.605937
-0.537352
-0.44973
-0.346177
-0.230361
-0.106383
0.0213625
0.148352
0.270085
0.382251
0.480875
0.562464
0.624127
0.663681
0.679723
0.671686
0.639854
0.585355
0.510119
0.416812
0.30874
0.18973
0.0639985
-0.0639999
-0.189731
-0.308741
-0.416813
-0.51012
-0.585355
-0.639854
-0.671686
-0.679723
-0.66368
-0.624127
-0.562463
-0.480874
-0.38225
-0.270084
-0.14835
-0.021361
0.106385
0.230362
0.346179
0.449732
0.537353
0.605937
0.653057
0.677041
0.677041
0.653057
0.605937
0.537352
0.449731
0.346178
0.230361
0.106384
-0.0213617
-0.148351
-0.270085
-0.38225
-0.480875
-0.562464
-0.624128
-0.663681
-0.679724
-0.671687
-0.639855
-0.585355
-0.51012
-0.416813
-0.30874
-0.18973
-0.0639985
)
;

boundaryField
{
    inlet
    {
        type            cyclic;
    }
    outlet
    {
        type            cyclic;
    }
    bottom
    {
        type            slip;
    }
    top
    {
        type            slip;
    }
    frontAndBack
    {
        type            empty;
    }
}


// ************************************************************************* //
