/*--------------------------------*- C++ -*----------------------------------*\
  =========                 |
  \\      /  F ield         | OpenFOAM: The Open Source CFD Toolbox
   \\    /   O peration     | Website:  https://openfoam.org
    \\  /    A nd           | Version:  10
     \\/     M anipulation  |
\*---------------------------------------------------------------------------*/
FoamFile
{
    format      ascii;
    class       volScalarField;
    location    "0.5";
    object      T_0;
}
// * * * * * * * * * * * * * * * * * * * * * * * * * * * * * * * * * * * * * //

dimensions      [0 0 -1 0 0 0 0];

internalField   nonuniform List<scalar> 
100
(
0.0648838
0.192352
0.313005
0.42257
0.517166
0.59344
0.648692
0.680963
0.689111
0.672847
0.632747
0.570231
0.487515
0.387529
0.273813
0.150398
0.0216553
-0.107855
-0.233544
-0.35096
-0.455943
-0.544774
-0.614306
-0.662076
-0.686392
-0.686392
-0.662076
-0.614305
-0.544773
-0.455942
-0.350958
-0.233542
-0.107853
0.0216575
0.1504
0.273815
0.38753
0.487516
0.570232
0.632747
0.672847
0.689111
0.680963
0.648691
0.593439
0.517164
0.422569
0.313004
0.19235
0.0648824
-0.0648838
-0.192351
-0.313005
-0.42257
-0.517165
-0.59344
-0.648691
-0.680963
-0.689111
-0.672847
-0.632747
-0.570231
-0.487515
-0.387529
-0.273814
-0.150399
-0.021656
0.107854
0.233544
0.35096
0.455943
0.544774
0.614306
0.662076
0.686392
0.686392
0.662076
0.614306
0.544773
0.455942
0.350959
0.233543
0.107853
-0.0216567
-0.1504
-0.273815
-0.38753
-0.487516
-0.570232
-0.632748
-0.672848
-0.689111
-0.680963
-0.648692
-0.59344
-0.517165
-0.422569
-0.313004
-0.19235
-0.0648824
)
;

boundaryField
{
    inlet
    {
        type            cyclic;
    }
    outlet
    {
        type            cyclic;
    }
    bottom
    {
        type            slip;
    }
    top
    {
        type            slip;
    }
    frontAndBack
    {
        type            empty;
    }
}


// ************************************************************************* //
