/*--------------------------------*- C++ -*----------------------------------*\
  =========                 |
  \\      /  F ield         | OpenFOAM: The Open Source CFD Toolbox
   \\    /   O peration     | Website:  https://openfoam.org
    \\  /    A nd           | Version:  10
     \\/     M anipulation  |
\*---------------------------------------------------------------------------*/
FoamFile
{
    format      ascii;
    class       volScalarField;
    location    "5.9";
    object      T;
}
// * * * * * * * * * * * * * * * * * * * * * * * * * * * * * * * * * * * * * //

dimensions      [0 0 -1 0 0 0 0];

internalField   nonuniform List<scalar> 
100
(
-0.00147004
-0.00435799
-0.00709155
-0.00957389
-0.0117171
-0.0134452
-0.014697
-0.0154281
-0.0156127
-0.0152442
-0.0143357
-0.0129193
-0.0110453
-0.00877997
-0.00620361
-0.00340748
-0.000490641
0.00244358
0.00529123
0.00795144
0.01033
0.0123425
0.0139179
0.0150002
0.0155511
0.0155511
0.0150002
0.0139179
0.0123425
0.0103299
0.0079514
0.00529118
0.00244351
-0.000490727
-0.00340759
-0.00620375
-0.00878015
-0.0110455
-0.0129196
-0.014336
-0.0152445
-0.015613
-0.0154284
-0.0146973
-0.0134454
-0.0117173
-0.00957407
-0.00709166
-0.00435803
-0.00147
0.0014701
0.00435812
0.00709175
0.00957415
0.0117174
0.0134455
0.0146973
0.0154285
0.0156131
0.0152446
0.014336
0.0129196
0.0110455
0.00878015
0.00620375
0.00340759
0.000490724
-0.00244351
-0.00529118
-0.0079514
-0.0103299
-0.0123425
-0.0139178
-0.0150001
-0.015551
-0.015551
-0.0150001
-0.0139179
-0.0123425
-0.0103299
-0.00795142
-0.00529121
-0.00244356
0.000490656
0.00340749
0.00620362
0.00877998
0.0110453
0.0129193
0.0143357
0.0152442
0.0156127
0.0154281
0.0146969
0.0134451
0.011717
0.00957384
0.00709149
0.00435793
0.00146998
)
;

boundaryField
{
    inlet
    {
        type            cyclic;
    }
    outlet
    {
        type            cyclic;
    }
    bottom
    {
        type            slip;
    }
    top
    {
        type            slip;
    }
    frontAndBack
    {
        type            empty;
    }
}


// ************************************************************************* //
