/*--------------------------------*- C++ -*----------------------------------*\
  =========                 |
  \\      /  F ield         | OpenFOAM: The Open Source CFD Toolbox
   \\    /   O peration     | Website:  https://openfoam.org
    \\  /    A nd           | Version:  10
     \\/     M anipulation  |
\*---------------------------------------------------------------------------*/
FoamFile
{
    format      ascii;
    class       volScalarField;
    location    "5.9";
    object      T_0;
}
// * * * * * * * * * * * * * * * * * * * * * * * * * * * * * * * * * * * * * //

dimensions      [0 0 -1 0 0 0 0];

internalField   nonuniform List<scalar> 
100
(
-0.000732294
-0.00217089
-0.00353258
-0.00476913
-0.00583673
-0.00669756
-0.00732113
-0.00768534
-0.0077773
-0.00759374
-0.00714117
-0.00643562
-0.00550209
-0.00437364
-0.00309026
-0.0016974
-0.000244414
0.00121723
0.00263576
0.00396091
0.00514574
0.00614828
0.00693302
0.00747215
0.00774657
0.00774657
0.00747215
0.00693302
0.00614828
0.00514573
0.00396089
0.00263573
0.00121719
-0.000244477
-0.00169749
-0.00309039
-0.00437381
-0.00550229
-0.00643586
-0.00714144
-0.00759404
-0.00777761
-0.00768566
-0.00732144
-0.00669785
-0.00583697
-0.00476932
-0.00353271
-0.00217094
-0.00073227
0.000732346
0.00217102
0.00353278
0.00476939
0.00583704
0.00669791
0.00732149
0.00768571
0.00777766
0.00759407
0.00714147
0.00643589
0.00550231
0.00437382
0.0030904
0.00169751
0.000244491
-0.00121718
-0.00263572
-0.00396088
-0.00514571
-0.00614826
-0.00693299
-0.00747212
-0.00774655
-0.00774655
-0.00747213
-0.006933
-0.00614827
-0.00514573
-0.0039609
-0.00263575
-0.00121723
0.000244413
0.0016974
0.00309026
0.00437364
0.00550209
0.00643562
0.00714116
0.00759373
0.00777728
0.00768532
0.00732111
0.00669753
0.0058367
0.00476909
0.00353254
0.00217084
0.000732245
)
;

boundaryField
{
    inlet
    {
        type            cyclic;
    }
    outlet
    {
        type            cyclic;
    }
    bottom
    {
        type            slip;
    }
    top
    {
        type            slip;
    }
    frontAndBack
    {
        type            empty;
    }
}


// ************************************************************************* //
