/*--------------------------------*- C++ -*----------------------------------*\
  =========                 |
  \\      /  F ield         | OpenFOAM: The Open Source CFD Toolbox
   \\    /   O peration     | Website:  https://openfoam.org
    \\  /    A nd           | Version:  10
     \\/     M anipulation  |
\*---------------------------------------------------------------------------*/
FoamFile
{
    format      ascii;
    class       volScalarField;
    location    "28";
    object      ddt0(T);
}
// * * * * * * * * * * * * * * * * * * * * * * * * * * * * * * * * * * * * * //

dimensions      [0 0 -1 1 0 0 0];

internalField   nonuniform List<scalar> 
10000
(
1028.46
170.695
266.279
267.752
266.81
266.855
266.905
266.916
266.918
266.92
266.922
266.923
266.924
266.926
266.927
266.928
266.93
266.931
266.932
266.934
266.935
266.936
266.937
266.938
266.94
266.941
266.942
266.943
266.944
266.945
266.946
266.947
266.948
266.949
266.95
266.951
266.952
266.953
266.954
266.955
266.956
266.956
266.957
266.958
266.959
266.96
266.96
266.961
266.962
266.962
266.963
266.964
266.964
266.965
266.965
266.966
266.967
266.967
266.968
266.968
266.969
266.969
266.969
266.97
266.97
266.971
266.971
266.971
266.972
266.972
266.972
266.973
266.973
266.973
266.973
266.974
266.974
266.974
266.974
266.974
266.975
266.975
266.975
266.975
266.975
266.975
266.975
266.975
266.976
266.976
266.976
266.976
266.976
266.976
266.976
266.988
267.111
267.091
254.524
234.566
224.691
-217.29
-84.8373
-92.1062
-94.7862
-94.7541
-94.6743
-94.662
-94.6593
-94.6559
-94.6519
-94.648
-94.644
-94.6401
-94.6362
-94.6324
-94.6285
-94.6248
-94.621
-94.6173
-94.6137
-94.61
-94.6065
-94.603
-94.5995
-94.596
-94.5927
-94.5893
-94.586
-94.5828
-94.5796
-94.5765
-94.5735
-94.5705
-94.5675
-94.5646
-94.5618
-94.559
-94.5563
-94.5537
-94.5511
-94.5486
-94.5461
-94.5437
-94.5414
-94.5391
-94.5369
-94.5347
-94.5326
-94.5306
-94.5286
-94.5267
-94.5248
-94.523
-94.5213
-94.5196
-94.518
-94.5164
-94.5149
-94.5135
-94.5121
-94.5107
-94.5094
-94.5082
-94.507
-94.5058
-94.5047
-94.5037
-94.5027
-94.5017
-94.5008
-94.5
-94.4991
-94.4984
-94.4976
-94.4969
-94.4962
-94.4956
-94.495
-94.4945
-94.4939
-94.4934
-94.493
-94.4926
-94.4922
-94.4918
-94.4915
-94.4912
-94.4909
-94.4907
-94.4904
-94.4902
-94.4901
-94.4906
-94.4931
-94.4883
-94.3397
-93.6647
-96.9982
-80.7226
304.157
-99.9746
24.2849
14.0153
11.1753
11.2938
11.3998
11.4173
11.4225
11.4286
11.4352
11.4419
11.4485
11.455
11.4615
11.468
11.4744
11.4807
11.4869
11.4931
11.4993
11.5053
11.5113
11.5172
11.523
11.5287
11.5343
11.5399
11.5454
11.5508
11.556
11.5612
11.5663
11.5714
11.5763
11.5811
11.5858
11.5904
11.5949
11.5993
11.6037
11.6079
11.612
11.616
11.6199
11.6237
11.6274
11.631
11.6345
11.6379
11.6412
11.6443
11.6474
11.6504
11.6533
11.6561
11.6588
11.6614
11.664
11.6664
11.6687
11.671
11.6731
11.6752
11.6772
11.6791
11.6809
11.6827
11.6843
11.6859
11.6875
11.6889
11.6903
11.6916
11.6928
11.694
11.6951
11.6962
11.6972
11.6981
11.699
11.6998
11.7005
11.7013
11.7019
11.7025
11.7031
11.7036
11.704
11.7045
11.7048
11.7052
11.7054
11.7048
11.6993
11.6833
11.7277
12.1003
9.52499
12.1601
305.71
-105.978
15.3278
4.67627
1.91293
2.07231
2.18764
2.20808
2.21586
2.22457
2.23383
2.24312
2.25234
2.26149
2.27057
2.27957
2.28849
2.29732
2.30606
2.31471
2.32325
2.3317
2.34004
2.34827
2.3564
2.36441
2.3723
2.38007
2.38772
2.39525
2.40265
2.40992
2.41706
2.42407
2.43094
2.43768
2.44427
2.45073
2.45705
2.46322
2.46926
2.47514
2.48089
2.48649
2.49195
2.49727
2.50244
2.50747
2.51235
2.5171
2.5217
2.52616
2.53049
2.53467
2.53872
2.54264
2.54642
2.55007
2.55359
2.55699
2.56025
2.5634
2.56642
2.56932
2.57211
2.57478
2.57733
2.57978
2.58211
2.58435
2.58647
2.5885
2.59043
2.59226
2.59399
2.59564
2.59719
2.59866
2.60005
2.60135
2.60257
2.60371
2.60477
2.60576
2.60667
2.60752
2.60829
2.609
2.60964
2.61021
2.61073
2.61123
2.61178
2.61217
2.60946
2.59493
2.60229
2.90896
2.6926
2.47523
304.95
-108.296
12.8315
2.25228
-0.462672
-0.289387
-0.170318
-0.14743
-0.137102
-0.125757
-0.113846
-0.10192
-0.0900779
-0.0783241
-0.0666615
-0.0550961
-0.0436346
-0.0322833
-0.0210479
-0.00993383
0.00105416
0.0119115
0.0226341
0.0332178
0.0436587
0.0539532
0.0640975
0.0740883
0.0839222
0.0935958
0.103106
0.11245
0.121626
0.13063
0.13946
0.148114
0.15659
0.164887
0.173003
0.180937
0.188688
0.196255
0.203637
0.210835
0.217848
0.224676
0.23132
0.23778
0.244057
0.250152
0.256065
0.261799
0.267355
0.272733
0.277937
0.282967
0.287827
0.292517
0.297041
0.3014
0.305597
0.309636
0.313517
0.317245
0.320822
0.324251
0.327535
0.330676
0.333678
0.336545
0.339278
0.341881
0.344357
0.346709
0.34894
0.351053
0.353051
0.354936
0.356713
0.358383
0.359949
0.361414
0.36278
0.36405
0.365226
0.366311
0.367306
0.368213
0.369035
0.369772
0.370427
0.37103
0.371701
0.372613
0.372431
0.362616
0.337718
0.402318
0.462809
0.379021
304.993
-108.271
12.9316
2.39151
-0.30965
-0.132094
-0.0105275
0.0148711
0.0278215
0.0418177
0.0563743
0.0709319
0.0853897
0.0997407
0.113981
0.128103
0.142099
0.155961
0.169681
0.183254
0.196673
0.209933
0.223029
0.235955
0.248706
0.261279
0.273668
0.285869
0.297879
0.309693
0.321307
0.332719
0.343923
0.354919
0.365702
0.37627
0.38662
0.396752
0.406662
0.41635
0.425815
0.435055
0.444069
0.452858
0.461421
0.469759
0.477872
0.48576
0.493424
0.500866
0.508087
0.515088
0.521871
0.528439
0.534792
0.540934
0.546868
0.552594
0.558118
0.56344
0.568565
0.573495
0.578235
0.582786
0.587153
0.59134
0.595349
0.599184
0.60285
0.606349
0.609686
0.612864
0.615886
0.618758
0.621481
0.624061
0.6265
0.628803
0.630971
0.63301
0.634922
0.63671
0.638378
0.639929
0.641364
0.642688
0.643903
0.645011
0.646015
0.646914
0.647708
0.648405
0.649087
0.650063
0.651496
0.650099
0.637017
0.632718
0.638112
0.649247
305.036
-108.201
13.0244
2.49352
-0.203886
-0.0238226
0.100242
0.128249
0.143849
0.160497
0.177692
0.194874
0.211939
0.228879
0.245689
0.262359
0.278881
0.295244
0.311442
0.327466
0.343308
0.358963
0.374423
0.389684
0.404739
0.419582
0.434209
0.448614
0.462793
0.47674
0.490452
0.503924
0.517152
0.530132
0.542862
0.555338
0.567557
0.579517
0.591216
0.602653
0.613826
0.624733
0.635374
0.645749
0.655858
0.6657
0.675276
0.684588
0.693635
0.70242
0.710943
0.719207
0.727214
0.734966
0.742466
0.749716
0.756719
0.763479
0.769998
0.776281
0.78233
0.788149
0.793743
0.799115
0.80427
0.809211
0.813943
0.81847
0.822796
0.826926
0.830864
0.834615
0.838182
0.841571
0.844786
0.84783
0.850709
0.853426
0.855986
0.858392
0.860648
0.862759
0.864727
0.866557
0.868251
0.869814
0.871247
0.872555
0.873739
0.874802
0.875741
0.876551
0.877247
0.877996
0.879232
0.880602
0.878463
0.872768
0.862166
0.882768
305.046
-108.19
13.0405
2.51262
-0.182307
0.00027374
0.126948
0.157604
0.175858
0.195148
0.214974
0.23477
0.254433
0.273953
0.293323
0.312533
0.331572
0.350429
0.369094
0.38756
0.405817
0.423858
0.441676
0.459263
0.476613
0.493719
0.510576
0.527177
0.543517
0.55959
0.575391
0.590916
0.60616
0.621118
0.635787
0.650164
0.664245
0.678027
0.691509
0.704687
0.717561
0.73013
0.742392
0.754347
0.765995
0.777336
0.788371
0.7991
0.809525
0.819647
0.829468
0.83899
0.848216
0.857148
0.865789
0.874143
0.882212
0.89
0.897511
0.90475
0.911719
0.918424
0.924869
0.931058
0.936997
0.94269
0.948141
0.953356
0.958341
0.963099
0.967635
0.971956
0.976066
0.979971
0.983674
0.987181
0.990497
0.993627
0.996576
0.999348
1.00195
1.00438
1.00665
1.00875
1.01071
1.01251
1.01416
1.01566
1.01703
1.01825
1.01934
1.02028
1.02107
1.02173
1.0225
1.02369
1.02472
1.02334
1.01031
1.03231
305.048
-108.187
13.046
2.52063
-0.17174
0.0134654
0.142791
0.176101
0.197
0.218923
0.241369
0.263769
0.28602
0.308109
0.330029
0.351768
0.373313
0.394653
0.415776
0.436674
0.457336
0.477754
0.497918
0.517822
0.537458
0.556818
0.575895
0.594683
0.613175
0.631366
0.649248
0.666817
0.684068
0.700996
0.717597
0.733866
0.749801
0.765398
0.780654
0.795567
0.810136
0.824358
0.838234
0.851762
0.864943
0.877776
0.890262
0.902403
0.914199
0.925652
0.936765
0.94754
0.957979
0.968086
0.977863
0.987315
0.996445
1.00526
1.01376
1.02195
1.02983
1.03742
1.04471
1.05171
1.05843
1.06487
1.07104
1.07694
1.08258
1.08796
1.09309
1.09798
1.10263
1.10705
1.11124
1.11521
1.11896
1.1225
1.12583
1.12897
1.13191
1.13466
1.13722
1.13961
1.14182
1.14385
1.14572
1.14742
1.14897
1.15035
1.15159
1.15267
1.15358
1.15431
1.15493
1.15569
1.15714
1.15808
1.1407
1.16801
305.05
-108.184
13.0522
2.52944
-0.160293
0.0275655
0.159543
0.195498
0.219031
0.243576
0.268629
0.293622
0.318448
0.343095
0.367553
0.391809
0.415849
0.439661
0.463231
0.486549
0.509605
0.532388
0.554889
0.577099
0.599009
0.620613
0.6419
0.662865
0.683499
0.703796
0.72375
0.743354
0.762603
0.781492
0.800014
0.818167
0.835947
0.853349
0.870371
0.88701
0.903265
0.919134
0.934615
0.949709
0.964414
0.978732
0.992663
1.00621
1.01937
1.03215
1.04454
1.05657
1.06821
1.07949
1.09039
1.10094
1.11112
1.12095
1.13044
1.13957
1.14837
1.15683
1.16496
1.17278
1.18027
1.18746
1.19433
1.20092
1.20721
1.21321
1.21894
1.22439
1.22957
1.2345
1.23917
1.2436
1.24778
1.25173
1.25545
1.25895
1.26223
1.2653
1.26816
1.27082
1.27328
1.27555
1.27763
1.27953
1.28125
1.2828
1.28417
1.28538
1.28642
1.28726
1.28791
1.28849
1.28999
1.29271
1.26914
1.30363
305.051
-108.18
13.0588
2.53873
-0.148356
0.0421503
0.17677
0.215356
0.241509
0.268663
0.29631
0.323883
0.351272
0.378464
0.405447
0.432207
0.458729
0.484999
0.511003
0.536729
0.562166
0.587302
0.612127
0.636631
0.660805
0.684639
0.708126
0.731256
0.754021
0.776414
0.798428
0.820057
0.841293
0.862131
0.882566
0.902592
0.922206
0.941404
0.960183
0.978539
0.99647
1.01398
1.03105
1.0477
1.06393
1.07972
1.09509
1.11003
1.12455
1.13864
1.15232
1.16558
1.17842
1.19086
1.20289
1.21452
1.22576
1.2366
1.24706
1.25713
1.26684
1.27617
1.28514
1.29376
1.30202
1.30995
1.31753
1.32479
1.33173
1.33835
1.34466
1.35068
1.35639
1.36183
1.36698
1.37186
1.37647
1.38083
1.38493
1.38879
1.3924
1.39579
1.39894
1.40187
1.40459
1.40709
1.40939
1.41149
1.41338
1.41509
1.4166
1.41793
1.41908
1.42003
1.42075
1.42128
1.42283
1.42731
1.39745
1.43907
305.053
-108.176
13.0654
2.54803
-0.136412
0.0567298
0.193976
0.23518
0.26394
0.293687
0.323915
0.354052
0.383989
0.413711
0.443205
0.472455
0.501444
0.530159
0.558583
0.586703
0.614507
0.641983
0.669119
0.695904
0.722328
0.748381
0.774053
0.799336
0.82422
0.848697
0.87276
0.8964
0.919612
0.942388
0.964724
0.986613
1.00805
1.02903
1.04956
1.06962
1.08922
1.10835
1.12702
1.14521
1.16294
1.1802
1.197
1.21333
1.22919
1.2446
1.25954
1.27403
1.28807
1.30166
1.31481
1.32752
1.3398
1.35165
1.36307
1.37409
1.38469
1.39489
1.40469
1.4141
1.42313
1.43179
1.44008
1.44801
1.45559
1.46283
1.46972
1.47629
1.48254
1.48848
1.49411
1.49944
1.50448
1.50924
1.51372
1.51793
1.52188
1.52558
1.52902
1.53223
1.53519
1.53793
1.54044
1.54273
1.5448
1.54666
1.54832
1.54977
1.55102
1.55207
1.55286
1.55338
1.55495
1.56109
1.52573
1.57357
305.054
-108.172
13.072
2.55727
-0.124545
0.0712152
0.211073
0.254878
0.286228
0.318554
0.351346
0.384032
0.416502
0.448738
0.480726
0.512451
0.543893
0.575036
0.605865
0.636365
0.666521
0.696322
0.725754
0.754806
0.783466
0.811723
0.839568
0.866989
0.893978
0.920526
0.946624
0.972264
0.997438
1.02214
1.04636
1.0701
1.09335
1.11611
1.13837
1.16013
1.18138
1.20213
1.22237
1.24211
1.26133
1.28005
1.29826
1.31597
1.33317
1.34988
1.36609
1.3818
1.39702
1.41176
1.42601
1.4398
1.45311
1.46595
1.47834
1.49028
1.50178
1.51284
1.52346
1.53367
1.54346
1.55285
1.56184
1.57043
1.57865
1.58649
1.59397
1.60109
1.60787
1.6143
1.6204
1.62618
1.63165
1.6368
1.64166
1.64623
1.65051
1.65451
1.65825
1.66172
1.66494
1.6679
1.67062
1.6731
1.67535
1.67737
1.67916
1.68074
1.6821
1.68324
1.6841
1.68462
1.68619
1.69368
1.654
1.70684
305.055
-108.168
13.0786
2.56645
-0.112763
0.0855998
0.228051
0.274441
0.308364
0.343251
0.37859
0.413808
0.448793
0.483527
0.517993
0.552175
0.586052
0.619608
0.652826
0.685688
0.718182
0.750291
0.782004
0.813307
0.844187
0.874634
0.904636
0.934181
0.963261
0.991865
1.01998
1.04761
1.07473
1.10135
1.12745
1.15302
1.17807
1.20259
1.22657
1.25001
1.27291
1.29526
1.31707
1.33833
1.35904
1.37921
1.39883
1.4179
1.43643
1.45443
1.47189
1.48881
1.50521
1.52109
1.53644
1.55129
1.56562
1.57946
1.59281
1.60567
1.61805
1.62996
1.6414
1.6524
1.66294
1.67305
1.68273
1.69199
1.70084
1.70928
1.71734
1.72501
1.7323
1.73923
1.7458
1.75202
1.75791
1.76346
1.76869
1.77361
1.77822
1.78253
1.78655
1.79029
1.79375
1.79695
1.79987
1.80255
1.80497
1.80714
1.80907
1.81077
1.81223
1.81346
1.8144
1.81494
1.81649
1.82498
1.78217
1.83879
305.057
-108.164
13.0851
2.57555
-0.101067
0.0998795
0.244906
0.293862
0.33034
0.367769
0.405637
0.443368
0.48085
0.518063
0.554989
0.59161
0.627905
0.663856
0.699444
0.734652
0.769465
0.803867
0.837843
0.87138
0.904465
0.937085
0.969227
1.00088
1.03204
1.06268
1.09281
1.1224
1.15146
1.17997
1.20793
1.23533
1.26217
1.28843
1.31412
1.33923
1.36376
1.3877
1.41106
1.43384
1.45602
1.47762
1.49864
1.51907
1.53892
1.5582
1.5769
1.59503
1.61259
1.62959
1.64604
1.66194
1.6773
1.69212
1.70641
1.72018
1.73344
1.74619
1.75845
1.77022
1.78152
1.79234
1.80271
1.81262
1.82209
1.83114
1.83976
1.84797
1.85578
1.8632
1.87024
1.8769
1.8832
1.88915
1.89475
1.90001
1.90495
1.90956
1.91387
1.91787
1.92158
1.925
1.92813
1.93099
1.93358
1.93591
1.93798
1.93979
1.94136
1.94268
1.94369
1.94426
1.9458
1.95494
1.91014
1.96936
305.058
-108.16
13.0916
2.58458
-0.0894635
0.114047
0.261629
0.313131
0.352144
0.392096
0.432472
0.472697
0.512656
0.552328
0.591695
0.630736
0.66943
0.707757
0.745697
0.783232
0.820346
0.857021
0.893243
0.928997
0.964268
0.999044
1.03331
1.06706
1.10027
1.13294
1.16505
1.1966
1.22758
1.25797
1.28778
1.31699
1.34559
1.37359
1.40097
1.42774
1.45389
1.47941
1.50431
1.52858
1.55223
1.57526
1.59766
1.61943
1.64059
1.66114
1.68107
1.70039
1.71911
1.73723
1.75475
1.7717
1.78806
1.80386
1.81909
1.83376
1.84789
1.86148
1.87455
1.88709
1.89912
1.91066
1.9217
1.93226
1.94236
1.952
1.96118
1.96993
1.97825
1.98616
1.99365
2.00075
2.00746
2.01379
2.01976
2.02537
2.03063
2.03554
2.04013
2.0444
2.04834
2.05198
2.05533
2.05837
2.06113
2.06361
2.06581
2.06775
2.06942
2.07082
2.07191
2.07253
2.07405
2.08353
2.03773
2.09854
305.059
-108.156
13.098
2.59354
-0.0779582
0.128095
0.278212
0.332237
0.373764
0.416218
0.459082
0.50178
0.544195
0.586306
0.628093
0.669534
0.710606
0.751289
0.791561
0.831403
0.870798
0.909728
0.948177
0.986129
1.02357
1.06048
1.09685
1.13267
1.16793
1.2026
1.23669
1.27018
1.30306
1.33532
1.36695
1.39795
1.42831
1.45803
1.48709
1.5155
1.54325
1.57034
1.59676
1.62252
1.64762
1.67205
1.69582
1.71893
1.74139
1.76319
1.78434
1.80484
1.8247
1.84393
1.86253
1.88051
1.89787
1.91463
1.93079
1.94636
1.96135
1.97577
1.98963
2.00294
2.0157
2.02794
2.03965
2.05086
2.06157
2.07179
2.08154
2.09082
2.09964
2.10803
2.11598
2.12351
2.13062
2.13734
2.14367
2.14962
2.15519
2.16041
2.16528
2.1698
2.17399
2.17785
2.18139
2.18462
2.18755
2.19018
2.19252
2.19457
2.19634
2.19783
2.19899
2.19966
2.20117
2.21073
2.16478
2.2263
305.061
-108.153
13.1043
2.60241
-0.0665575
0.142016
0.294644
0.351172
0.39519
0.440123
0.485452
0.530601
0.575451
0.619979
0.664164
0.707983
0.751412
0.79443
0.837013
0.879142
0.920798
0.961962
1.00262
1.04275
1.08233
1.12137
1.15982
1.1977
1.23497
1.27164
1.30768
1.34309
1.37785
1.41196
1.44541
1.47818
1.51028
1.5417
1.57242
1.60246
1.63179
1.66043
1.68837
1.7156
1.74213
1.76796
1.79309
1.81752
1.84126
1.8643
1.88666
1.90833
1.92933
1.94965
1.96931
1.98831
2.00667
2.02438
2.04146
2.05791
2.07376
2.089
2.10364
2.11771
2.1312
2.14413
2.15651
2.16835
2.17967
2.19047
2.20076
2.21057
2.2199
2.22875
2.23715
2.24511
2.25263
2.25973
2.26641
2.2727
2.27859
2.2841
2.28924
2.29402
2.29844
2.30252
2.30626
2.30968
2.31277
2.31555
2.31802
2.32018
2.32206
2.32363
2.32486
2.32559
2.3271
2.33653
2.29111
2.35262
305.062
-108.149
13.1106
2.61119
-0.0552668
0.155803
0.310919
0.369925
0.416411
0.463799
0.511571
0.559147
0.606409
0.65333
0.699891
0.746066
0.79183
0.837159
0.882031
0.926425
0.970321
1.0137
1.05654
1.09882
1.14054
1.18167
1.22219
1.2621
1.30138
1.34001
1.37799
1.4153
1.45193
1.48787
1.52311
1.55764
1.59146
1.62456
1.65694
1.68858
1.71949
1.74966
1.77909
1.80778
1.83574
1.86295
1.88942
1.91516
1.94016
1.96444
1.98798
2.01081
2.03293
2.05434
2.07505
2.09506
2.11439
2.13305
2.15104
2.16837
2.18506
2.20111
2.21653
2.23134
2.24555
2.25917
2.2722
2.28468
2.29659
2.30796
2.31881
2.32913
2.33895
2.34828
2.35712
2.3655
2.37342
2.38089
2.38793
2.39454
2.40074
2.40655
2.41196
2.41699
2.42164
2.42594
2.42988
2.43347
2.43673
2.43966
2.44226
2.44454
2.44651
2.44817
2.44947
2.45027
2.45178
2.46091
2.41657
2.47749
305.063
-108.145
13.1169
2.61989
-0.0440912
0.16945
0.327028
0.388488
0.437418
0.487237
0.537426
0.587405
0.637054
0.686346
0.735258
0.783764
0.831839
0.879458
0.926596
0.973232
1.01934
1.06491
1.10992
1.15434
1.19816
1.24136
1.28393
1.32586
1.36712
1.4077
1.44759
1.48678
1.52526
1.56301
1.60002
1.6363
1.67182
1.70659
1.74059
1.77382
1.80629
1.83798
1.86889
1.89902
1.92838
1.95696
1.98476
2.01179
2.03805
2.06354
2.08827
2.11224
2.13546
2.15795
2.17969
2.20071
2.221
2.24059
2.25948
2.27768
2.2952
2.31205
2.32824
2.34379
2.35871
2.373
2.38669
2.39978
2.41229
2.42423
2.43561
2.44645
2.45675
2.46654
2.47583
2.48462
2.49293
2.50077
2.50815
2.5151
2.52161
2.5277
2.53337
2.53865
2.54354
2.54805
2.55218
2.55596
2.55937
2.56244
2.56517
2.56757
2.56964
2.57138
2.57276
2.57362
2.57513
2.58386
2.541
2.60089
305.064
-108.141
13.123
2.62849
-0.0330354
0.182951
0.342966
0.406854
0.4582
0.510424
0.563006
0.615363
0.667373
0.71901
0.770249
0.821062
0.871424
0.921308
0.970688
1.01954
1.06785
1.11558
1.16272
1.20926
1.25516
1.30042
1.34502
1.38893
1.43215
1.47466
1.51645
1.5575
1.5978
1.63734
1.67611
1.71411
1.75132
1.78773
1.82334
1.85815
1.89215
1.92534
1.95772
1.98928
2.02002
2.04995
2.07907
2.10737
2.13487
2.16156
2.18746
2.21257
2.23688
2.26042
2.28319
2.3052
2.32645
2.34696
2.36674
2.38579
2.40413
2.42177
2.43873
2.455
2.47062
2.48558
2.49991
2.51361
2.52671
2.5392
2.55112
2.56246
2.57325
2.58349
2.59321
2.60241
2.6111
2.61931
2.62704
2.63431
2.64112
2.64749
2.65343
2.65896
2.66407
2.66879
2.67312
2.67707
2.68064
2.68385
2.68671
2.68922
2.69138
2.69321
2.69466
2.69559
2.69711
2.70534
2.66426
2.72279
305.066
-108.138
13.1291
2.637
-0.0221038
0.1963
0.358725
0.425014
0.47875
0.533353
0.588301
0.643009
0.697355
0.75131
0.80485
0.857945
0.910568
0.96269
1.01429
1.06533
1.11581
1.16569
1.21494
1.26357
1.31153
1.35882
1.40542
1.4513
1.49646
1.54087
1.58453
1.62742
1.66953
1.71084
1.75135
1.79104
1.82992
1.86796
1.90516
1.94153
1.97705
2.01172
2.04554
2.07851
2.11062
2.14189
2.1723
2.20187
2.23059
2.25847
2.28552
2.31174
2.33714
2.36173
2.38551
2.40849
2.43069
2.4521
2.47276
2.49265
2.51181
2.53023
2.54793
2.56493
2.58123
2.59686
2.61182
2.62612
2.63979
2.65284
2.66528
2.67712
2.68838
2.69908
2.70922
2.71882
2.7279
2.73647
2.74454
2.75212
2.75923
2.76588
2.77208
2.77785
2.78319
2.78811
2.79263
2.79675
2.80048
2.80383
2.80682
2.80943
2.8117
2.8136
2.81512
2.81612
2.81765
2.82533
2.78622
2.84318
305.067
-108.134
13.1351
2.6454
-0.0113005
0.209493
0.3743
0.442961
0.49906
0.556014
0.613299
0.670331
0.726986
0.783233
0.839046
0.894396
0.949253
1.00359
1.05738
1.11059
1.16321
1.2152
1.26655
1.31724
1.36724
1.41654
1.46511
1.51294
1.56001
1.60631
1.65182
1.69652
1.74041
1.78347
1.8257
1.86707
1.90759
1.94724
1.98602
2.02392
2.06094
2.09707
2.13232
2.16668
2.20015
2.23273
2.26442
2.29523
2.32517
2.35422
2.38241
2.40973
2.4362
2.46181
2.48659
2.51054
2.53366
2.55598
2.57749
2.59822
2.61818
2.63737
2.65581
2.67352
2.6905
2.70678
2.72236
2.73726
2.7515
2.76509
2.77804
2.79037
2.8021
2.81324
2.8238
2.8338
2.84326
2.85218
2.86058
2.86848
2.87588
2.88281
2.88927
2.89527
2.90083
2.90595
2.91066
2.91495
2.91884
2.92233
2.92544
2.92816
2.93052
2.9325
2.93409
2.93517
2.9367
2.9438
2.90675
2.96203
305.068
-108.131
13.141
2.65371
-0.000629385
0.222525
0.389684
0.460689
0.519122
0.578398
0.637993
0.69732
0.756255
0.814766
0.872825
0.930402
0.987467
1.04399
1.09994
1.1553
1.21003
1.26412
1.31753
1.37025
1.42227
1.47354
1.52407
1.57382
1.62278
1.67094
1.71827
1.76477
1.81042
1.85521
1.89913
1.94216
1.9843
2.02554
2.06587
2.10529
2.14379
2.18137
2.21802
2.25375
2.28856
2.32244
2.3554
2.38743
2.41856
2.44877
2.47808
2.50649
2.53401
2.56064
2.5864
2.6113
2.63534
2.65854
2.68091
2.70246
2.7232
2.74315
2.76232
2.78072
2.79838
2.8153
2.83149
2.84698
2.86178
2.8759
2.88936
2.90218
2.91437
2.92594
2.93692
2.94731
2.95713
2.9664
2.97513
2.98334
2.99103
2.99823
3.00494
3.01117
3.01695
3.02227
3.02716
3.03162
3.03566
3.03929
3.04252
3.04535
3.0478
3.04986
3.05152
3.05266
3.05421
3.06073
3.02577
3.07931
305.069
-108.127
13.1469
2.6619
0.00990569
0.23539
0.404872
0.478191
0.538928
0.600497
0.662372
0.723965
0.785151
0.845897
0.906174
0.96595
1.02519
1.08387
1.14196
1.19943
1.25625
1.3124
1.36786
1.42259
1.47659
1.52982
1.58227
1.63392
1.68475
1.73474
1.78388
1.83215
1.87954
1.92603
1.97161
2.01628
2.06002
2.10282
2.14469
2.1856
2.22556
2.26456
2.30261
2.33969
2.37581
2.41098
2.44518
2.47843
2.51073
2.54208
2.5725
2.60198
2.63053
2.65817
2.6849
2.71073
2.73568
2.75975
2.78296
2.80531
2.82683
2.84753
2.86742
2.88651
2.90482
2.92237
2.93917
2.95523
2.97058
2.98523
2.99919
3.01249
3.02513
3.03713
3.04851
3.05929
3.06948
3.07909
3.08814
3.09665
3.10463
3.11209
3.11904
3.12551
3.1315
3.13702
3.14209
3.14671
3.1509
3.15467
3.15801
3.16095
3.16349
3.16563
3.16735
3.16857
3.17012
3.17608
3.14317
3.19499
305.07
-108.124
13.1527
2.66999
0.0203011
0.248085
0.419859
0.495461
0.558472
0.622303
0.686427
0.750257
0.813664
0.876615
0.939079
1.00102
1.06242
1.12323
1.18342
1.24298
1.30186
1.36005
1.41751
1.47423
1.53018
1.58535
1.6397
1.69321
1.74588
1.79769
1.8486
1.89862
1.94772
1.99589
2.04312
2.0894
2.13472
2.17907
2.22244
2.26483
2.30623
2.34664
2.38605
2.42447
2.46189
2.49831
2.53375
2.56819
2.60165
2.63412
2.66563
2.69616
2.72574
2.75436
2.78205
2.8088
2.83464
2.85956
2.8836
2.90675
2.92903
2.95046
2.97106
2.99083
3.00979
3.02796
3.04535
3.06198
3.07787
3.09304
3.10749
3.12125
3.13434
3.14676
3.15854
3.1697
3.18024
3.19019
3.19956
3.20837
3.21662
3.22435
3.23155
3.23824
3.24444
3.25015
3.2554
3.26018
3.26452
3.26841
3.27188
3.27492
3.27755
3.27977
3.28155
3.28284
3.2844
3.28981
3.25888
3.30903
305.071
-108.12
13.1584
2.67797
0.0305533
0.260605
0.434639
0.512493
0.577746
0.643808
0.710151
0.776186
0.841783
0.906909
0.971531
1.03562
1.09913
1.16204
1.22431
1.28592
1.34684
1.40703
1.46648
1.52516
1.58304
1.6401
1.69632
1.75169
1.80617
1.85975
1.91242
1.96416
2.01495
2.06478
2.11363
2.1615
2.20838
2.25425
2.2991
2.34295
2.38576
2.42755
2.46831
2.50805
2.54674
2.58441
2.62106
2.65667
2.69127
2.72485
2.75743
2.789
2.81958
2.84918
2.8778
2.90546
2.93218
2.95795
2.98279
3.00673
3.02976
3.05192
3.0732
3.09364
3.11324
3.13202
3.14999
3.16719
3.18361
3.19928
3.21422
3.22844
3.24196
3.2548
3.26697
3.2785
3.28939
3.29967
3.30935
3.31845
3.32698
3.33496
3.3424
3.34931
3.35571
3.36162
3.36704
3.37198
3.37646
3.38049
3.38407
3.38721
3.38992
3.39222
3.39407
3.39542
3.397
3.4019
3.37284
3.42141
305.073
-108.117
13.164
2.68583
0.0406588
0.272946
0.449208
0.529281
0.596744
0.665005
0.733535
0.801743
0.869499
0.936768
1.00352
1.06971
1.13531
1.20029
1.26461
1.32825
1.39117
1.45334
1.51474
1.57534
1.63513
1.69406
1.75213
1.80931
1.86558
1.92092
1.97532
2.02875
2.0812
2.13266
2.18312
2.23255
2.28096
2.32832
2.37465
2.41992
2.46413
2.50728
2.54937
2.5904
2.63035
2.66925
2.70708
2.74385
2.77957
2.81424
2.84787
2.88047
2.91204
2.94259
2.97214
3.00069
3.02826
3.05486
3.08051
3.10521
3.12899
3.15185
3.17382
3.19491
3.21513
3.23451
3.25306
3.2708
3.28775
3.30392
3.31933
3.334
3.34795
3.36119
3.37375
3.38564
3.39688
3.40749
3.41747
3.42686
3.43566
3.44388
3.45156
3.45869
3.46529
3.47138
3.47697
3.48207
3.48669
3.49084
3.49454
3.49778
3.50058
3.50295
3.50486
3.50628
3.50788
3.51229
3.48499
3.53209
305.074
-108.113
13.1695
2.69358
0.0506144
0.285103
0.46356
0.54582
0.615459
0.685886
0.75657
0.82692
0.896802
0.966182
1.03502
1.10329
1.17096
1.23797
1.30431
1.36994
1.43483
1.49895
1.56228
1.62478
1.68644
1.74722
1.8071
1.86607
1.9241
1.98117
2.03727
2.09237
2.14646
2.19952
2.25155
2.30252
2.35244
2.40128
2.44904
2.49572
2.54131
2.5858
2.6292
2.67149
2.71269
2.75279
2.79179
2.8297
2.86652
2.90226
2.93693
2.97053
3.00307
3.03456
3.06502
3.09445
3.12286
3.15028
3.17671
3.20217
3.22667
3.25023
3.27287
3.2946
3.31544
3.3354
3.35452
3.37279
3.39025
3.40691
3.42279
3.4379
3.45227
3.46592
3.47885
3.4911
3.50268
3.5136
3.52388
3.53355
3.54261
3.55108
3.55899
3.56633
3.57313
3.5794
3.58516
3.59041
3.59517
3.59945
3.60325
3.60659
3.60948
3.61192
3.61389
3.61538
3.61699
3.62097
3.59527
3.64103
305.075
-108.11
13.175
2.70121
0.0604169
0.297074
0.477691
0.562104
0.633886
0.706446
0.779251
0.851708
0.923684
0.995142
1.06605
1.13636
1.20605
1.27507
1.34339
1.41099
1.47782
1.54386
1.60908
1.67345
1.73695
1.79955
1.86122
1.92195
1.98171
2.04048
2.09825
2.15499
2.21069
2.26534
2.31891
2.3714
2.4228
2.47309
2.52227
2.57033
2.61727
2.66308
2.70776
2.7513
2.79372
2.835
2.87515
2.91418
2.95209
2.98888
3.02456
3.05915
3.09264
3.12506
3.15641
3.1867
3.21594
3.24416
3.27136
3.29756
3.32277
3.34702
3.37031
3.39267
3.41412
3.43466
3.45433
3.47313
3.49109
3.50823
3.52456
3.54011
3.55489
3.56893
3.58223
3.59483
3.60674
3.61797
3.62855
3.63849
3.64781
3.65652
3.66465
3.6722
3.6792
3.68565
3.69157
3.69697
3.70186
3.70626
3.71017
3.71361
3.71658
3.71909
3.72112
3.72267
3.72429
3.72789
3.70367
3.74819
305.076
-108.107
13.1804
2.70871
0.0700632
0.308853
0.491597
0.578128
0.652019
0.726677
0.801569
0.8761
0.950136
1.02364
1.09657
1.1689
1.24058
1.31157
1.38185
1.45138
1.52012
1.58805
1.65513
1.72134
1.78665
1.85103
1.91446
1.97692
2.03839
2.09883
2.15825
2.2166
2.27388
2.33008
2.38518
2.43916
2.49201
2.54373
2.5943
2.64372
2.69199
2.73909
2.78503
2.82981
2.87342
2.91586
2.95714
2.99727
3.03624
3.07406
3.11075
3.1463
3.18074
3.21406
3.24628
3.27741
3.30748
3.33648
3.36443
3.39136
3.41727
3.44219
3.46613
3.4891
3.51114
3.53225
3.55246
3.57178
3.59023
3.60784
3.62462
3.64059
3.65577
3.67019
3.68386
3.6968
3.70903
3.72057
3.73143
3.74164
3.75121
3.76016
3.76851
3.77627
3.78345
3.79007
3.79615
3.8017
3.80673
3.81125
3.81526
3.8188
3.82185
3.82443
3.82652
3.82812
3.82976
3.83301
3.81013
3.85354
305.077
-108.104
13.1856
2.7161
0.0795504
0.320438
0.505273
0.593887
0.669852
0.746574
0.823518
0.900088
0.97615
1.05166
1.12659
1.20089
1.27453
1.34747
1.41967
1.49109
1.56171
1.6315
1.70041
1.76843
1.83552
1.90166
1.96682
2.03098
2.09412
2.15621
2.21723
2.27718
2.33602
2.39374
2.45033
2.50577
2.56006
2.61318
2.66512
2.71588
2.76544
2.81382
2.861
2.90698
2.95176
2.99535
3.03774
3.07894
3.11896
3.1578
3.19546
3.23197
3.26732
3.30153
3.33461
3.36657
3.39743
3.4272
3.4559
3.48354
3.51014
3.53571
3.56028
3.58386
3.60648
3.62814
3.64888
3.6687
3.68764
3.7057
3.72292
3.73931
3.75489
3.76968
3.7837
3.79698
3.80952
3.82136
3.8325
3.84298
3.85279
3.86198
3.87054
3.87849
3.88586
3.89266
3.89889
3.90458
3.90974
3.91437
3.9185
3.92212
3.92525
3.9279
3.93005
3.93171
3.93337
3.93631
3.91463
3.95705
305.078
-108.101
13.1908
2.72335
0.0888758
0.331826
0.518716
0.609377
0.687381
0.76613
0.845091
0.923666
1.00172
1.07921
1.1561
1.23234
1.30791
1.38275
1.45684
1.53013
1.60259
1.6742
1.74491
1.8147
1.88354
1.95141
2.01827
2.0841
2.14888
2.21259
2.2752
2.3367
2.39707
2.45629
2.51435
2.57123
2.62692
2.68141
2.7347
2.78677
2.83761
2.88724
2.93563
2.9828
3.02873
3.07344
3.11692
3.15917
3.20021
3.24005
3.27868
3.31611
3.35236
3.38745
3.42137
3.45414
3.48578
3.51631
3.54573
3.57407
3.60134
3.62756
3.65274
3.67692
3.7001
3.72231
3.74356
3.76388
3.78329
3.8018
3.81945
3.83624
3.85221
3.86737
3.88174
3.89534
3.90819
3.92032
3.93174
3.94247
3.95252
3.96193
3.9707
3.97885
3.9864
3.99336
3.99975
4.00558
4.01086
4.01561
4.01984
4.02355
4.02676
4.02947
4.03168
4.03339
4.03507
4.03775
4.01715
4.05868
305.079
-108.098
13.1959
2.73048
0.098037
0.343012
0.531921
0.624594
0.7046
0.785342
0.866283
0.946827
1.02683
1.10627
1.18508
1.26323
1.34069
1.41741
1.49335
1.56847
1.64275
1.71614
1.78862
1.86015
1.93071
2.00027
2.0688
2.13627
2.20267
2.26796
2.33213
2.39516
2.45703
2.51772
2.57721
2.6355
2.69258
2.74842
2.80302
2.85638
2.90848
2.95933
3.00891
3.05724
3.1043
3.1501
3.19465
3.23794
3.27999
3.3208
3.36037
3.39872
3.43585
3.47179
3.50653
3.5401
3.57251
3.60377
3.63391
3.66293
3.69085
3.7177
3.74349
3.76825
3.79198
3.81472
3.83648
3.85728
3.87715
3.89611
3.91417
3.93136
3.94771
3.96322
3.97793
3.99185
4.00501
4.01742
4.0291
4.04008
4.05038
4.06
4.06898
4.07732
4.08504
4.09216
4.0987
4.10467
4.11007
4.11493
4.11926
4.12306
4.12635
4.12912
4.13139
4.13315
4.13485
4.13729
4.11768
4.1584
305.08
-108.095
13.2009
2.73748
0.107031
0.353995
0.544886
0.639533
0.721505
0.804202
0.887089
0.969565
1.05149
1.13283
1.21353
1.29356
1.37287
1.45143
1.52919
1.60611
1.68217
1.75731
1.83153
1.90477
1.97702
2.04824
2.1184
2.18748
2.25546
2.32231
2.38801
2.45254
2.51587
2.57801
2.63892
2.69859
2.75701
2.81418
2.87007
2.92469
2.97802
3.03007
3.08082
3.13028
3.17845
3.22533
3.27093
3.31523
3.35826
3.40002
3.44052
3.47976
3.51776
3.55453
3.59008
3.62443
3.65759
3.68957
3.7204
3.75009
3.77866
3.80612
3.83251
3.85783
3.8821
3.90536
3.92761
3.94889
3.96921
3.98859
4.00707
4.02465
4.04136
4.05722
4.07226
4.08649
4.09994
4.11263
4.12458
4.1358
4.14632
4.15616
4.16534
4.17386
4.18176
4.18904
4.19572
4.20182
4.20735
4.21232
4.21674
4.22063
4.22399
4.22683
4.22915
4.23096
4.23267
4.23491
4.21618
4.25619
305.081
-108.092
13.2058
2.74435
0.115857
0.364772
0.557607
0.654192
0.738092
0.822708
0.907503
0.991875
1.07569
1.15889
1.24145
1.32332
1.40445
1.48481
1.56435
1.64304
1.72084
1.79771
1.87362
1.94854
2.02244
2.09529
2.16706
2.23772
2.30725
2.37562
2.44282
2.50882
2.5736
2.63714
2.69944
2.76046
2.82021
2.87867
2.93583
2.99169
3.04622
3.09944
3.15134
3.20192
3.25117
3.29911
3.34572
3.39102
3.43502
3.47771
3.51911
3.55923
3.59807
3.63566
3.672
3.70711
3.741
3.77369
3.8052
3.83554
3.86474
3.8928
3.91976
3.94564
3.97044
3.9942
4.01694
4.03868
4.05944
4.07924
4.09811
4.11607
4.13314
4.14934
4.1647
4.17924
4.19298
4.20593
4.21813