/*--------------------------------*- C++ -*----------------------------------*\
  =========                 |
  \\      /  F ield         | OpenFOAM: The Open Source CFD Toolbox
   \\    /   O peration     | Website:  https://openfoam.org
    \\  /    A nd           | Version:  10
     \\/     M anipulation  |
\*---------------------------------------------------------------------------*/
FoamFile
{
    format      ascii;
    class       volScalarField;
    location    "28";
    object      T;
}
// * * * * * * * * * * * * * * * * * * * * * * * * * * * * * * * * * * * * * //

dimensions      [0 0 0 1 0 0 0];

internalField   nonuniform List<scalar> 
10000
(
374.984
361.284
356.6
354.545
353.429
352.723
352.23
351.862
351.573
351.338
351.142
350.974
350.827
350.697
350.58
350.474
350.377
350.287
350.204
350.125
350.052
349.982
349.915
349.852
349.792
349.734
349.678
349.624
349.572
349.521
349.473
349.425
349.379
349.335
349.291
349.249
349.208
349.168
349.128
349.09
349.053
349.016
348.981
348.946
348.912
348.879
348.846
348.814
348.784
348.753
348.724
348.695
348.667
348.64
348.613
348.587
348.561
348.537
348.512
348.489
348.466
348.444
348.422
348.401
348.381
348.361
348.342
348.324
348.306
348.288
348.272
348.256
348.24
348.225
348.211
348.197
348.184
348.171
348.159
348.148
348.137
348.126
348.117
348.107
348.099
348.091
348.083
348.076
348.07
348.064
348.059
348.054
348.05
348.046
348.043
348.041
348.039
348.038
348.037
348.036
388.608
374.836
367.169
362.695
359.873
357.954
356.564
355.504
354.663
353.974
353.395
352.897
352.462
352.075
351.728
351.412
351.122
350.854
350.604
350.37
350.149
349.94
349.742
349.552
349.371
349.197
349.029
348.868
348.712
348.561
348.415
348.273
348.136
348.002
347.871
347.744
347.621
347.5
347.383
347.268
347.156
347.046
346.94
346.835
346.733
346.634
346.537
346.442
346.349
346.258
346.17
346.083
345.999
345.917
345.837
345.759
345.682
345.608
345.536
345.465
345.397
345.33
345.265
345.203
345.142
345.082
345.025
344.969
344.916
344.864
344.814
344.765
344.719
344.674
344.631
344.589
344.55
344.512
344.476
344.441
344.409
344.378
344.348
344.321
344.295
344.271
344.248
344.227
344.208
344.191
344.175
344.161
344.148
344.138
344.129
344.121
344.115
344.111
344.109
344.108
393.22
382.287
374.547
369.193
365.416
362.658
360.568
358.929
357.603
356.502
355.568
354.76
354.05
353.417
352.846
352.326
351.848
351.404
350.991
350.603
350.238
349.891
349.561
349.247
348.946
348.656
348.378
348.11
347.85
347.6
347.356
347.12
346.891
346.668
346.451
346.24
346.034
345.833
345.638
345.446
345.26
345.078
344.9
344.726
344.556
344.391
344.229
344.07
343.916
343.765
343.618
343.474
343.333
343.196
343.063
342.933
342.806
342.682
342.561
342.444
342.33
342.219
342.111
342.006
341.905
341.806
341.71
341.618
341.528
341.442
341.358
341.277
341.2
341.125
341.053
340.984
340.918
340.855
340.795
340.738
340.683
340.632
340.583
340.537
340.494
340.453
340.416
340.381
340.349
340.32
340.294
340.271
340.25
340.232
340.217
340.204
340.195
340.188
340.184
340.183
395.203
386.544
379.54
374.113
369.939
366.694
364.123
362.041
360.318
358.865
357.617
356.527
355.562
354.698
353.915
353.199
352.54
351.927
351.355
350.817
350.309
349.827
349.368
348.93
348.511
348.108
347.72
347.345
346.983
346.633
346.293
345.964
345.644
345.332
345.029
344.734
344.446
344.165
343.892
343.624
343.363
343.109
342.86
342.617
342.38
342.148
341.921
341.7
341.484
341.273
341.066
340.865
340.669
340.477
340.29
340.108
339.93
339.757
339.589
339.425
339.265
339.11
338.959
338.812
338.67
338.532
338.398
338.268
338.143
338.022
337.905
337.792
337.684
337.579
337.478
337.382
337.29
337.201
337.117
337.037
336.961
336.888
336.82
336.756
336.695
336.639
336.587
336.538
336.493
336.453
336.416
336.383
336.354
336.329
336.308
336.291
336.277
336.268
336.262
336.26
396.247
389.149
382.956
377.781
373.535
370.058
367.189
364.794
362.766
361.024
359.508
358.17
356.976
355.899
354.919
354.019
353.187
352.412
351.686
351.003
350.357
349.743
349.159
348.599
348.063
347.548
347.051
346.572
346.109
345.66
345.225
344.803
344.392
343.993
343.604
343.225
342.856
342.496
342.144
341.801
341.467
341.14
340.82
340.508
340.203
339.906
339.615
339.33
339.053
338.782
338.517
338.259
338.006
337.76
337.52
337.286
337.058
336.835
336.619
336.408
336.203
336.003
335.809
335.621
335.438
335.261
335.089
334.923
334.761
334.606
334.456
334.311
334.171
334.037
333.907
333.784
333.665
333.551
333.443
333.34
333.242
333.149
333.061
332.979
332.901
332.829
332.761
332.699
332.642
332.59
332.542
332.5
332.463
332.431
332.403
332.381
332.364
332.352
332.344
332.342
396.88
390.851
385.352
380.521
376.363
372.814
369.784
367.182
364.93
362.961
361.222
359.672
358.275
357.007
355.846
354.775
353.781
352.852
351.98
351.157
350.377
349.635
348.927
348.25
347.6
346.974
346.371
345.789
345.226
344.68
344.15
343.636
343.136
342.649
342.175
341.714
341.264
340.825
340.396
339.978
339.569
339.17
338.781
338.4
338.028
337.665
337.31
336.963
336.624
336.293
335.97
335.654
335.347
335.046
334.753
334.467
334.188
333.917
333.652
333.395
333.144
332.901
332.664
332.434
332.211
331.994
331.784
331.581
331.384
331.194
331.011
330.834
330.663
330.499
330.341
330.19
330.045
329.907
329.774
329.648
329.529
329.415
329.308
329.207
329.113
329.024
328.942
328.866
328.796
328.732
328.674
328.622
328.577
328.538
328.504
328.477
328.456
328.441
328.432
328.429
397.301
392.026
387.082
382.588
378.584
375.053
371.951
369.222
366.812
364.669
362.751
361.022
359.45
358.012
356.687
355.458
354.313
353.239
352.228
351.272
350.364
349.498
348.672
347.879
347.118
346.384
345.677
344.993
344.331
343.69
343.067
342.462
341.874
341.301
340.743
340.199
339.669
339.151
338.646
338.153
337.672
337.201
336.742
336.293
335.854
335.425
335.006
334.597
334.197
333.807
333.426
333.053
332.69
332.335
331.989
331.652
331.323
331.002
330.69
330.386
330.091
329.803
329.523
329.252
328.988
328.733
328.485
328.245
328.013
327.788
327.572
327.363
327.161
326.967
326.781
326.603
326.432
326.268
326.112
325.963
325.822
325.688
325.561
325.442
325.33
325.226
325.129
325.039
324.956
324.881
324.813
324.752
324.698
324.651
324.612
324.58
324.555
324.538
324.527
324.524
397.598
392.87
388.362
384.167
380.333
376.865
373.747
370.947
368.429
366.156
364.096
362.217
360.495
358.907
357.435
356.063
354.778
353.569
352.427
351.344
350.314
349.33
348.388
347.484
346.614
345.776
344.967
344.184
343.425
342.689
341.975
341.28
340.605
339.947
339.306
338.68
338.071
337.476
336.895
336.327
335.773
335.232
334.703
334.186
333.681
333.188
332.705
332.234
331.774
331.324
330.885
330.456
330.037
329.629
329.23
328.841
328.462
328.093
327.733
327.383
327.042
326.711
326.389
326.076
325.772
325.477
325.192
324.915
324.648
324.389
324.139
323.898
323.666
323.443
323.228
323.022
322.825
322.637
322.457
322.285
322.122
321.968
321.822
321.685
321.556
321.435
321.323
321.22
321.124
321.038
320.959
320.889
320.827
320.773
320.728
320.691
320.662
320.642
320.63
320.626
397.815
393.495
389.329
385.388
381.715
378.329
375.227
372.392
369.803
367.434
365.261
363.26
361.41
359.691
358.088
356.586
355.173
353.838
352.574
351.371
350.224
349.126
348.074
347.062
346.088
345.147
344.238
343.358
342.505
341.677
340.873
340.09
339.328
338.586
337.863
337.158
336.469
335.798
335.141
334.501
333.875
333.263
332.665
332.081
331.51
330.952
330.407
329.874
329.353
328.844
328.347
327.862
327.389
326.927
326.476
326.036
325.607
325.189
324.782
324.386
324
323.625
323.26
322.906
322.563
322.229
321.906
321.593
321.29
320.997
320.715
320.442
320.179
319.926
319.683
319.45
319.227
319.014
318.81
318.616
318.431
318.257
318.092
317.936
317.79
317.654
317.527
317.41
317.302
317.203
317.114
317.035
316.965
316.904
316.853
316.811
316.779
316.756
316.742
316.738
397.978
393.969
390.072
386.341
382.814
379.513
376.441
373.595
370.96
368.521
366.259
364.157
362.198
360.365
358.645
357.026
355.495
354.045
352.665
351.35
350.092
348.886
347.727
346.612
345.536
344.497
343.491
342.517
341.571
340.652
339.759
338.89
338.044
337.219
336.415
335.63
334.864
334.117
333.386
332.673
331.975
331.294
330.628
329.977
329.341
328.719
328.111
327.517
326.936
326.369
325.815
325.274
324.745
324.23
323.727
323.236
322.758
322.292
321.838
321.395
320.965
320.547
320.14
319.745
319.361
318.989
318.628
318.279
317.941
317.614
317.299
316.994
316.701
316.419
316.148
315.888
315.639
315.4
315.173
314.956
314.75
314.555
314.371
314.198
314.035
313.882
313.741
313.61
313.489
313.38
313.28
313.192
313.113
313.046
312.989
312.942
312.906
312.88
312.864
312.86
398.103
394.335
390.65
387.09
383.69
380.468
377.434
374.589
371.925
369.434
367.102
364.917
362.864
360.932
359.109
357.383
355.745
354.187
352.701
351.279
349.916
348.607
347.347
346.132
344.959
343.824
342.724
341.657
340.621
339.614
338.635
337.681
336.751
335.845
334.961
334.098
333.256
332.433
331.629
330.844
330.076
329.326
328.592
327.875
327.173
326.488
325.818
325.163
324.523
323.898
323.287
322.69
322.108
321.539
320.985
320.443
319.916
319.401
318.901
318.413
317.938
317.476
317.027
316.591
316.168
315.758
315.36
314.974
314.601
314.241
313.893
313.557
313.233
312.922
312.623
312.335
312.06
311.797
311.546
311.307
311.08
310.865
310.662
310.47
310.29
310.122
309.966
309.821
309.689
309.567
309.458
309.36
309.274
309.199
309.136
309.084
309.044
309.016
308.999
308.993
398.2
394.619
391.102
387.683
384.388
381.238
378.242
375.404
372.723
370.192
367.804
365.548
363.416
361.397
359.481
357.66
355.924
354.266
352.68
351.159
349.697
348.29
346.933
345.622
344.355
343.127
341.936
340.779
339.655
338.562
337.498
336.461
335.45
334.464
333.501
332.561
331.644
330.747
329.87
329.014
328.176
327.358
326.557
325.774
325.009
324.261
323.529
322.814
322.115
321.432
320.765
320.113
319.477
318.855
318.249
317.658
317.081
316.519
315.972
315.439
314.92
314.415
313.924
313.448
312.985
312.536
312.101
311.68
311.272
310.878
310.497
310.13
309.776
309.436
309.109
308.795
308.494
308.206
307.932
307.671
307.422
307.187
306.964
306.755
306.558
306.375
306.204
306.046
305.9
305.768
305.648
305.541
305.446
305.365
305.296
305.239
305.195
305.164
305.146
305.14
398.276
394.842
391.459
388.152
384.945
381.856
378.895
376.067
373.374
370.812
368.378
366.063
363.862
361.766
359.767
357.859
356.033
354.284
352.604
350.989
349.434
347.933
346.484
345.081
343.723
342.405
341.126
339.883
338.673
337.496
336.349
335.23
334.139
333.075
332.035
331.02
330.027
329.058
328.11
327.183
326.277
325.391
324.524
323.676
322.847
322.037
321.244
320.469
319.712
318.972
318.249
317.542
316.852
316.179
315.522
314.88
314.255
313.646
313.052
312.474
311.911
311.364
310.832
310.315
309.813
309.326
308.854
308.397
307.954
307.527
307.114
306.715
306.331
305.962
305.607
305.266
304.94
304.628
304.33
304.047
303.777
303.522
303.28
303.053
302.84
302.64
302.455
302.283
302.126
301.982
301.852
301.736
301.633
301.545
301.47
301.408
301.361
301.327
301.307
301.301
398.335
395.017
391.739
388.523
385.388
382.35
379.419
376.601
373.898
371.311
368.837
366.472
364.21
362.045
359.972
357.984
356.075
354.24
352.474
350.771
349.127
347.538
346
344.509
343.064
341.66
340.295
338.967
337.674
336.415
335.187
333.989
332.82
331.678
330.563
329.473
328.408
327.366
326.348
325.352
324.377
323.425
322.492
321.581
320.689
319.817
318.964
318.13
317.315
316.518
315.739
314.978
314.236
313.51
312.802
312.112
311.438
310.782
310.142
309.519
308.913
308.323
307.75
307.193
306.652
306.127
305.618
305.126
304.649
304.188
303.743
303.314
302.9
302.502
302.119
301.752
301.4
301.064
300.743
300.437
300.147
299.871
299.611
299.366
299.136
298.921
298.721
298.536
298.366
298.211
298.071
297.946
297.835
297.74
297.659
297.593
297.542
297.505
297.484
297.477
398.382
395.154
391.959
388.814
385.737
382.74
379.833
377.023
374.312
371.704
369.195
366.784
364.468
362.241
360.1
358.039
356.054
354.139
352.291
350.506
348.778
347.104
345.482
343.907
342.377
340.89
339.442
338.033
336.659
335.319
334.013
332.737
331.491
330.274
329.084
327.921
326.784
325.672
324.584
323.52
322.479
321.46
320.463
319.488
318.534
317.601
316.689
315.796
314.924
314.071
313.237
312.423
311.627
310.85
310.092
309.353
308.631
307.928
307.243
306.575
305.926
305.294
304.68
304.083
303.503
302.941
302.396
301.868
301.357
300.863
300.386
299.926
299.482
299.056
298.646
298.252
297.875
297.514
297.17
296.843
296.531
296.236
295.957
295.694
295.448
295.218
295.003
294.805
294.623
294.456
294.306
294.172
294.053
293.951
293.864
293.794
293.739
293.7
293.676
293.669
398.418
395.26
392.13
389.041
386.009
383.043
380.155
377.349
374.631
372.002
369.462
367.01
364.644
362.361
360.157
358.029
355.972
353.984
352.059
350.195
348.387
346.633
344.93
343.274
341.664
340.096
338.568
337.079
335.627
334.21
332.826
331.474
330.153
328.862
327.6
326.365
325.157
323.976
322.82
321.688
320.581
319.497
318.437
317.399
316.384
315.391
314.419
313.469
312.539
311.631
310.743
309.875
309.028
308.2
307.392
306.604
305.835
305.085
304.355
303.643
302.951
302.277
301.622
300.986
300.368
299.768
299.187
298.624
298.079
297.553
297.044
296.553
296.08
295.625
295.188
294.768
294.366
293.981
293.614
293.265
292.932
292.618
292.32
292.04
291.777
291.531
291.302
291.091
290.896
290.719
290.559
290.415
290.289
290.18
290.087
290.012
289.953
289.912
289.887
289.879
398.446
395.342
392.261
389.215
386.216
383.274
380.399
377.595
374.867
372.218
369.648
367.158
364.746
362.41
360.148
357.957
355.834
353.776
351.779
349.84
347.957
346.127
344.346
342.612
340.924
339.278
337.674
336.108
334.579
333.086
331.627
330.201
328.807
327.444
326.11
324.805
323.528
322.278
321.054
319.857
318.684
317.537
316.414
315.314
314.238
313.185
312.155
311.148
310.162
309.199
308.257
307.337
306.438
305.56
304.702
303.866
303.05
302.254
301.479
300.724
299.989
299.274
298.579
297.903
297.247
296.61
295.993
295.396
294.817
294.258
293.718
293.196
292.694
292.211
291.746
291.3
290.873
290.465
290.075
289.704
289.351
289.017
288.701
288.403
288.124
287.863
287.62
287.395
287.189
287
286.83
286.678
286.543
286.427
286.329
286.249
286.187
286.142
286.116
286.108
398.466
395.402
392.358
389.343
386.369
383.444
380.575
377.769
375.03
372.361
369.763
367.236
364.781
362.396
360.08
357.83
355.644
353.519
351.454
349.445
347.49
345.586
343.731
341.923
340.159
338.439
336.759
335.118
333.515
331.949
330.417
328.919
327.453
326.018
324.615
323.241
321.895
320.578
319.289
318.026
316.79
315.579
314.394
313.234
312.098
310.986
309.899
308.834
307.794
306.776
305.781
304.808
303.858
302.93
302.024
301.14
300.277
299.436
298.617
297.818
297.041
296.285
295.549
294.835
294.141
293.468
292.815
292.183
291.571
290.979
290.408
289.856
289.325
288.814
288.322
287.851
287.399
286.967
286.554
286.161
285.788
285.434
285.1
284.785
284.49
284.213
283.956
283.719
283.5
283.301
283.12
282.959
282.817
282.694
282.591
282.506
282.44
282.393
282.365
282.356
398.481
395.446
392.428
389.435
386.477
383.561
380.694
377.883
375.13
372.44
369.814
367.252
364.756
362.324
359.956
357.65
355.405
353.218
351.087
349.011
346.986
345.012
343.086
341.206
339.37
337.577
335.825
334.112
332.437
330.798
329.195
327.626
326.091
324.587
323.115
321.673
320.261
318.878
317.523
316.196
314.897
313.624
312.378
311.158
309.963
308.794
307.649
306.529
305.433
304.362
303.314
302.29
301.289
300.312
299.358
298.426
297.518
296.631
295.768
294.927
294.107
293.311
292.536
291.783
291.051
290.342
289.654
288.987
288.342
287.718
287.116
286.535
285.974
285.435
284.917
284.42
283.943
283.488
283.053
282.639
282.245
281.872
281.519
281.187
280.876
280.584
280.313
280.063
279.832
279.622
279.432
279.262
279.112
278.983
278.873
278.784
278.714
278.665
278.635
278.626
398.491
395.475
392.474
389.495
386.545
383.633
380.764
377.944
375.176
372.463
369.809
367.213
364.677
362.2
359.783
357.423
355.121
352.874
350.681
348.54
346.45
344.408
342.414
340.464
338.559
336.695
334.873
333.089
331.344
329.636
327.963
326.325
324.721
323.15
321.61
320.102
318.625
317.177
315.758
314.369
313.007
311.673
310.367
309.088
307.835
306.608
305.407
304.232
303.082
301.958
300.858
299.783
298.732
297.706
296.704
295.726
294.771
293.841
292.934
292.05
291.189
290.352
289.538
288.747
287.978
287.233
286.51
285.809
285.131
284.476
283.843
283.232
282.643
282.076
281.531
281.009
280.508
280.029
279.572
279.136
278.723
278.33
277.96
277.611
277.283
276.977
276.692
276.428
276.186
275.965
275.765
275.586
275.429
275.293
275.177
275.083
275.01
274.958
274.928
274.917
398.497
395.492
392.5
389.528
386.581
383.667
380.792
377.959
375.173
372.437
369.754
367.124
364.549
362.029
359.564
357.153
354.796
352.492
350.239
348.036
345.882
343.775
341.715
339.698
337.725
335.794
333.903
332.051
330.238
328.462
326.721
325.016
323.345
321.707
320.102
318.529
316.987
315.476
313.995
312.543
311.121
309.727
308.361
307.023
305.713
304.43
303.174
301.944
300.741
299.564
298.413
297.288
296.188
295.113
294.064
293.039
292.04
291.065
290.115
289.189
288.288
287.41
286.557
285.728
284.923
284.142
283.384
282.65
281.939
281.252
280.589
279.948
279.331
278.737
278.166
277.619
277.094
276.591
276.112
275.656
275.222
274.811
274.422
274.056
273.713
273.391
273.093
272.816
272.562
272.331
272.121
271.934
271.769
271.626
271.505
271.406
271.33
271.275
271.243
271.232
398.499
395.499
392.51
389.537
386.588
383.668
380.782
377.934
375.129
372.368
369.655
366.991
364.377
361.815
359.303
356.843
354.433
352.074
349.763
347.501
345.285
343.116
340.991
338.91
336.872
334.874
332.917
330.999
329.119
327.277
325.47
323.699
321.963
320.26
318.591
316.954
315.349
313.776
312.233
310.72
309.238
307.785
306.361
304.966
303.599
302.26
300.95
299.667
298.411
297.182
295.98
294.805
293.656
292.534
291.438
290.368
289.324
288.305
287.312
286.345
285.403
284.486
283.595
282.728
281.886
281.07
280.278
279.51
278.768
278.049
277.356
276.686
276.041
275.42
274.823
274.25
273.701
273.176
272.675
272.198
271.744
271.314
270.908
270.525
270.165
269.83
269.517
269.228
268.963
268.72
268.501
268.305
268.133
267.983
267.857
267.753
267.673
267.616
267.583
267.572
398.499
395.496
392.505
389.528
386.571
383.641
380.74
377.875
375.047
372.26
369.517
366.819
364.167
361.562
359.006
356.497
354.036
351.623
349.257
346.936
344.662
342.432
340.245
338.101
335.999
333.938
331.916
329.934
327.989
326.082
324.211
322.376
320.575
318.81
317.077
315.378
313.711
312.076
310.473
308.901
307.36
305.848
304.367
302.916
301.493
300.1
298.735
297.399
296.091
294.812
293.56
292.335
291.139
289.969
288.827
287.712
286.623
285.562
284.527
283.518
282.536
281.58
280.651
279.747
278.869
278.018
277.192
276.391
275.617
274.868
274.144
273.445
272.772
272.125
271.502
270.904
270.332
269.784
269.261
268.763
268.29
267.841
267.417
267.018
266.643
266.292
265.966
265.665
265.388
265.135
264.906
264.702
264.521
264.365
264.234
264.126
264.042
263.983
263.947
263.936
398.495
395.486
392.487
389.501
386.533
383.588
380.671
377.785
374.933
372.119
369.344
366.611
363.921
361.275
358.674
356.119
353.608
351.143
348.722
346.346
344.014
341.725
339.478
337.273
335.109
332.986
330.902
328.856
326.849
324.878
322.944
321.047
319.184
317.356
315.562
313.801
312.074
310.379
308.717
307.086
305.486
303.918
302.38
300.873
299.396
297.949
296.531
295.143
293.784
292.454
291.152
289.88
288.635
287.419
286.232
285.072
283.94
282.835
281.759
280.71
279.688
278.693
277.726
276.786
275.873
274.986
274.127
273.294
272.487
271.708
270.954
270.228
269.527
268.853
268.204
267.582
266.986
266.416
265.871
265.353
264.86
264.393
263.952
263.536
263.145
262.781
262.441
262.127
261.838
261.575
261.337
261.124
260.937
260.774
260.637
260.525
260.438
260.376
260.339
260.327
398.49
395.47
392.458
389.459
386.476
383.514
380.577
377.668
374.79
371.947
369.141
366.373
363.645
360.958
358.313
355.711
353.152
350.635
348.162
345.731
343.343
340.997
338.692
336.428
334.204
332.02
329.875
327.768
325.699
323.667
321.672
319.712
317.789
315.9
314.045
312.225
310.438
308.685
306.964
305.275
303.619
301.994
300.401
298.839
297.308
295.808
294.338
292.899
291.489
290.109
288.759
287.439
286.148
284.886
283.653
282.449
281.274
280.127
279.01
277.92
276.859
275.827
274.822
273.846
272.897
271.976
271.084
270.218
269.381
268.571
267.788
267.033
266.305
265.605
264.931
264.285
263.665
263.073
262.507
261.968
261.456
260.971
260.512
260.08
259.674
259.295
258.943
258.616
258.316
258.042
257.795
257.574
257.379
257.21
257.067
256.951
256.86
256.796
256.758
256.745
398.483
395.448
392.421
389.404
386.403
383.421
380.461
377.528
374.623
371.75
368.91
366.107
363.341
360.613
357.925
355.277
352.67
350.104
347.579
345.095
342.652
340.25
337.888
335.566
333.284
331.041
328.836
326.67
324.541
322.449
320.393
318.374
316.391
314.442
312.529
310.65
308.805
306.994
305.216
303.471
301.758
300.078
298.431
296.815
295.231
293.678
292.157
290.667
289.207
287.779
286.381
285.013
283.676
282.368
281.091
279.844
278.626
277.438
276.28
275.151
274.051
272.98
271.939
270.927
269.943
268.989
268.063
267.166
266.298
265.458
264.646
263.863
263.108
262.382
261.683
261.013
260.37
259.756
259.169
258.61
258.079
257.576
257.1
256.652
256.231
255.837
255.471
255.133
254.822
254.538
254.281
254.052
253.849
253.674
253.526
253.405
253.311
253.244
253.205
253.192
398.474
395.42
392.375
389.339
386.316
383.311
380.327
377.367
374.433
371.529
368.656
365.816
363.012
360.243
357.512
354.819
352.165
349.55
346.975
344.439
341.943
339.486
337.069
334.691
332.351
330.051
327.788
325.563
323.375
321.225
319.111
317.033
314.991
312.985
311.013
309.077
307.174
305.306
303.472
301.672
299.905
298.17
296.469
294.8
293.164
291.56
289.988
288.448
286.94
285.463
284.017
282.603
281.22
279.868
278.547
277.257
275.997
274.768
273.57
272.402
271.264
270.156
269.078
268.031
267.013
266.025
265.067
264.138
263.239
262.369
261.529
260.719
259.937
259.185
258.461
257.767
257.102
256.466
255.858
255.279
254.729
254.208
253.715
253.251
252.815
252.408
252.029
251.678
251.356
251.062
250.796
250.558
250.349
250.167
250.014
249.889
249.792
249.722
249.681
249.668
398.463
395.389
392.322
389.263
386.217
383.188
380.177
377.188
374.225
371.288
368.381
365.504
362.661
359.852
357.078
354.341
351.64
348.977
346.352
343.765
341.217
338.707
336.236
333.803
331.408
329.051
326.731
324.449
322.204
319.996
317.825
315.69
313.591
311.527
309.499
307.506
305.548
303.624
301.735
299.88
298.059
296.271
294.517
292.796
291.109
289.454
287.832
286.243
284.687
283.162
281.67
280.21
278.783
277.386
276.022
274.69
273.389
272.119
270.881
269.674
268.498
267.354
266.24
265.158
264.106
263.085
262.094
261.135
260.205
259.307
258.438
257.6
256.792
256.015
255.267
254.549
253.861
253.204
252.575
251.977
251.408
250.869
250.36
249.88
249.429
249.008
248.616
248.254
247.92
247.616
247.341
247.095
246.879
246.691
246.532
246.403
246.302
246.231
246.188
246.174
398.452
395.354
392.263
389.179
386.108
383.051
380.013
376.994
373.999
371.029
368.087
365.173
362.291
359.441
356.625
353.843
351.097
348.387
345.713
343.076
340.477
337.915
335.39
332.903
330.454
328.042
325.667
323.329
321.028
318.764
316.537
314.345
312.19
310.071
307.987
305.939
303.926
301.948
300.004
298.096
296.222
294.382
292.576
290.804
289.066
287.362
285.691
284.053
282.449
280.878
279.34
277.835
276.363
274.923
273.517
272.142
270.8
269.491
268.214
266.969
265.756
264.575
263.426
262.309
261.223
260.17
259.148
258.157
257.198
256.27
255.374
254.509
253.675
252.872
252.1
251.359
250.649
249.97
249.322
248.704
248.117
247.56
247.034
246.538
246.073
245.638
245.234
244.859
244.515
244.201
243.917
243.663
243.439
243.246
243.082
242.948
242.844
242.77
242.726
242.712
398.439
395.315
392.198
389.088
385.989
382.904
379.836
376.786
373.758
370.754
367.776
364.826
361.904
359.014
356.155
353.33
350.538
347.781
345.059
342.374
339.724
337.111
334.534
331.995
329.492
327.026
324.597
322.204
319.849
317.53
315.247
313.001
310.791
308.617
306.479
304.376
302.309
300.277
298.281
296.32
294.394
292.502
290.646
288.824
287.036
285.283
283.563
281.878
280.228
278.611
277.027
275.478
273.962
272.48
271.031
269.615
268.233
266.884
265.569
264.286
263.036
261.82
260.636
259.484
258.366
257.28
256.227
255.206
254.217
253.261
252.337
251.445
250.586
249.758
248.962
248.199
247.467
246.766
246.098
245.461
244.855
244.281
243.739
243.228
242.748
242.3
241.882
241.496
241.141
240.818
240.525
240.263
240.032
239.832
239.663
239.525
239.418
239.342
239.297
239.282
398.425
395.274
392.129
388.991
385.863
382.748
379.648
376.566
373.505
370.466
367.451
364.463
361.503
358.571
355.67
352.801
349.965
347.162
344.393
341.659
338.96
336.296
333.669
331.078
328.523
326.004
323.522
321.076
318.667
316.294
313.957
311.657
309.393
307.166
304.974
302.818
300.699
298.615
296.566
294.553
292.576
290.634
288.727
286.856
285.019
283.218
281.452
279.72
278.023
276.36
274.733
273.14
271.581
270.056
268.566
267.11
265.688
264.301
262.947
261.627
260.341
259.089
257.871
256.686
255.535
254.417
253.333
252.282
251.264
250.28
249.329
248.411
247.526
246.673
245.854
245.068
244.314
243.593
242.904
242.249
241.625
241.034
240.476
239.949
239.455
238.993
238.564
238.166
237.8
237.467
237.165
236.896
236.658
236.452
236.278
236.136
236.026
235.947
235.9
235.885
398.41
395.23
392.056
388.888
385.729
382.583
379.451
376.336
373.24
370.166
367.114
364.088
361.088
358.116
355.173
352.261
349.38
346.531
343.716
340.934
338.186
335.474
332.796
330.154
327.548
324.977
322.443
319.945
317.483
315.057
312.668
310.315
307.999
305.719
303.475
301.267
299.095
296.96
294.86
292.797
290.769
288.778
286.822
284.902
283.017
281.169
279.356
277.578
275.836
274.129
272.457
270.821
269.22
267.654
266.123
264.627
263.166
261.74
260.349
258.993
257.671
256.384
255.132
253.914
252.73
251.581
250.467
249.386
248.34
247.328
246.35
245.406
244.495
243.619
242.776
241.968
241.192
240.451
239.743
239.068
238.427
237.819
237.244
236.703
236.195
235.72
235.278
234.869
234.493
234.15
233.839
233.562
233.317
233.106
232.927
232.78
232.667
232.586
232.538
232.522
398.395
395.185
391.979
388.78
385.59
382.411
379.246
376.097
372.966
369.855
366.767
363.702
360.662
357.649
354.664
351.709
348.784
345.89
343.029
340.2
337.405
334.644
331.917
329.225
326.568
323.947
321.362
318.812
316.299
313.822
311.381
308.976
306.608
304.276
301.981
299.722
297.5
295.314
293.164
291.051
288.974
286.934
284.93
282.962
281.031
279.135
277.276
275.453
273.667
271.916
270.201
268.523
266.88
265.273
263.702
262.167
260.667
259.204
257.776
256.383
255.027
253.705
252.419
251.169
249.954
248.774
247.629
246.519
245.445
244.405
243.4
242.431
241.496
240.596
239.73
238.899
238.103
237.341
236.614
235.92
235.262
234.637
234.047
233.49
232.968
232.48
232.026
231.606
231.219
230.867
230.548
230.263
230.012
229.794
229.61
229.46
229.343
229.26
229.21
229.194
398.379
395.137
391.9
388.668
385.445
382.233
379.034
375.85
372.683
369.536
366.409
363.306
360.226
357.173
354.146
351.148
348.18
345.241
342.334
339.459
336.617
333.808
331.033
328.292
325.586
322.915
320.28
317.68
315.116
312.588
310.096
307.641
305.222
302.84
300.494
298.185
295.913
293.677
291.479
289.317
287.192
285.103
283.052
281.037
279.059
277.118
275.214
273.347
271.516
269.723
267.966
266.245
264.561
262.914
261.304
259.73
258.193
256.692
255.228
253.8
252.408
251.053
249.734
248.452
247.205
245.995
244.82
243.682
242.579
241.513
240.482
239.487
238.528
237.604
236.716
235.863
235.046
234.264
233.517
232.806
232.13
231.489
230.883
230.312
229.776
229.275
228.809
228.378
227.981
227.619
227.292
226.999
226.741
226.518
226.329
226.175
226.055
225.969
225.918
225.902
398.363
395.088
391.818
388.553
385.296
382.05
378.816
375.596
372.393
369.209
366.044
362.902
359.783
356.689
353.621
350.58
347.568
344.585
341.633
338.712
335.824
332.968
330.145
327.356
324.602
321.882
319.197
316.548
313.934
311.357
308.815
306.31
303.842
301.41
299.015
296.657
294.335
292.051
289.804
287.594
285.422
283.287
281.189
279.128
277.105
275.119
273.171
271.26
269.386
267.55
265.751
263.99
262.266
260.579
258.93
257.318
255.743
254.206
252.706
251.243
249.817
248.429
247.077
245.763
244.485
243.245
242.041
240.875
239.745
238.652
237.595
236.575
235.592
234.645
233.734
232.86
232.022
231.221
230.455
229.726
229.033
228.376
227.754
227.169
226.619
226.106
225.628
225.185
224.778
224.407
224.072
223.772
223.507
223.278
223.084
222.926
222.803
222.716
222.663
222.646
398.346
395.037
391.733
388.434
385.143
381.862
378.593
375.337
372.097
368.875
365.673
362.491
359.333
356.198
353.088
350.005
346.95
343.924
340.927
337.961
335.027
332.124
329.255
326.419
323.616
320.849
318.116
315.418
312.756
310.129
307.539
304.985
302.468
299.988
297.544
295.138
292.768
290.437
288.142
285.885
283.666
281.485
279.341
277.235
275.167
273.137
271.145
269.192
267.276
265.398
263.558
261.756
259.993
258.267
256.58
254.93
253.319
251.746
250.211
248.713
247.254
245.833
244.449
243.104
241.796
240.526
239.293
238.099
236.942
235.822
234.74
233.696
232.689
231.719
230.786
229.891
229.033
228.212
227.428
226.681
225.971
225.298
224.661
224.062
223.499
222.972
222.483
222.029
221.613
221.232
220.889
220.581
220.31
220.075
219.877
219.715
219.589
219.499
219.446
219.428
398.329
394.986
391.647
388.314
384.987
381.671
378.365
375.073
371.797
368.537
365.296
362.075
358.877
355.701
352.55
349.425
346.328
343.258
340.217
337.207
334.227
331.279
328.363
325.481
322.632
319.817
317.036
314.291
311.581
308.907
306.269
303.667
301.102
298.574
296.082
293.629
291.212
288.834
286.493
284.19
281.925
279.698
277.51
275.36
273.248
271.175
269.14
267.144
265.186
263.268
261.387
259.546
257.744
255.98
254.255
252.569
250.921
249.313
247.743
246.212
244.719
243.266
241.851
240.474
239.136
237.837
236.577
235.354
234.171
233.025
231.918
230.85
229.819
228.827
227.873
226.957
226.079
225.238
224.436
223.672
222.945
222.256
221.605
220.991
220.415
219.876
219.375
218.911
218.484
218.095
217.743
217.429
217.151
216.911
216.708
216.542
216.413
216.321
216.266
216.248
398.312
394.933
391.56
388.191
384.829
381.476
378.134
374.806
371.492
368.194
364.915
361.655
358.416
355.2
352.008
348.842
345.702
342.589