/*--------------------------------*- C++ -*----------------------------------*\
  =========                 |
  \\      /  F ield         | OpenFOAM: The Open Source CFD Toolbox
   \\    /   O peration     | Website:  https://openfoam.org
    \\  /    A nd           | Version:  10
     \\/     M anipulation  |
\*---------------------------------------------------------------------------*/
FoamFile
{
    format      ascii;
    class       volScalarField;
    location    "28";
    object      T_0;
}
// * * * * * * * * * * * * * * * * * * * * * * * * * * * * * * * * * * * * * //

dimensions      [0 0 0 1 0 0 0];

internalField   nonuniform List<scalar> 
10000
(
374.98
361.283
356.599
354.544
353.427
352.722
352.229
351.86
351.572
351.337
351.14
350.972
350.825
350.695
350.579
350.473
350.375
350.286
350.202
350.124
350.05
349.98
349.914
349.851
349.79
349.732
349.676
349.622
349.57
349.52
349.471
349.424
349.378
349.333
349.289
349.247
349.206
349.166
349.126
349.088
349.051
349.014
348.979
348.944
348.91
348.877
348.844
348.813
348.782
348.751
348.722
348.693
348.665
348.638
348.611
348.585
348.559
348.535
348.51
348.487
348.464
348.442
348.42
348.399
348.379
348.359
348.34
348.322
348.304
348.286
348.27
348.254
348.238
348.223
348.209
348.195
348.182
348.169
348.157
348.145
348.135
348.124
348.114
348.105
348.097
348.089
348.081
348.074
348.068
348.062
348.057
348.052
348.048
348.044
348.041
348.039
348.037
348.035
348.035
348.034
388.607
374.837
367.17
362.695
359.873
357.954
356.564
355.504
354.663
353.974
353.395
352.897
352.462
352.075
351.728
351.412
351.122
350.854
350.604
350.37
350.149
349.94
349.741
349.552
349.37
349.196
349.029
348.867
348.712
348.561
348.414
348.273
348.135
348.001
347.871
347.744
347.62
347.499
347.382
347.267
347.155
347.045
346.939
346.834
346.732
346.633
346.535
346.44
346.348
346.257
346.169
346.082
345.998
345.916
345.835
345.757
345.681
345.607
345.534
345.464
345.395
345.329
345.264
345.201
345.14
345.081
345.024
344.968
344.914
344.862
344.812
344.764
344.717
344.672
344.629
344.588
344.548
344.51
344.474
344.44
344.407
344.376
344.347
344.319
344.293
344.269
344.246
344.226
344.207
344.189
344.173
344.159
344.147
344.136
344.127
344.12
344.114
344.11
344.107
344.106
393.218
382.287
374.547
369.192
365.415
362.658
360.568
358.928
357.602
356.502
355.568
354.759
354.049
353.416
352.845
352.325
351.846
351.403
350.99
350.602
350.236
349.89
349.56
349.245
348.944
348.655
348.376
348.108
347.849
347.598
347.354
347.118
346.889
346.666
346.449
346.238
346.032
345.831
345.635
345.444
345.257
345.075
344.897
344.724
344.554
344.388
344.226
344.068
343.913
343.762
343.615
343.471
343.331
343.194
343.06
342.93
342.803
342.679
342.558
342.441
342.327
342.216
342.108
342.003
341.901
341.803
341.707
341.615
341.525
341.438
341.355
341.274
341.197
341.122
341.05
340.981
340.915
340.852
340.792
340.734
340.68
340.628
340.579
340.533
340.49
340.45
340.413
340.378
340.346
340.317
340.291
340.267
340.246
340.229
340.213
340.201
340.191
340.185
340.181
340.179
395.201
386.545
379.54
374.113
369.939
366.694
364.122
362.04
360.318
358.864
357.616
356.526
355.561
354.697
353.914
353.198
352.538
351.925
351.353
350.815
350.307
349.825
349.366
348.928
348.509
348.105
347.717
347.343
346.981
346.63
346.291
345.961
345.641
345.329
345.026
344.731
344.443
344.162
343.888
343.621
343.36
343.105
342.856
342.613
342.376
342.144
341.917
341.696
341.48
341.269
341.063
340.861
340.665
340.473
340.286
340.104
339.926
339.753
339.584
339.42
339.261
339.105
338.954
338.808
338.665
338.527
338.394
338.264
338.139
338.017
337.9
337.788
337.679
337.574
337.474
337.377
337.285
337.197
337.112
337.032
336.956
336.884
336.815
336.751
336.691
336.634
336.582
336.533
336.489
336.448
336.411
336.378
336.349
336.324
336.303
336.286
336.272
336.263
336.257
336.255
396.245
389.149
382.955
377.781
373.535
370.057
367.189
364.793
362.765
361.023
359.506
358.169
356.975
355.898
354.918
354.018
353.185
352.41
351.684
351.001
350.355
349.741
349.156
348.597
348.06
347.545
347.048
346.569
346.106
345.657
345.222
344.799
344.389
343.989
343.6
343.221
342.852
342.492
342.14
341.797
341.462
341.135
340.816
340.504
340.199
339.901
339.61
339.326
339.048
338.777
338.512
338.254
338.001
337.755
337.515
337.281
337.052
336.83
336.613
336.402
336.197
335.998
335.804
335.615
335.432
335.255
335.083
334.917
334.756
334.6
334.45
334.305
334.165
334.031
333.902
333.778
333.659
333.545
333.437
333.334
333.236
333.143
333.055
332.973
332.895
332.823
332.755
332.693
332.636
332.583
332.536
332.494
332.457
332.424
332.397
332.375
332.358
332.345
332.338
332.336
396.879
390.852
385.352
380.52
376.363
372.813
369.783
367.181
364.928
362.959
361.221
359.67
358.274
357.005
355.844
354.773
353.778
352.849
351.977
351.154
350.374
349.632
348.924
348.247
347.596
346.971
346.368
345.785
345.222
344.676
344.146
343.631
343.131
342.645
342.171
341.709
341.259
340.82
340.391
339.973
339.564
339.165
338.775
338.395
338.023
337.659
337.304
336.957
336.618
336.287
335.964
335.648
335.34
335.04
334.747
334.461
334.182
333.91
333.646
333.388
333.138
332.894
332.657
332.427
332.204
331.987
331.777
331.574
331.377
331.187
331.004
330.827
330.656
330.492
330.334
330.183
330.038
329.899
329.767
329.641
329.521
329.408
329.301
329.2
329.105
329.017
328.934
328.858
328.788
328.724
328.667
328.615
328.57
328.53
328.497
328.47
328.449
328.434
328.425
328.422
397.3
392.026
387.081
382.588
378.583
375.052
371.95
369.221
366.81
364.668
362.75
361.02
359.448
358.009
356.684
355.455
354.31
353.236
352.225
351.268
350.36
349.495
348.668
347.875
347.114
346.38
345.673
344.989
344.327
343.685
343.062
342.457
341.868
341.295
340.737
340.193
339.663
339.145
338.64
338.147
337.665
337.195
336.735
336.286
335.847
335.419
335
334.59
334.19
333.8
333.418
333.046
332.683
332.328
331.982
331.644
331.315
330.995
330.682
330.378
330.083
329.795
329.515
329.244
328.98
328.724
328.477
328.237
328.004
327.78
327.563
327.354
327.153
326.959
326.773
326.594
326.423
326.259
326.103
325.954
325.813
325.679
325.553
325.433
325.322
325.217
325.12
325.03
324.947
324.872
324.804
324.743
324.689
324.643
324.603
324.571
324.546
324.529
324.518
324.515
397.596
392.87
388.361
384.167
380.332
376.864
373.745
370.945
368.427
366.154
364.093
362.215
360.492
358.904
357.432
356.06
354.775
353.566
352.423
351.34
350.309
349.325
348.383
347.479
346.61
345.771
344.962
344.178
343.42
342.684
341.969
341.274
340.599
339.94
339.299
338.674
338.064
337.469
336.888
336.32
335.766
335.225
334.696
334.179
333.673
333.18
332.697
332.226
331.766
331.316
330.876
330.447
330.029
329.62
329.221
328.832
328.453
328.084
327.724
327.374
327.033
326.702
326.379
326.066
325.763
325.468
325.182
324.906
324.638
324.379
324.13
323.889
323.657
323.433
323.218
323.013
322.815
322.627
322.447
322.275
322.112
321.958
321.812
321.675
321.546
321.425
321.313
321.21
321.114
321.027
320.949
320.879
320.817
320.763
320.718
320.681
320.652
320.632
320.62
320.616
397.813
393.495
389.328
385.387
381.714
378.328
375.225
372.39
369.801
367.432
365.259
363.257
361.407
359.688
358.084
356.582
355.169
353.834
352.569
351.367
350.219
349.121
348.069
347.057
346.082
345.142
344.233
343.352
342.499
341.671
340.866
340.083
339.322
338.579
337.856
337.15
336.462
335.79
335.134
334.493
333.867
333.255
332.657
332.072
331.501
330.943
330.398
329.865
329.344
328.835
328.338
327.853
327.379
326.917
326.466
326.026
325.597
325.179
324.772
324.376
323.99
323.615
323.25
322.896
322.552
322.218
321.895
321.582
321.279
320.986
320.704
320.431
320.168
319.915
319.672
319.439
319.216
319.002
318.799
318.605
318.42
318.245
318.08
317.925
317.779
317.642
317.516
317.398
317.29
317.192
317.103
317.023
316.953
316.893
316.842
316.8
316.767
316.744
316.73
316.726
397.976
393.97
390.071
386.34
382.813
379.511
376.44
373.593
370.958
368.518
366.256
364.154
362.194
360.362
358.642
357.022
355.491
354.04
352.661
351.345
350.087
348.881
347.722
346.606
345.53
344.491
343.485
342.51
341.564
340.645
339.752
338.883
338.036
337.211
336.407
335.622
334.856
334.108
333.378
332.664
331.966
331.285
330.619
329.967
329.331
328.709
328.101
327.506
326.926
326.358
325.804
325.263
324.735
324.219
323.716
323.225
322.747
322.28
321.826
321.384
320.954
320.535
320.128
319.733
319.349
318.977
318.616
318.267
317.929
317.602
317.287
316.982
316.689
316.407
316.135
315.875
315.626
315.388
315.16
314.944
314.738
314.543
314.358
314.185
314.022
313.87
313.728
313.597
313.477
313.367
313.268
313.179
313.101
313.033
312.976
312.929
312.893
312.867
312.852
312.847
398.101
394.335
390.649
387.089
383.688
380.466
377.432
374.586
371.923
369.431
367.099
364.913
362.861
360.928
359.105
357.379
355.741
354.182
352.696
351.274
349.911
348.602
347.341
346.126
344.952
343.817
342.717
341.65
340.614
339.607
338.627
337.673
336.743
335.837
334.952
334.089
333.247
332.424
331.62
330.834
330.066
329.315
328.582
327.864
327.163
326.477
325.807
325.152
324.512
323.886
323.275
322.679
322.096
321.527
320.972
320.431
319.903
319.389
318.888
318.4
317.925
317.464
317.015
316.579
316.155
315.745
315.346
314.961
314.588
314.227
313.879
313.543
313.22
312.908
312.609
312.322
312.047
311.784
311.533
311.294
311.066
310.851
310.648
310.456
310.276
310.108
309.952
309.807
309.674
309.553
309.444
309.346
309.259
309.185
309.121
309.07
309.03
309.001
308.985
308.979
398.198
394.619
391.101
387.682
384.387
381.236
378.24
375.402
372.72
370.189
367.8
365.545
363.412
361.393
359.477
357.655
355.919
354.261
352.675
351.153
349.691
348.284
346.926
345.615
344.347
343.119
341.928
340.771
339.647
338.554
337.489
336.452
335.441
334.454
333.491
332.552
331.633
330.736
329.86
329.003
328.165
327.347
326.546
325.763
324.997
324.249
323.517
322.802
322.103
321.42
320.752
320.1
319.464
318.842
318.236
317.645
317.068
316.506
315.958
315.425
314.906
314.401
313.91
313.434
312.971
312.522
312.087
311.665
311.258
310.863
310.483
310.115
309.761
309.421
309.094
308.78
308.479
308.191
307.917
307.655
307.407
307.172
306.949
306.74
306.543
306.359
306.188
306.03
305.885
305.752
305.632
305.525
305.431
305.349
305.28
305.224
305.18
305.149
305.13
305.124
398.274
394.842
391.458
388.151
384.944
381.854
378.893
376.065
373.371
370.809
368.374
366.06
363.858
361.762
359.763
357.854
356.028
354.278
352.598
350.983
349.427
347.926
346.476
345.074
343.715
342.397
341.118
339.874
338.664
337.487
336.339
335.221
334.129
333.064
332.025
331.009
330.016
329.047
328.098
327.171
326.265
325.378
324.512
323.664
322.835
322.024
321.231
320.456
319.699
318.958
318.235
317.528
316.838
316.165
315.507
314.866
314.241
313.631
313.037
312.459
311.896
311.349
310.816
310.299
309.797
309.31
308.838
308.381
307.939
307.511
307.098
306.699
306.315
305.946
305.591
305.25
304.924
304.612
304.314
304.03
303.761
303.505
303.264
303.037
302.823
302.624
302.438
302.267
302.109
301.965
301.835
301.719
301.616
301.528
301.453
301.392
301.344
301.31
301.29
301.284
398.334
395.017
391.738
388.522
385.386
382.348
379.416
376.598
373.895
371.308
368.834
366.468
364.205
362.04
359.967
357.978
356.069
354.234
352.467
350.764
349.12
347.53
345.992
344.501
343.055
341.651
340.286
338.958
337.665
336.405
335.177
333.978
332.809
331.667
330.551
329.461
328.396
327.354
326.335
325.339
324.365
323.412
322.479
321.567
320.675
319.803
318.95
318.116
317.3
316.503
315.724
314.964
314.221
313.495
312.787
312.096
311.423
310.766
310.126
309.503
308.897
308.307
307.733
307.176
306.635
306.11
305.602
305.109
304.632
304.171
303.726
303.296
302.883
302.484
302.102
301.734
301.383
301.046
300.725
300.419
300.129
299.853
299.593
299.348
299.118
298.903
298.703
298.518
298.348
298.193
298.053
297.928
297.817
297.721
297.641
297.575
297.523
297.487
297.465
297.458
398.38
395.154
391.958
388.813
385.735
382.738
379.83
377.02
374.309
371.7
369.191
366.78
364.463
362.236
360.094
358.033
356.048
354.133
352.284
350.498
348.77
347.096
345.473
343.898
342.368
340.88
339.432
338.023
336.649
335.309
334.002
332.726
331.48
330.262
329.072
327.909
326.772
325.659
324.571
323.507
322.465
321.446
320.449
319.474
318.52
317.586
316.674
315.781
314.908
314.055
313.221
312.407
311.611
310.834
310.076
309.336
308.614
307.911
307.226
306.558
305.909
305.276
304.662
304.065
303.485
302.923
302.378
301.85
301.339
300.845
300.368
299.907
299.464
299.037
298.627
298.233
297.856
297.496
297.151
296.824
296.512
296.217
295.938
295.675
295.429
295.198
294.984
294.786
294.603
294.437
294.287
294.152
294.034
293.931
293.845
293.774
293.719
293.68
293.657
293.649
398.416
395.26
392.129
389.04
386.007
383.041
380.152
377.346
374.628
371.998
369.458
367.005
364.639
362.355
360.151
358.022
355.966
353.976
352.051
350.187
348.379
346.625
344.921
343.265
341.654
340.086
338.558
337.069
335.616
334.198
332.814
331.462
330.141
328.85
327.587
326.352
325.144
323.962
322.806
321.674
320.566
319.483
318.422
317.384
316.368
315.375
314.403
313.452
312.523
311.614
310.726
309.858
309.01
308.183
307.375
306.586
305.817
305.067
304.337
303.625
302.933
302.259
301.604
300.967
300.349
299.749
299.168
298.605
298.06
297.533
297.024
296.533
296.06
295.605
295.168
294.748
294.346
293.961
293.594
293.244
292.912
292.597
292.3
292.019
291.756
291.51
291.282
291.07
290.876
290.698
290.538
290.395
290.268
290.159
290.067
289.991
289.933
289.891
289.866
289.858
398.444
395.341
392.26
389.213
386.214
383.272
380.396
377.591
374.863
372.213
369.643
367.153
364.741
362.404
360.142
357.951
355.827
353.768
351.771
349.832
347.948
346.117
344.336
342.603
340.914
339.268
337.663
336.096
334.567
333.074
331.615
330.189
328.794
327.43
326.096
324.791
323.513
322.263
321.039
319.842
318.669
317.521
316.398
315.298
314.222
313.169
312.138
311.131
310.145
309.181
308.239
307.319
306.419
305.541
304.684
303.847
303.031
302.235
301.46
300.705
299.969
299.254
298.559
297.883
297.227
296.59
295.973
295.375
294.796
294.237
293.697
293.175
292.673
292.19
291.725
291.279
290.852
290.444
290.054
289.682
289.329
288.995
288.679
288.381
288.102
287.841
287.598
287.373
287.167
286.978
286.808
286.656
286.521
286.405
286.307
286.227
286.165
286.12
286.094
286.086
398.464
395.402
392.357
389.342
386.367
383.441
380.572
377.766
375.026
372.356
369.758
367.231
364.775
362.39
360.073
357.823
355.636
353.512
351.446
349.436
347.48
345.576
343.721
341.912
340.149
338.427
336.747
335.106
333.503
331.936
330.404
328.905
327.439
326.004
324.6
323.226
321.88
320.563
319.273
318.01
316.773
315.562
314.377
313.216
312.08
310.969
309.881
308.816
307.775
306.757
305.762
304.789
303.839
302.911
302.004
301.12
300.257
299.416
298.596
297.798
297.02
296.264
295.528
294.814
294.12
293.446
292.794
292.161
291.549
290.957
290.386
289.834
289.303
288.792
288.3
287.828
287.376
286.944
286.532
286.139
285.765
285.412
285.077
284.762
284.467
284.19
283.933
283.695
283.477
283.278
283.097
282.936
282.794
282.671
282.567
282.483
282.417
282.37
282.342
282.333
398.479
395.446
392.427
389.433
386.474
383.558
380.691
377.879
375.126
372.435
369.809
367.247
364.75
362.318
359.949
357.643
355.397
353.209
351.078
349.001
346.977
345.002
343.076
341.195
339.359
337.565
335.813
334.099
332.424
330.785
329.181
327.612
326.076
324.572
323.099
321.657
320.245
318.862
317.507
316.18
314.88
313.607
312.36
311.14
309.945
308.775
307.63
306.51
305.414
304.342
303.294
302.27
301.269
300.291
299.337
298.405
297.496
296.61
295.746
294.905
294.086
293.289
292.513
291.76
291.029
290.319
289.631
288.964
288.319
287.695
287.093
286.511
285.951
285.412
284.894
284.396
283.92
283.464
283.029
282.615
282.221
281.848
281.495
281.163
280.851
280.56
280.289
280.038
279.808
279.598
279.407
279.238
279.088
278.958
278.849
278.759
278.69
278.64
278.611
278.601
398.489
395.475
392.473
389.493
386.543
383.63
380.761
377.94
375.172
372.459
369.803
367.207
364.67
362.193
359.775
357.416
355.113
352.865
350.672
348.531
346.44
344.398
342.402
340.453
338.547
336.683
334.86
333.076
331.33
329.622
327.949
326.31
324.706
323.134
321.594
320.086
318.608
317.16
315.741
314.351
312.989
311.655
310.348
309.069
307.815
306.588
305.387
304.212
303.062
301.937
300.837
299.762
298.711
297.685
296.682
295.704
294.749
293.818
292.911
292.027
291.166
290.329
289.515
288.723
287.955
287.209
286.486
285.785
285.107
284.451
283.818
283.207
282.618
282.051
281.507
280.984
280.483
280.004
279.547
279.111
278.697
278.305
277.934
277.585
277.258
276.951
276.666
276.403
276.16
275.939
275.739
275.561
275.403
275.267
275.152
275.058
274.985
274.933
274.902
274.892
398.495
395.492
392.499
389.526
386.579
383.664
380.788
377.955
375.169
372.432
369.748
367.118
364.542
362.022
359.556
357.145
354.787
352.482
350.229
348.026
345.871
343.764
341.703
339.686
337.713
335.781
333.889
332.037
330.224
328.447
326.706
325
323.329
321.691
320.085
318.512
316.97
315.458
313.976
312.525
311.102
309.707
308.342
307.003
305.693
304.41
303.153
301.923
300.72
299.543
298.391
297.266
296.165
295.091
294.041
293.016
292.017
291.042
290.091
289.165
288.264
287.386
286.533
285.704
284.898
284.117
283.359
282.625
281.914
281.227
280.563
279.923
279.306
278.711
278.14
277.592
277.067
276.565
276.086
275.629
275.196
274.784
274.396
274.03
273.686
273.365
273.066
272.79
272.536
272.304
272.094
271.907
271.742
271.599
271.478
271.379
271.303
271.248
271.216
271.205
398.497
395.498
392.508
389.535
386.586
383.665
380.778
377.93
375.124
372.363
369.649
366.984
364.37
361.807
359.295
356.834
354.424
352.064
349.753
347.49
345.274
343.104
340.979
338.898
336.858
334.861
332.903
330.985
329.104
327.261
325.454
323.683
321.946
320.243
318.573
316.936
315.331
313.757
312.214
310.701
309.218
307.765
306.34
304.945
303.578
302.239
300.928
299.645
298.388
297.159
295.957
294.782
293.633
292.51
291.414
290.344
289.299
288.281
287.288
286.32
285.378
284.461
283.569
282.702
281.861
281.044
280.252
279.484
278.741
278.023
277.329
276.659
276.014
275.393
274.796
274.223
273.674
273.149
272.647
272.17
271.716
271.286
270.88
270.497
270.138
269.802
269.489
269.2
268.935
268.692
268.473
268.277
268.104
267.955
267.829
267.725
267.645
267.588
267.554
267.543
398.497
395.496
392.503
389.525
386.569
383.637
380.737
377.87
375.042
372.255
369.511
366.812
364.159
361.554
358.997
356.488
354.027
351.613
349.246
346.925
344.65
342.419
340.232
338.088
335.985
333.924
331.902
329.919
327.974
326.066
324.194
322.359
320.558
318.792
317.059
315.359
313.692
312.057
310.453
308.881
307.339
305.827
304.346
302.894
301.471
300.078
298.713
297.376
296.068
294.788
293.536
292.311
291.114
289.945
288.802
287.687
286.598
285.536
284.501
283.492
282.51
281.554
280.624
279.72
278.842
277.991
277.164
276.364
275.589
274.84
274.116
273.418
272.744
272.096
271.474
270.876
270.303
269.755
269.232
268.734
268.261
267.812
267.388
266.989
266.614
266.263
265.937
265.636
265.358
265.105
264.877
264.672
264.492
264.336
264.204
264.097
264.013
263.954
263.918
263.907
398.493
395.486
392.485
389.498
386.53
383.585
380.667
377.78
374.928
372.113
369.338
366.604
363.914
361.267
358.666
356.109
353.598
351.132
348.711
346.334
344.001
341.712
339.465
337.259
335.095
332.971
330.886
328.84
326.832
324.862
322.927
321.029
319.166
317.337
315.543
313.782
312.054
310.359
308.696
307.065
305.465
303.896
302.358
300.851
299.373
297.926
296.508
295.119
293.76
292.429
291.128
289.855
288.61
287.394
286.206
285.046
283.913
282.809
281.732
280.683
279.661
278.666
277.698
276.758
275.845
274.958
274.098
273.265
272.459
271.679
270.926
270.199
269.498
268.823
268.175
267.553
266.956
266.386
265.842
265.323
264.83
264.363
263.922
263.506
263.115
262.75
262.411
262.097
261.808
261.545
261.307
261.094
260.906
260.744
260.606
260.494
260.407
260.345
260.308
260.296
398.488
395.469
392.457
389.457
386.473
383.51
380.572
377.663
374.785
371.941
369.134
366.366
363.637
360.949
358.304
355.701
353.141
350.624
348.151
345.719
343.33
340.984
338.678
336.413
334.189
332.004
329.859
327.751
325.682
323.65
321.654
319.694
317.77
315.881
314.026
312.205
310.418
308.664
306.942
305.254
303.597
301.972
300.378
298.816
297.285
295.784
294.314
292.874
291.464
290.084
288.733
287.413
286.121
284.859
283.626
282.422
281.246
280.1
278.982
277.892
276.831
275.798
274.793
273.817
272.868
271.947
271.054
270.189
269.351
268.541
267.758
267.003
266.275
265.574
264.901
264.254
263.635
263.042
262.476
261.937
261.425
260.94
260.481
260.049
259.643
259.264
258.911
258.585
258.285
258.011
257.763
257.542
257.347
257.178
257.036
256.919
256.829
256.764
256.726
256.713
398.481
395.447
392.419
389.402
386.4
383.417
380.457
377.523
374.617
371.744
368.904
366.099
363.332
360.604
357.915
355.267
352.659
350.092
347.567
345.082
342.639
340.236
337.874
335.552
333.269
331.025
328.82
326.653
324.523
322.431
320.375
318.355
316.371
314.423
312.509
310.629
308.784
306.972
305.193
303.448
301.735
300.055
298.407
296.791
295.206
293.653
292.132
290.641
289.181
287.752
286.354
284.986
283.648
282.341
281.063
279.816
278.598
277.41
276.251
275.122
274.022
272.951
271.909
270.897
269.913
268.959
268.033
267.136
266.267
265.427
264.615
263.832
263.077
262.35
261.652
260.981
260.338
259.724
259.137
258.578
258.047
257.543
257.067
256.619
256.198
255.805
255.439
255.1
254.789
254.505
254.248
254.019
253.816
253.641
253.493
253.372
253.278
253.212
253.172
253.159
398.472
395.42
392.373
389.336
386.313
383.308
380.323
377.362
374.428
371.523
368.649
365.809
363.003
360.234
357.502
354.809
352.154
349.539
346.962
344.426
341.929
339.472
337.054
334.676
332.336
330.034
327.771
325.546
323.357
321.206
319.092
317.013
314.971
312.964
310.992
309.055
307.152
305.284
303.449
301.648
299.881
298.146
296.444
294.775
293.139
291.534
289.962
288.421
286.913
285.436
283.99
282.575
281.192
279.84
278.519
277.228
275.968
274.739
273.54
272.372
271.233
270.125
269.048
268
266.982
265.994
265.035
264.106
263.207
262.337
261.497
260.686
259.905
259.152
258.429
257.734
257.069
256.433
255.825
255.246
254.696
254.175
253.682
253.218
252.782
252.374
251.995
251.645
251.322
251.028
250.762
250.525
250.315
250.133
249.98
249.855
249.758
249.688
249.647
249.634
398.461
395.388
392.32
389.261
386.214
383.184
380.172
377.183
374.219
371.281
368.373
365.496
362.652
359.843
357.068
354.33
351.629
348.965
346.34
343.752
341.203
338.693
336.221
333.787
331.391
329.034
326.714
324.431
322.186
319.977
317.805
315.67
313.57
311.506
309.477
307.484
305.525
303.601
301.711
299.856
298.034
296.246
294.492
292.771
291.083
289.428
287.805
286.216
284.659
283.134
281.642
280.182
278.753
277.357
275.993
274.66
273.358
272.089
270.85
269.643
268.467
267.322
266.208
265.126
264.074
263.052
262.062
261.102
260.173
259.274
258.405
257.567
256.759
255.981
255.233
254.515
253.827
253.169
252.541
251.943
251.374
250.835
250.325
249.845
249.395
248.973
248.581
248.219
247.885
247.581
247.306
247.06
246.844
246.656
246.497
246.368
246.267
246.196
246.153
246.139
398.45
395.353
392.261
389.177
386.105
383.047
380.008
376.989
373.993
371.022
368.079
365.165
362.282
359.432
356.615
353.832
351.085
348.374
345.7
343.063
340.463
337.9
335.375
332.887
330.437
328.024
325.649
323.311
321.009
318.744
316.516
314.324
312.169
310.049
307.965
305.916
303.902
301.924
299.98
298.071
296.196
294.356
292.55
290.777
289.039
287.334
285.663
284.025
282.42
280.849
279.311
277.805
276.333
274.893
273.486
272.111
270.769
269.459
268.182
266.937
265.723
264.542
263.393
262.276
261.19
260.136
259.114
258.123
257.164
256.236
255.34
254.474
253.64
252.837
252.065
251.324
250.614
249.935
249.286
248.669
248.081
247.525
246.998
246.503
246.037
245.602
245.198
244.823
244.479
244.165
243.881
243.627
243.403
243.209
243.046
242.912
242.808
242.734
242.69
242.676
398.437
395.315
392.196
389.086
385.986
382.9
379.831
376.781
373.752
370.747
367.768
364.817
361.895
359.004
356.144
353.318
350.526
347.768
345.046
342.359
339.709
337.095
334.518
331.978
329.474
327.008
324.578
322.185
319.829
317.509
315.226
312.979
310.769
308.594
306.455
304.352
302.285
300.253
298.256
296.294
294.368
292.476
290.619
288.796
287.008
285.254
283.535
281.849
280.198
278.581
276.997
275.447
273.931
272.448
270.999
269.584
268.201
266.852
265.536
264.253
263.003
261.786
260.602
259.451
258.332
257.246
256.192
255.171
254.182
253.226
252.302
251.41
250.55
249.722
248.927
248.163
247.43
246.73
246.061
245.424
244.819
244.245
243.702
243.191
242.711
242.263
241.846
241.459
241.104
240.781
240.488
240.226
239.995
239.795
239.626
239.488
239.381
239.305
239.259
239.244
398.423
395.273
392.127
388.988
385.859
382.743
379.643
376.561
373.498
370.459
367.443
364.454
361.493
358.561
355.659
352.79
349.952
347.149
344.379
341.644
338.945
336.281
333.652
331.06
328.505
325.985
323.502
321.056
318.646
316.273
313.936
311.635
309.371
307.142
304.95
302.794
300.674
298.589
296.54
294.527
292.549
290.607
288.7
286.828
284.991
283.189
281.422
279.69
277.992
276.33
274.702
273.108
271.549
270.024
268.534
267.077
265.655
264.267
262.913
261.593
260.307
259.055
257.836
256.651
255.5
254.382
253.297
252.246
251.228
250.244
249.293
248.374
247.489
246.637
245.817
245.031
244.277
243.556
242.867
242.211
241.588
240.997
240.438
239.911
239.417
238.955
238.526
238.128
237.762
237.429
237.127
236.857
236.62
236.414
236.24
236.098
235.987
235.909
235.862
235.846
398.409
395.23
392.054
388.885
385.726
382.579
379.446
376.33
373.234
370.158
367.106
364.079
361.078
358.105
355.162
352.249
349.367
346.518
343.701
340.919
338.171
335.457
332.779
330.136
327.529
324.958
322.423
319.925
317.462
315.036
312.646
310.293
307.975
305.695
303.45
301.242
299.07
296.934
294.834
292.77
290.742
288.75
286.793
284.873
282.988
281.139
279.325
277.547
275.804
274.097
272.425
270.789
269.187
267.621
266.09
264.593
263.132
261.706
260.315
258.958
257.636
256.349
255.096
253.878
252.694
251.545
250.43
249.349
248.303
247.291
246.312
245.368
244.458
243.581
242.739
241.93
241.154
240.413
239.704
239.03
238.388
237.78
237.206
236.664
236.156
235.681
235.239
234.83
234.454
234.11
233.8
233.523
233.278
233.066
232.887
232.741
232.627
232.547
232.498
232.483
398.393
395.184
391.977
388.777
385.586
382.406
379.241
376.091
372.959
369.848
366.758
363.692
360.652
357.638
354.653
351.697
348.771
345.877
343.014
340.185
337.389
334.627
331.899
329.207
326.55
323.928
321.342
318.792
316.278
313.8
311.358
308.953
306.584
304.252
301.956
299.696
297.473
295.287
293.137
291.023
288.946
286.905
284.9
282.932
281
279.105
277.245
275.422
273.635
271.883
270.168
268.489
266.846
265.239
263.668
262.132
260.633
259.169
257.74
256.348
254.991
253.669
252.383
251.132
249.917
248.736
247.591
246.482
245.407
244.367
243.362
242.392
241.457
240.557
239.691
238.86
238.064
237.302
236.574
235.881
235.222
234.597
234.007
233.451
232.928
232.44
231.986
231.566
231.179
230.826
230.508
230.223
229.971
229.754
229.57
229.419
229.303
229.219
229.17
229.154
398.377
395.136
391.898
388.665
385.441
382.228
379.028
375.844
372.676
369.528
366.401
363.296
360.216
357.162
354.135
351.136
348.166
345.227
342.319
339.443
336.6
333.791
331.015
328.273
325.567
322.895
320.259
317.658
315.094
312.565
310.073
307.617
305.198
302.815
300.468
298.159
295.886
293.65
291.451
289.288
287.162
285.074
283.022
281.007
279.028
277.087
275.182
273.315
271.484
269.689
267.932
266.211
264.527
262.88
261.269
259.695
258.157
256.656
255.191
253.763
252.371
251.016
249.697
248.414
247.167
245.956
244.782
243.643
242.541
241.474
240.443
239.448
238.488
237.564
236.676
235.823
235.006
234.224
233.477
232.766
232.09
231.448
230.842
230.271
229.735
229.234
228.768
228.336
227.94
227.578
227.251
226.958
226.7
226.476
226.288
226.133
226.013
225.928
225.877
225.86
398.361
395.087
391.815
388.55
385.292
382.045
378.81
375.59
372.386
369.201
366.036
362.892
359.772
356.677
353.608
350.567
347.554
344.571
341.618
338.696
335.807
332.95
330.127
327.337
324.582
321.861
319.176
316.526
313.912
311.334
308.792
306.286
303.817
301.384
298.988
296.63
294.308
292.023
289.776
287.565
285.392
283.256
281.158
279.097
277.073
275.087
273.138
271.226
269.352
267.516
265.717
263.955
262.23
260.543
258.894
257.282
255.707
254.169
252.669
251.205
249.78
248.391
247.039
245.724
244.447
243.206
242.002
240.835
239.705
238.612
237.555
236.535
235.551
234.604
233.694
232.819
231.981
231.18
230.414
229.685
228.991
228.334
227.713
227.127
226.578
226.064
225.586
225.143
224.736
224.365
224.03
223.729
223.465
223.236
223.042
222.884
222.761
222.673
222.621
222.604
398.344
395.037
391.731
388.431
385.139
381.857
378.587
375.331
372.09
368.867
365.664
362.482
359.322
356.186
353.076
349.992
346.936
343.909
340.911
337.945
335.009
332.106
329.236
326.399
323.596
320.828
318.094
315.396
312.733
310.106
307.515
304.96
302.442
299.961
297.517
295.11
292.74
290.408
288.113
285.855
283.636
281.454
279.31
277.203
275.135
273.104
271.112
269.158
267.241
265.363
263.523
261.721
259.957
258.231
256.543
254.893
253.282
251.708
250.173
248.675
247.215
245.794
244.41
243.064
241.756
240.486
239.253
238.058
236.901
235.781
234.699
233.655
232.647
231.677
230.745
229.849
228.991
228.17
227.386
226.639
225.928
225.255
224.619
224.019
223.456
222.929
222.44
221.986
221.57
221.189
220.845
220.538
220.267
220.032
219.834
219.671
219.546
219.456
219.402
219.385
398.327
394.985
391.645
388.31
384.983
381.666
378.359
375.067
371.789
368.528
365.287
362.065
358.866
355.689
352.538
349.412
346.313
343.243
340.201
337.19
334.209
331.261
328.344
325.461
322.611
319.795
317.014
314.268
311.557
308.882
306.244
303.641
301.075
298.547
296.055
293.601
291.184
288.804
286.463
284.159
281.894
279.667
277.478
275.327
273.215
271.141
269.106
267.109
265.151
263.232
261.352
259.51
257.707
255.943
254.217
252.531
250.883
249.274
247.704
246.172
244.68
243.226
241.81
240.434
239.096
237.796
236.536
235.313
234.129
232.984
231.877
230.808
229.777
228.785
227.83
226.914
226.036
225.195
224.393
223.628
222.902
222.213
221.561
220.947
220.371
219.832
219.331
218.867
218.44
218.051
217.699
217.384
217.107
216.867
216.663
216.497
216.368
216.277
216.222
216.204
398.31
394.933
391.557
388.187
384.825
381.471
378.129
374.799
371.484
368.185
364.905
361.644
358.405