/*--------------------------------*- C++ -*----------------------------------*\
  =========                 |
  \\      /  F ield         | OpenFOAM: The Open Source CFD Toolbox
   \\    /   O peration     | Website:  https://openfoam.org
    \\  /    A nd           | Version:  10
     \\/     M anipulation  |
\*---------------------------------------------------------------------------*/
FoamFile
{
    format      ascii;
    class       volScalarField;
    location    "8";
    object      T;
}
// * * * * * * * * * * * * * * * * * * * * * * * * * * * * * * * * * * * * * //

dimensions      [0 0 -1 0 0 0 0];

internalField   nonuniform List<scalar> 
100
(
0.0417666
0.123819
0.201486
0.272014
0.332906
0.382005
0.417572
0.438345
0.44359
0.433121
0.407308
0.367066
0.31382
0.249458
0.176258
0.0968139
0.0139403
-0.0694271
-0.150335
-0.225917
-0.293496
-0.350678
-0.395437
-0.426187
-0.441839
-0.441839
-0.426187
-0.395437
-0.350678
-0.293496
-0.225917
-0.150335
-0.0694267
0.0139407
0.0968143
0.176258
0.249458
0.313821
0.367066
0.407308
0.433121
0.44359
0.438345
0.417571
0.382005
0.332906
0.272013
0.201485
0.123818
0.0417657
-0.0417666
-0.123819
-0.201486
-0.272014
-0.332906
-0.382005
-0.417572
-0.438345
-0.44359
-0.433121
-0.407308
-0.367066
-0.31382
-0.249457
-0.176257
-0.0968134
-0.0139398
0.0694276
0.150336
0.225918
0.293497
0.350678
0.395437
0.426187
0.441839
0.441839
0.426187
0.395436
0.350677
0.293496
0.225917
0.150334
0.0694263
-0.0139412
-0.0968147
-0.176259
-0.249458
-0.313821
-0.367066
-0.407308
-0.433121
-0.44359
-0.438345
-0.417571
-0.382005
-0.332906
-0.272013
-0.201485
-0.123818
-0.0417656
)
;

boundaryField
{
    inlet
    {
        type            cyclic;
    }
    outlet
    {
        type            cyclic;
    }
    bottom
    {
        type            slip;
    }
    top
    {
        type            slip;
    }
    frontAndBack
    {
        type            empty;
    }
}


// ************************************************************************* //
