/*--------------------------------*- C++ -*----------------------------------*\
  =========                 |
  \\      /  F ield         | OpenFOAM: The Open Source CFD Toolbox
   \\    /   O peration     | Website:  https://openfoam.org
    \\  /    A nd           | Version:  10
     \\/     M anipulation  |
\*---------------------------------------------------------------------------*/
FoamFile
{
    format      ascii;
    class       volScalarField;
    location    "8";
    object      T_0;
}
// * * * * * * * * * * * * * * * * * * * * * * * * * * * * * * * * * * * * * //

dimensions      [0 0 -1 0 0 0 0];

internalField   nonuniform List<scalar> 
100
(
0.0416625
0.12351
0.200983
0.271336
0.332076
0.381053
0.41653
0.437252
0.442484
0.432041
0.406292
0.36615
0.313038
0.248836
0.175818
0.0965724
0.0139055
-0.069254
-0.14996
-0.225354
-0.292764
-0.349803
-0.394451
-0.425124
-0.440737
-0.440737
-0.425124
-0.39445
-0.349803
-0.292764
-0.225354
-0.14996
-0.0692536
0.0139059
0.0965728
0.175819
0.248836
0.313038
0.366151
0.406292
0.432041
0.442484
0.437252
0.41653
0.381052
0.332076
0.271335
0.200982
0.12351
0.0416615
-0.0416624
-0.12351
-0.200983
-0.271336
-0.332076
-0.381053
-0.41653
-0.437252
-0.442484
-0.43204
-0.406292
-0.36615
-0.313037
-0.248835
-0.175818
-0.0965719
-0.013905
0.0692545
0.149961
0.225354
0.292765
0.349804
0.394451
0.425124
0.440738
0.440737
0.425124
0.39445
0.349803
0.292764
0.225353
0.149959
0.0692531
-0.0139064
-0.0965733
-0.175819
-0.248836
-0.313038
-0.366151
-0.406292
-0.432041
-0.442484
-0.437252
-0.41653
-0.381052
-0.332076
-0.271335
-0.200982
-0.12351
-0.0416615
)
;

boundaryField
{
    inlet
    {
        type            cyclic;
    }
    outlet
    {
        type            cyclic;
    }
    bottom
    {
        type            slip;
    }
    top
    {
        type            slip;
    }
    frontAndBack
    {
        type            empty;
    }
}


// ************************************************************************* //
