/*--------------------------------*- C++ -*----------------------------------*\
  =========                 |
  \\      /  F ield         | OpenFOAM: The Open Source CFD Toolbox
   \\    /   O peration     | Website:  https://openfoam.org
    \\  /    A nd           | Version:  10
     \\/     M anipulation  |
\*---------------------------------------------------------------------------*/
FoamFile
{
    format      ascii;
    class       volScalarField;
    location    "450";
    object      T;
}
// * * * * * * * * * * * * * * * * * * * * * * * * * * * * * * * * * * * * * //

dimensions      [0 0 0 1 0 0 0];

internalField   nonuniform List<scalar> 
125000
(
316.667
322.841
324.232
324.637
324.79
324.862
324.902
324.927
324.943
324.954
324.962
324.968
324.972
324.976
324.978
324.98
324.982
324.984
324.985
324.985
324.986
324.987
324.987
324.987
324.987
324.987
324.987
324.987
324.987
324.986
324.985
324.985
324.984
324.982
324.98
324.978
324.976
324.972
324.968
324.962
324.954
324.943
324.927
324.902
324.862
324.79
324.637
324.232
322.841
316.667
304.317
308.169
309.743
310.433
310.768
310.949
311.056
311.124
311.17
311.202
311.225
311.242
311.255
311.265
311.273
311.28
311.285
311.289
311.292
311.295
311.297
311.298
311.299
311.3
311.3
311.3
311.3
311.299
311.298
311.297
311.295
311.292
311.289
311.285
311.28
311.273
311.265
311.255
311.242
311.225
311.202
311.17
311.124
311.056
310.949
310.768
310.433
309.743
308.169
304.317
301.534
303.615
304.81
305.481
305.869
306.104
306.253
306.352
306.421
306.47
306.506
306.533
306.554
306.571
306.584
306.594
306.602
306.609
306.614
306.618
306.622
306.624
306.626
306.627
306.628
306.628
306.627
306.626
306.624
306.622
306.618
306.614
306.609
306.602
306.594
306.584
306.571
306.554
306.533
306.506
306.47
306.421
306.352
306.253
306.104
305.869
305.481
304.81
303.615
301.534
300.725
301.924
302.769
303.331
303.701
303.947
304.114
304.231
304.315
304.377
304.423
304.459
304.486
304.508
304.525
304.539
304.55
304.559
304.566
304.572
304.576
304.58
304.582
304.584
304.584
304.584
304.584
304.582
304.58
304.576
304.572
304.566
304.559
304.55
304.539
304.525
304.508
304.486
304.459
304.423
304.377
304.315
304.231
304.114
303.947
303.701
303.331
302.769
301.924
300.725
300.418
301.173
301.774
302.222
302.547
302.78
302.949
303.072
303.164
303.233
303.287
303.328
303.361
303.387
303.407
303.424
303.438
303.449
303.457
303.465
303.47
303.474
303.477
303.479
303.48
303.48
303.479
303.477
303.474
303.47
303.465
303.457
303.449
303.438
303.424
303.407
303.387
303.361
303.328
303.287
303.233
303.164
303.072
302.949
302.78
302.547
302.222
301.774
301.173
300.418
300.273
300.786
301.225
301.578
301.853
302.063
302.223
302.345
302.439
302.512
302.569
302.615
302.651
302.68
302.703
302.723
302.738
302.751
302.761
302.769
302.776
302.781
302.785
302.787
302.788
302.788
302.787
302.785
302.781
302.776
302.769
302.761
302.751
302.738
302.723
302.703
302.68
302.651
302.615
302.569
302.512
302.439
302.345
302.223
302.063
301.853
301.578
301.225
300.786
300.273
300.192
300.562
300.892
301.172
301.401
301.586
301.733
301.849
301.941
302.014
302.073
302.121
302.159
302.19
302.216
302.237
302.254
302.268
302.279
302.288
302.296
302.301
302.305
302.308
302.309
302.309
302.308
302.305
302.301
302.296
302.288
302.279
302.268
302.254
302.237
302.216
302.19
302.159
302.121
302.073
302.014
301.941
301.849
301.733
301.586
301.401
301.172
300.892
300.562
300.192
300.143
300.421
300.676
300.901
301.092
301.252
301.384
301.492
301.579
301.651
301.709
301.757
301.796
301.829
301.856
301.878
301.896
301.911
301.923
301.933
301.941
301.947
301.952
301.955
301.956
301.956
301.955
301.952
301.947
301.941
301.933
301.923
301.911
301.896
301.878
301.856
301.829
301.796
301.757
301.709
301.651
301.579
301.492
301.384
301.252
301.092
300.901
300.676
300.421
300.143
300.11
300.326
300.528
300.711
300.872
301.01
301.126
301.225
301.307
301.375
301.432
301.479
301.518
301.551
301.578
301.601
301.62
301.636
301.649
301.659
301.668
301.674
301.679
301.682
301.683
301.683
301.682
301.679
301.674
301.668
301.659
301.649
301.636
301.62
301.601
301.578
301.551
301.518
301.479
301.432
301.375
301.307
301.225
301.126
301.01
300.872
300.711
300.528
300.326
300.11
300.088
300.26
300.423
300.574
300.709
300.828
300.931
301.02
301.095
301.159
301.214
301.259
301.298
301.331
301.358
301.381
301.4
301.416
301.43
301.441
301.449
301.456
301.461
301.464
301.466
301.466
301.464
301.461
301.456
301.449
301.441
301.43
301.416
301.4
301.381
301.358
301.331
301.298
301.259
301.214
301.159
301.095
301.02
300.931
300.828
300.709
300.574
300.423
300.26
300.088
300.071
300.212
300.346
300.472
300.586
300.689
300.78
300.86
300.929
300.988
301.039
301.083
301.12
301.152
301.179
301.202
301.221
301.237
301.251
301.262
301.271
301.278
301.283
301.286
301.288
301.288
301.286
301.283
301.278
301.271
301.262
301.251
301.237
301.221
301.202
301.179
301.152
301.12
301.083
301.039
300.988
300.929
300.86
300.78
300.689
300.586
300.472
300.346
300.212
300.071
300.059
300.175
300.287
300.393
300.491
300.58
300.661
300.732
300.794
300.849
300.897
300.938
300.974
301.004
301.031
301.053
301.072
301.088
301.102
301.113
301.122
301.129
301.134
301.137
301.139
301.139
301.137
301.134
301.129
301.122
301.113
301.102
301.088
301.072
301.053
301.031
301.004
300.974
300.938
300.897
300.849
300.794
300.732
300.661
300.58
300.491
300.393
300.287
300.175
300.059
300.049
300.147
300.242
300.332
300.416
300.494
300.565
300.628
300.685
300.735
300.779
300.818
300.852
300.881
300.907
300.928
300.947
300.963
300.976
300.987
300.996
301.003
301.008
301.011
301.013
301.013
301.011
301.008
301.003
300.996
300.987
300.976
300.963
300.947
300.928
300.907
300.881
300.852
300.818
300.779
300.735
300.685
300.628
300.565
300.494
300.416
300.332
300.242
300.147
300.049
300.042
300.125
300.206
300.283
300.356
300.424
300.487
300.544
300.595
300.641
300.681
300.717
300.749
300.777
300.801
300.822
300.84
300.856
300.868
300.879
300.888
300.895
300.9
300.903
300.905
300.905
300.903
300.9
300.895
300.888
300.879
300.868
300.856
300.84
300.822
300.801
300.777
300.749
300.717
300.681
300.641
300.595
300.544
300.487
300.424
300.356
300.283
300.206
300.125
300.042
300.036
300.107
300.177
300.244
300.307
300.367
300.422
300.473
300.519
300.561
300.599
300.632
300.662
300.688
300.711
300.731
300.748
300.763
300.776
300.786
300.794
300.801
300.806
300.809
300.811
300.811
300.809
300.806
300.801
300.794
300.786
300.776
300.763
300.748
300.731
300.711
300.688
300.662
300.632
300.599
300.561
300.519
300.473
300.422
300.367
300.307
300.244
300.177
300.107
300.036
300.031
300.093
300.153
300.211
300.267
300.32
300.369
300.414
300.456
300.494
300.528
300.559
300.587
300.611
300.633
300.652
300.668
300.683
300.695
300.705
300.713
300.719
300.724
300.727
300.729
300.729
300.727
300.724
300.719
300.713
300.705
300.695
300.683
300.668
300.652
300.633
300.611
300.587
300.559
300.528
300.494
300.456
300.414
300.369
300.32
300.267
300.211
300.153
300.093
300.031
300.027
300.081
300.133
300.184
300.234
300.28
300.324
300.365
300.402
300.437
300.468
300.497
300.522
300.545
300.565
300.583
300.599
300.612
300.624
300.633
300.641
300.647
300.652
300.655
300.657
300.657
300.655
300.652
300.647
300.641
300.633
300.624
300.612
300.599
300.583
300.565
300.545
300.522
300.497
300.468
300.437
300.402
300.365
300.324
300.28
300.234
300.184
300.133
300.081
300.027
300.024
300.071
300.117
300.162
300.205
300.247
300.286
300.322
300.356
300.388
300.416
300.442
300.466
300.487
300.506
300.523
300.538
300.55
300.561
300.571
300.578
300.584
300.588
300.591
300.593
300.593
300.591
300.588
300.584
300.578
300.571
300.561
300.55
300.538
300.523
300.506
300.487
300.466
300.442
300.416
300.388
300.356
300.322
300.286
300.247
300.205
300.162
300.117
300.071
300.024
300.021
300.062
300.103
300.143
300.181
300.218
300.253
300.286
300.317
300.345
300.371
300.395
300.417
300.437
300.454
300.47
300.484
300.496
300.506
300.515
300.522
300.528
300.532
300.535
300.536
300.536
300.535
300.532
300.528
300.522
300.515
300.506
300.496
300.484
300.47
300.454
300.437
300.417
300.395
300.371
300.345
300.317
300.286
300.253
300.218
300.181
300.143
300.103
300.062
300.021
300.018
300.055
300.091
300.126
300.161
300.194
300.225
300.254
300.282
300.308
300.332
300.354
300.374
300.392
300.409
300.423
300.436
300.447
300.457
300.465
300.472
300.477
300.481
300.484
300.485
300.485
300.484
300.481
300.477
300.472
300.465
300.457
300.447
300.436
300.423
300.409
300.392
300.374
300.354
300.332
300.308
300.282
300.254
300.225
300.194
300.161
300.126
300.091
300.055
300.018
300.016
300.049
300.081
300.112
300.143
300.172
300.2
300.227
300.252
300.276
300.297
300.318
300.336
300.353
300.368
300.381
300.394
300.404
300.413
300.421
300.427
300.432
300.436
300.438
300.44
300.44
300.438
300.436
300.432
300.427
300.421
300.413
300.404
300.394
300.381
300.368
300.353
300.336
300.318
300.297
300.276
300.252
300.227
300.2
300.172
300.143
300.112
300.081
300.049
300.016
300.015
300.044
300.072
300.1
300.128
300.154
300.179
300.203
300.226
300.247
300.267
300.285
300.302
300.318
300.332
300.344
300.356
300.365
300.374
300.381
300.387
300.392
300.395
300.398
300.399
300.399
300.398
300.395
300.392
300.387
300.381
300.374
300.365
300.356
300.344
300.332
300.318
300.302
300.285
300.267
300.247
300.226
300.203
300.179
300.154
300.128
300.1
300.072
300.044
300.015
300.013
300.039
300.064
300.09
300.114
300.138
300.16
300.182
300.203
300.222
300.24
300.257
300.273
300.287
300.3
300.311
300.322
300.331
300.339
300.345
300.351
300.355
300.359
300.361
300.362
300.362
300.361
300.359
300.355
300.351
300.345
300.339
300.331
300.322
300.311
300.3
300.287
300.273
300.257
300.24
300.222
300.203
300.182
300.16
300.138
300.114
300.09
300.064
300.039
300.013
300.012
300.035
300.058
300.08
300.102
300.124
300.144
300.164
300.182
300.2
300.216
300.232
300.246
300.259
300.271
300.282
300.291
300.3
300.307
300.313
300.319
300.323
300.326
300.328
300.329
300.329
300.328
300.326
300.323
300.319
300.313
300.307
300.3
300.291
300.282
300.271
300.259
300.246
300.232
300.216
300.2
300.182
300.164
300.144
300.124
300.102
300.08
300.058
300.035
300.012
300.01
300.031
300.052
300.072
300.092
300.111
300.13
300.147
300.164
300.18
300.195
300.209
300.222
300.234
300.245
300.255
300.264
300.272
300.279
300.284
300.289
300.293
300.296
300.298
300.299
300.299
300.298
300.296
300.293
300.289
300.284
300.279
300.272
300.264
300.255
300.245
300.234
300.222
300.209
300.195
300.18
300.164
300.147
300.13
300.111
300.092
300.072
300.052
300.031
300.01
300.009
300.028
300.047
300.065
300.083
300.1
300.117
300.133
300.148
300.163
300.176
300.189
300.201
300.212
300.222
300.231
300.239
300.246
300.253
300.258
300.263
300.266
300.269
300.271
300.272
300.272
300.271
300.269
300.266
300.263
300.258
300.253
300.246
300.239
300.231
300.222
300.212
300.201
300.189
300.176
300.163
300.148
300.133
300.117
300.1
300.083
300.065
300.047
300.028
300.009
300.008
300.025
300.042
300.058
300.074
300.09
300.105
300.12
300.134
300.147
300.159
300.171
300.182
300.192
300.201
300.209
300.217
300.224
300.229
300.234
300.239
300.242
300.244
300.246
300.247
300.247
300.246
300.244
300.242
300.239
300.234
300.229
300.224
300.217
300.209
300.201
300.192
300.182
300.171
300.159
300.147
300.134
300.12
300.105
300.09
300.074
300.058
300.042
300.025
300.008
300.008
300.023
300.038
300.053
300.067
300.081
300.095
300.108
300.121
300.133
300.144
300.155
300.165
300.174
300.182
300.19
300.197
300.203
300.208
300.213
300.217
300.22
300.222
300.224
300.224
300.224
300.224
300.222
300.22
300.217
300.213
300.208
300.203
300.197
300.19
300.182
300.174
300.165
300.155
300.144
300.133
300.121
300.108
300.095
300.081
300.067
300.053
300.038
300.023
300.008
300.007
300.021
300.034
300.047
300.06
300.073
300.086
300.098
300.109
300.12
300.13
300.14
300.149
300.157
300.165
300.172
300.178
300.184
300.189
300.193
300.197
300.2
300.202
300.203
300.204
300.204
300.203
300.202
300.2
300.197
300.193
300.189
300.184
300.178
300.172
300.165
300.157
300.149
300.14
300.13
300.12
300.109
300.098
300.086
300.073
300.06
300.047
300.034
300.021
300.007
300.006
300.018
300.031
300.043
300.055
300.066
300.077
300.088
300.099
300.108
300.118
300.127
300.135
300.143
300.15
300.156
300.162
300.167
300.172
300.175
300.179
300.181
300.183
300.184
300.185
300.185
300.184
300.183
300.181
300.179
300.175
300.172
300.167
300.162
300.156
300.15
300.143
300.135
300.127
300.118
300.108
300.099
300.088
300.077
300.066
300.055
300.043
300.031
300.018
300.006
300.006
300.017
300.028
300.039
300.049
300.06
300.07
300.08
300.089
300.098
300.107
300.115
300.122
300.129
300.135
300.141
300.147
300.151
300.156
300.159
300.162
300.164
300.166
300.167
300.168
300.168
300.167
300.166
300.164
300.162
300.159
300.156
300.151
300.147
300.141
300.135
300.129
300.122
300.115
300.107
300.098
300.089
300.08
300.07
300.06
300.049
300.039
300.028
300.017
300.006
300.005
300.015
300.025
300.035
300.044
300.054
300.063
300.072
300.08
300.089
300.096
300.104
300.11
300.117
300.123
300.128
300.133
300.137
300.141
300.144
300.147
300.149
300.151
300.152
300.152
300.152
300.152
300.151
300.149
300.147
300.144
300.141
300.137
300.133
300.128
300.123
300.117
300.11
300.104
300.096
300.089
300.08
300.072
300.063
300.054
300.044
300.035
300.025
300.015
300.005
300.005
300.014
300.023
300.031
300.04
300.049
300.057
300.065
300.073
300.08
300.087
300.094
300.1
300.106
300.111
300.116
300.12
300.124
300.128
300.131
300.133
300.135
300.137
300.138
300.138
300.138
300.138
300.137
300.135
300.133
300.131
300.128
300.124
300.12
300.116
300.111
300.106
300.1
300.094
300.087
300.08
300.073
300.065
300.057
300.049
300.04
300.031
300.023
300.014
300.005
300.004
300.012
300.02
300.028
300.036
300.044
300.051
300.059
300.066
300.072
300.079
300.085
300.09
300.095
300.1
300.105
300.109
300.112
300.115
300.118
300.12
300.122
300.124
300.125
300.125
300.125
300.125
300.124
300.122
300.12
300.118
300.115
300.112
300.109
300.105
300.1
300.095
300.09
300.085
300.079
300.072
300.066
300.059
300.051
300.044
300.036
300.028
300.02
300.012
300.004
300.004
300.011
300.018
300.025
300.033
300.039
300.046
300.053
300.059
300.065
300.071
300.076
300.081
300.086
300.09
300.094
300.098
300.101
300.104
300.107
300.109
300.11
300.112
300.113
300.113
300.113
300.113
300.112
300.11
300.109
300.107
300.104
300.101
300.098
300.095
300.09
300.086
300.081
300.076
300.071
300.065
300.059
300.053
300.046
300.039
300.033
300.025
300.018
300.011
300.004
300.003
300.01
300.016
300.023
300.029
300.035
300.042
300.047
300.053
300.059
300.064
300.069
300.073
300.077
300.081
300.085
300.088
300.091
300.094
300.096
300.098
300.1
300.101
300.101
300.102
300.102
300.101
300.101
300.1
300.098
300.096
300.094
300.091
300.088
300.085
300.081
300.077
300.073
300.069
300.064
300.059
300.053
300.047
300.042
300.035
300.029
300.023
300.016
300.01
300.003
300.003
300.009
300.015
300.021
300.026
300.032
300.037
300.043
300.048
300.053
300.057
300.062
300.066
300.07
300.073
300.076
300.079
300.082
300.084
300.086
300.088
300.09
300.091
300.091
300.092
300.092
300.091
300.091
300.09
300.088
300.086
300.084
300.082
300.079
300.076
300.073
300.07
300.066
300.062
300.057
300.053
300.048
300.043
300.037
300.032
300.026
300.021
300.015
300.009
300.003
300.003
300.008
300.013
300.018
300.023
300.028
300.033
300.038
300.043
300.047
300.051
300.055
300.059
300.062
300.066
300.068
300.071
300.074
300.076
300.077
300.079
300.08
300.081
300.082
300.082
300.082
300.082
300.081
300.08
300.079
300.077
300.076
300.074
300.071
300.068
300.066
300.062
300.059
300.055
300.051
300.047
300.043
300.038
300.033
300.028
300.023
300.018
300.013
300.008
300.003
300.002
300.007
300.012
300.016
300.021
300.025
300.03
300.034
300.038
300.042
300.046
300.049
300.052
300.056
300.058
300.061
300.063
300.066
300.068
300.069
300.07
300.072
300.072
300.073
300.073
300.073
300.073
300.072
300.072
300.07
300.069
300.068
300.066
300.063
300.061
300.058
300.056
300.052
300.049
300.046
300.042
300.038
300.034
300.03
300.025
300.021
300.016
300.012
300.007
300.002
300.002
300.006
300.01
300.014
300.019
300.022
300.026
300.03
300.034
300.037
300.04
300.044
300.046
300.049
300.052
300.054
300.056
300.058
300.06
300.061
300.063
300.064
300.064
300.065
300.065
300.065
300.065
300.064
300.064
300.063
300.061
300.06
300.058
300.056
300.054
300.052
300.049
300.046
300.044
300.04
300.037
300.034
300.03
300.026
300.022
300.019
300.014
300.01
300.006
300.002
300.002
300.006
300.009
300.013
300.016
300.02
300.023
300.026
300.03
300.033
300.036
300.038
300.041
300.043
300.046
300.048
300.05
300.051
300.053
300.054
300.055
300.056
300.057
300.057
300.057
300.057
300.057
300.057
300.056
300.055
300.054
300.053
300.051
300.05
300.048
300.046
300.043
300.041
300.038
300.036
300.033
300.03
300.026
300.023
300.02
300.016
300.013
300.009
300.006
300.002
300.002
300.005
300.008
300.011
300.014
300.017
300.02
300.023
300.026
300.029
300.031
300.033
300.036
300.038
300.04
300.042
300.043
300.045
300.046
300.047
300.048
300.049
300.05
300.05
300.05
300.05
300.05
300.05
300.049
300.048
300.047
300.046
300.045
300.043
300.042
300.04
300.038
300.036
300.033
300.031
300.029
300.026
300.023
300.02
300.017
300.014
300.011
300.008
300.005
300.002
300.001
300.004
300.007
300.01
300.012
300.015
300.017
300.02
300.022
300.025
300.027
300.029
300.031
300.033
300.034
300.036
300.037
300.039
300.04
300.041
300.042
300.042
300.043
300.043
300.043
300.043
300.043
300.043
300.042
300.042
300.041
300.04
300.039
300.037
300.036
300.034
300.033
300.031
300.029
300.027
300.025
300.022
300.02
300.017
300.015
300.012
300.01
300.007
300.004
300.001
300.001
300.004
300.006
300.008
300.01
300.013
300.015
300.017
300.019
300.021
300.023
300.025
300.026
300.028
300.029
300.031
300.032
300.033
300.034
300.035
300.035
300.036
300.036
300.037
300.037
300.037
300.037
300.036
300.036
300.035
300.035
300.034
300.033
300.032
300.031
300.029
300.028
300.026
300.025
300.023
300.021
300.019
300.017
300.015
300.013
300.01
300.008
300.006
300.004
300.001
300.001
300.003
300.005
300.007
300.009
300.011
300.012
300.014
300.016
300.017
300.019
300.02
300.022
300.023
300.024
300.026
300.027
300.027
300.028
300.029
300.03
300.03
300.03
300.031
300.031
300.031
300.031
300.03
300.03
300.03
300.029
300.028
300.027
300.027
300.026
300.024
300.023
300.022
300.02
300.019
300.017
300.016
300.014
300.012
300.011
300.009
300.007
300.005
300.003
300.001
300.001
300.002
300.004
300.005
300.007
300.008
300.01
300.011
300.013
300.014
300.015
300.017
300.018
300.019
300.02
300.021
300.021
300.022
300.023
300.023
300.024
300.024
300.024
300.025
300.025
300.025
300.025
300.024
300.024
300.024
300.023
300.023
300.022
300.021
300.021
300.02
300.019
300.018
300.017
300.015
300.014
300.013
300.011
300.01
300.009
300.007
300.005
300.004
300.002
300.001
300.001
300.002
300.003
300.004
300.005
300.007
300.008
300.009
300.01
300.011
300.012
300.013
300.014
300.014
300.015
300.016
300.016
300.017
300.018
300.018
300.018
300.019
300.019
300.019
300.019
300.019
300.019
300.019
300.019
300.018
300.018
300.018
300.017
300.016
300.016
300.015
300.014
300.014
300.013
300.012
300.011
300.01
300.009
300.008
300.007
300.005
300.004
300.003
300.002
300.001
300
300.001
300.002
300.003
300.004
300.005
300.005
300.006
300.007
300.008
300.008
300.009
300.01
300.01
300.011
300.011
300.012
300.012
300.012
300.013
300.013
300.013
300.013
300.013
300.014
300.014
300.013
300.013
300.013
300.013
300.013
300.012
300.012
300.012
300.011
300.011
300.01
300.01
300.009
300.008
300.008
300.007
300.006
300.005
300.005
300.004
300.003
300.002
300.001
300
300
300.001
300.001
300.002
300.002
300.003
300.003
300.004
300.004
300.005
300.005
300.005
300.006
300.006
300.006
300.007
300.007
300.007
300.007
300.008
300.008
300.008
300.008
300.008
300.008
300.008
300.008
300.008
300.008
300.008
300.008
300.007
300.007
300.007
300.007
300.006
300.006
300.006
300.005
300.005
300.005
300.004
300.004
300.003
300.003
300.002
300.002
300.001
300.001
300
300
300
300
300.001
300.001
300.001
300.001
300.001
300.001
300.002
300.002
300.002
300.002
300.002
300.002
300.002
300.002
300.002
300.002
300.003
300.003
300.003
300.003
300.003
300.003
300.003
300.003
300.003
300.003
300.003
300.003
300.002
300.002
300.002
300.002
300.002
300.002
300.002
300.002
300.002
300.002
300.001
300.001
300.001
300.001
300.001
300.001
300
300
300
322.841
333.66
336.638
337.638
338.052
338.257
338.372
338.444
338.491
338.524
338.548
338.565
338.578
338.589
338.597
338.603
338.608
338.613
338.616
338.618
338.621
338.622
338.623
338.624
338.624
338.624
338.624
338.623
338.622
338.621
338.618
338.616
338.613
338.608
338.603
338.597
338.589
338.578
338.565
338.548
338.524
338.491
338.444
338.372
338.257
338.052
337.638
336.638
333.66
322.841
308.169
316.664
320.561
322.399
323.334
323.853
324.165
324.364
324.498
324.593
324.661
324.713
324.752
324.782
324.806
324.825
324.84
324.852
324.862
324.87
324.876
324.881
324.884
324.886
324.887
324.887
324.886
324.884
324.881
324.876
324.87
324.862
324.852
324.84
324.825
324.806
324.782
324.752
324.713
324.661
324.593
324.498
324.364
324.165
323.853
323.334
322.399
320.561
316.664
308.169
303.615
308.867
312.061
313.925
315.03
315.708
316.144
316.436
316.639
316.784
316.892
316.973
317.035
317.084
317.122
317.153
317.178
317.198
317.213
317.226
317.236
317.243
317.249
317.252
317.254
317.254
317.252
317.249
317.243
317.236
317.226
317.213
317.198
317.178
317.153
317.122
317.084
317.035
316.973
316.892
316.784
316.639
316.436
316.144
315.708
315.03
313.925
312.061
308.867
303.615
301.924
305.186
307.546
309.146
310.213
310.929
311.421
311.765
312.014
312.196
312.334
312.439
312.521
312.586
312.637
312.678
312.711
312.738
312.76
312.777
312.79
312.801
312.808
312.813
312.815
312.815
312.813
312.808
312.801
312.79
312.777
312.76
312.738
312.711
312.678
312.637
312.586
312.521
312.439
312.334
312.196
312.014
311.765
311.421
310.929
310.213
309.146
307.546
305.186
301.924
301.173
303.31
305.031
306.326
307.27
307.954
308.451
308.816
309.088
309.294
309.453
309.576
309.673
309.75
309.812
309.862
309.903
309.936
309.962
309.983
310
310.013
310.022
310.028
310.031
310.031
310.028
310.022
310.013
310
309.983
309.962
309.936
309.903
309.862
309.812
309.75
309.673
309.576
309.453
309.294
309.088
308.816
308.451
307.954
307.27
306.326
305.031
303.31
301.173
300.786
302.268
303.542
304.573
305.379
305.998
306.471
306.833
307.112
307.329
307.499
307.634
307.742
307.829
307.899
307.956
308.003
308.041
308.071
308.096
308.115
308.13
308.141
308.148
308.152
308.152
308.148
308.141
308.13
308.115
308.096
308.071
308.041
308.003
307.956
307.899
307.829
307.742
307.634
307.499
307.329
307.112
306.833
306.471
305.998
305.379
304.573
303.542
302.268
300.786
300.562
301.641
302.608
303.431
304.108
304.653
305.087
305.432
305.706
305.924
306.099
306.24
306.354
306.447
306.524
306.586
306.637
306.679
306.714
306.741
306.763
306.78
306.792
306.8
306.804
306.804
306.8
306.792
306.78
306.763
306.741
306.714
306.679
306.637
306.586
306.524
306.447
306.354
306.24
306.099
305.924
305.706
305.432
305.087
304.653
304.108
303.431
302.608
301.641
300.562
300.421
301.238
301.99
302.653
303.22
303.693
304.084
304.404
304.665
304.878
305.052
305.195
305.312
305.409
305.489
305.555
305.609
305.654
305.691
305.721
305.745
305.763
305.776
305.785
305.789
305.789
305.785
305.776
305.763
305.745
305.721
305.691
305.654
305.609
305.555
305.489
305.409
305.312
305.195
305.052
304.878
304.665
304.404
304.084
303.693
303.22
302.653
301.99
301.238
300.421
300.326
300.964
301.562
302.103
302.579
302.989
303.336
303.628
303.872
304.075
304.244
304.385
304.503
304.601
304.682
304.75
304.807
304.854
304.893
304.924
304.949
304.969
304.983
304.992
304.996
304.996
304.992
304.983
304.969
304.949
304.924
304.893
304.854
304.807
304.75
304.682
304.601
304.503
304.385
304.244
304.075
303.872
303.628
303.336
302.989
302.579
302.103
301.562
300.964
300.326
300.26
300.771
301.256
301.702
302.104
302.458
302.765
303.029
303.254
303.445
303.606
303.743
303.858
303.955
304.037
304.106
304.164
304.212
304.252
304.284
304.31
304.33
304.345
304.354
304.359
304.359
304.354
304.345
304.33
304.31
304.284
304.252
304.212
304.164
304.106
304.037
303.955
303.858
303.743
303.606
303.444
303.254
303.029
302.765
302.458
302.104
301.702
301.256
300.771
300.26
300.212
300.629
301.028
301.402
301.743
302.049
302.32
302.557
302.762
302.94
303.092
303.223
303.334
303.429
303.51
303.578
303.636
303.685
303.725
303.758
303.785
303.805
303.82
303.83
303.835
303.835
303.83
303.82
303.805
303.785
303.758
303.725
303.685
303.636
303.578
303.51
303.429
303.334
303.223
303.092
302.94
302.762
302.557
302.32
302.049
301.743
301.401
301.028
300.629
300.212
300.175
300.521
300.855
301.17
301.462
301.728
301.967
302.179
302.366
302.53
302.672
302.796
302.902
302.994
303.072
303.14
303.197
303.245
303.285
303.318
303.345
303.365
303.381
303.391
303.396
303.396
303.391
303.381
303.365
303.345
303.318
303.285
303.245
303.197
303.14
303.072
302.994
302.902
302.796
302.672
302.53
302.366
302.179
301.967
301.728
301.462
301.17
300.855
300.521
300.175
300.147
300.438
300.72
300.989
301.241
301.472
301.683
301.873
302.042
302.192
302.324
302.44
302.541
302.629
302.704
302.77
302.825
302.873
302.912
302.945
302.972
302.992
303.007
303.017
303.022
303.022
303.017
303.007
302.992
302.972
302.945
302.912
302.873
302.825
302.77
302.704
302.629
302.541
302.44
302.324
302.192
302.042
301.873
301.683
301.472
301.241
300.989
300.72
300.438
300.147
300.125
300.372
300.614
300.845
301.063
301.265
301.452
301.622
301.775
301.912
302.034
302.141
302.236
302.319
302.392
302.454
302.508
302.554
302.593
302.625
302.651
302.671
302.686
302.696
302.701
302.701
302.696
302.686
302.671
302.651
302.625
302.593
302.554
302.508
302.454
302.392
302.319
302.236
302.141
302.034
301.912
301.775
301.622
301.452
301.265
301.063
300.845
300.614
300.372
300.125
300.107
300.32
300.527
300.727
300.917
301.096
301.261
301.413
301.551
301.676
301.788
301.888
301.977
302.055
302.123
302.183
302.235
302.279
302.317
302.348
302.373
302.393
302.408
302.417
302.422
302.422
302.417
302.408
302.393
302.373
302.348
302.317
302.279
302.235
302.183
302.123
302.055
301.977
301.888
301.788
301.676
301.551
301.413
301.261
301.096
300.917
300.727
300.527
300.32
300.107
300.093
300.277
300.457
300.631
300.798
300.955
301.102
301.238
301.362
301.476
301.579
301.671
301.754
301.827
301.892
301.948
301.998
302.04
302.076
302.106
302.131
302.15
302.164
302.173
302.178
302.178
302.173
302.164
302.15
302.131
302.106
302.076
302.04
301.997
301.948
301.892
301.827
301.754
301.671
301.579
301.476
301.362
301.238
301.102
300.955
300.798
300.631
300.457
300.277
300.093
300.081
300.241
300.398
300.551
300.698
300.837
300.968
301.09
301.202
301.305
301.399
301.485
301.561
301.629
301.69
301.743
301.79
301.83
301.865
301.894
301.917
301.936
301.949
301.959
301.963
301.963
301.959
301.949
301.936
301.917
301.894
301.865
301.83
301.79
301.743
301.69
301.629
301.561
301.485
301.399
301.305
301.202
301.09
300.968
300.837
300.698
300.551
300.398
300.241
300.081
300.071
300.211
300.349
300.484
300.614
300.737
300.854
300.963
301.065
301.159
301.245
301.323
301.394
301.457
301.514
301.564
301.608
301.646
301.679
301.706
301.729
301.746
301.76
301.768
301.773
301.773
301.768
301.76
301.746
301.729
301.706
301.679
301.646
301.608
301.564
301.514
301.457
301.394
301.323
301.245
301.159
301.065
300.963
300.854
300.737
300.614
300.484
300.349
300.211
300.071
300.062
300.186
300.308
300.427
300.542
300.652
300.756
300.855
300.947
301.032
301.11
301.182
301.247
301.306
301.359
301.406
301.447
301.483
301.514
301.54
301.561
301.578
301.591
301.599
301.603
301.603
301.599
301.591
301.578
301.561
301.54
301.514
301.483
301.447
301.406
301.359
301.306
301.247
301.182
301.11
301.032
300.947
300.855
300.756
300.652
300.542
300.427
300.308
300.186
300.062
300.055
300.165
300.273
300.378
300.481
300.579
300.672
300.761
300.844
300.921
300.993
301.059
301.119
301.173
301.222
301.266
301.304
301.338
301.367
301.392
301.412
301.428
301.44
301.448
301.451
301.451
301.448
301.44
301.428
301.412
301.392
301.367
301.338
301.304
301.266
301.222
301.173
301.119
301.059
300.993
300.921
300.844
300.761
300.672
300.579
300.481
300.378
300.273
300.165
300.055
300.049
300.146
300.242
300.336
300.428
300.515
300.6
300.679
300.754
300.825
300.89
300.95
301.005
301.056
301.101
301.141
301.177
301.209
301.236
301.259
301.278
301.293
301.305
301.312
301.316
301.316
301.312
301.305
301.293
301.278
301.259
301.236
301.209
301.177
301.141
301.101
301.056
301.005
300.95
300.89
300.825
300.754
300.679
300.6
300.515
300.428
300.336
300.242
300.146
300.049
300.044
300.13
300.216
300.3
300.382
300.46
300.536
300.608
300.676
300.74
300.799
300.854
300.905
300.951
300.993
301.031
301.064
301.094
301.119
301.141
301.158
301.173
301.183
301.19
301.194
301.194
301.19
301.183
301.173
301.158
301.141
301.119
301.094
301.064
301.031
300.993
300.951
300.905
300.854
300.799
300.74
300.676
300.608
300.536
300.46
300.382
300.3
300.216
300.13
300.044
300.039
300.116
300.193
300.268
300.341
300.412
300.48
300.545
300.607
300.665
300.719
300.769
300.816
300.858
300.897
300.932
300.963
300.99
301.014
301.034
301.051
301.064
301.074
301.08
301.084
301.084
301.08
301.074
301.064
301.051
301.034
301.014
300.99
300.963
300.932
300.897
300.858
300.816
300.769
300.719
300.665
300.607
300.545
300.48
300.412
300.341
300.268
300.193
300.116
300.039
300.035
300.104
300.173
300.24
300.306
300.37
300.431
300.49
300.546
300.598
300.648
300.694
300.736
300.775
300.811
300.843
300.872
300.897
300.919
300.938
300.953
300.966
300.975
300.981
300.984
300.984
300.981
300.975
300.966
300.953
300.938
300.919
300.897
300.872
300.843
300.811
300.775
300.736
300.694
300.648
300.598
300.546
300.49
300.431
300.37
300.306
300.24
300.173
300.104
300.035
300.031
300.093
300.155
300.216
300.275
300.332
300.388
300.441
300.491
300.539
300.584
300.626
300.665
300.701
300.734
300.763