/*--------------------------------*- C++ -*----------------------------------*\
| =========                 |                                                 |
| \\      /  F ield         | OpenFOAM: The Open Source CFD Toolbox           |
|  \\    /   O peration     | Version:  2406                                  |
|   \\  /    A nd           | Website:  www.openfoam.com                      |
|    \\/     M anipulation  |                                                 |
\*---------------------------------------------------------------------------*/
FoamFile
{
    version     2.0;
    format      ascii;
    arch        "LSB;label=32;scalar=64";
    class       volScalarField;
    location    "7.75";
    object      p;
}
// * * * * * * * * * * * * * * * * * * * * * * * * * * * * * * * * * * * * * //

dimensions      [0 2 -2 0 0 0 0];

internalField   nonuniform List<scalar> 
34560
(
29.80767
29.794182
29.776514
29.755663
29.732086
29.707676
29.684584
29.664018
29.647549
29.888771
29.872159
29.849894
29.822823
29.791386
29.758211
29.726636
29.698555
29.675792
29.964374
29.944895
29.918647
29.886593
29.849078
29.809179
29.770536
29.735796
29.707574
30.039527
30.017321
29.987168
29.950153
29.906688
29.860416
29.815114
29.773888
29.739928
30.112407
30.087587
30.053686
30.011911
29.962728
29.910269
29.858535
29.810985
29.771185
30.179583
30.152626
30.115536
30.069576
30.01524
29.957075
29.899344
29.845802
29.800357
30.240688
30.211759
30.171732
30.121929
30.062871
29.999464
29.936224
29.877154
29.826495
30.294282
30.263586
30.220931
30.167707
30.104452
30.036336
29.968164
29.904151
29.848879
30.339169
30.306921
30.261974
30.205791
30.138973
30.066814
29.994408
29.926166
29.867043
30.373904
30.340401
30.293611
30.235076
30.165505
30.0902
30.014426
29.942798
29.880686
30.397632
30.363168
30.315034
30.254853
30.183425
30.106008
30.027895
29.953892
29.889726
30.409973
30.374967
30.326085
30.265003
30.192577
30.114023
30.034661
29.959416
29.894212
30.409973
30.374967
30.326085
30.265003
30.192577
30.114023
30.034661
29.959416
29.894211
30.397632
30.363168
30.315033
30.254852
30.183424
30.106008
30.027894
29.953891
29.889725
30.373903
30.3404
30.29361
30.235075
30.165504
30.0902
30.014425
29.942797
29.880685
30.339168
30.306919
30.261972
30.205789
30.138972
30.066814
29.994408
29.926165
29.867041
30.294281
30.263584
30.22093
30.167705
30.10445
30.036335
29.968163
29.90415
29.848877
30.240687
30.211757
30.17173
30.121927
30.06287
29.999464
29.936223
29.877153
29.826493
30.179581
30.152625
30.115535
30.069575
30.015238
29.957074
29.899343
29.845801
29.800356
30.112406
30.087585
30.053684
30.011909
29.962727
29.910268
29.858534
29.810984
29.771184
30.039526
30.01732
29.987168
29.950153
29.906687
29.860416
29.815114
29.773887
29.739927
29.964374
29.944896
29.918648
29.886593
29.849079
29.80918
29.770537
29.735796
29.707574
29.888772
29.87216
29.849894
29.822824
29.791387
29.758213
29.726639
29.698558
29.675794
29.807672
29.794184
29.776516
29.755666
29.732088
29.70768
29.684588
29.664023
29.647553
27.453924
27.454787
27.455987
27.458196
27.461994
27.46693
27.47188
27.475108
27.477248
27.446131
27.447492
27.449469
27.452868
27.458284
27.464887
27.470919
27.474901
27.477461
27.43668
27.438537
27.441264
27.445923
27.453185
27.461833
27.469528
27.474623
27.477655
27.428477
27.43084
27.434264
27.440033
27.448933
27.459451
27.46874
27.474974
27.478566
27.421366
27.42425
27.42839
27.43526
27.445783
27.458144
27.468991
27.476247
27.480303
27.414969
27.41844
27.423428
27.431459
27.443651
27.457887
27.470278
27.478437
27.482835
27.409391
27.413358
27.419398
27.428932
27.442772
27.45879
27.472613
27.481553
27.486125
27.40488
27.409146
27.416037
27.427349
27.443134
27.460836
27.475916
27.485484
27.490055
27.401017
27.405383
27.412692
27.42591
27.444568
27.463955
27.480005
27.49003
27.494452
27.39864
27.402989
27.410411
27.424351
27.445609
27.467642
27.484527
27.494862
27.499071
27.397917
27.402155
27.409674
27.424197
27.446722
27.470699
27.48868
27.499025
27.502935
27.398045
27.402145
27.409662
27.424496
27.447626
27.472689
27.491355
27.501527
27.505246
27.398045
27.402144
27.409662
27.424496
27.447626
27.472689
27.491354
27.501527
27.505246
27.397916
27.402154
27.409673
27.424196
27.446721
27.470698
27.48868
27.499025
27.502935
27.398638
27.402987
27.410409
27.42435
27.445608
27.467641
27.484526
27.494861
27.49907
27.401015
27.405381
27.41269
27.425909
27.444567
27.463954
27.480003
27.490028
27.494451
27.404879
27.409144
27.416035
27.427347
27.443132
27.460834
27.475915
27.485482
27.490053
27.409389
27.413355
27.419395
27.42893
27.44277
27.458788
27.472611
27.481551
27.486123
27.414967
27.418437
27.423426
27.431457
27.443649
27.457885
27.470276
27.478435
27.482833
27.421364
27.424249
27.428388
27.435257
27.445782
27.458142
27.468989
27.476245
27.4803
27.428475
27.430838
27.434262
27.440032
27.448932
27.45945
27.468739
27.474972
27.478563
27.436679
27.438536
27.441263
27.445922
27.453184
27.461833
27.469527
27.474621
27.477652
27.446131
27.447492
27.449468
27.452868
27.458284
27.464888
27.470919
27.4749
27.477458
27.453924
27.454787
27.455988
27.458196
27.461994
27.466931
27.471881
27.475107
27.477247
26.761721
26.761766
26.761661
26.76125
26.760678
26.760281
26.760408
26.760947
26.761282
26.758925
26.75912
26.759184
26.75892
26.758514
26.758318
26.75865
26.759405
26.760049
26.75486
26.755199
26.755416
26.755306
26.755117
26.755246
26.755983
26.757164
26.758239
26.750737
26.751209
26.751555
26.751543
26.751493
26.75188
26.753014
26.754687
26.75631
26.746687
26.747226
26.747642
26.747721
26.747802
26.748434
26.749952
26.752109
26.754298
26.742872
26.74341
26.743766
26.743898
26.744107
26.744968
26.746849
26.749474
26.752203
26.740182
26.740695
26.740666
26.740387
26.740605
26.741623
26.743786
26.746825
26.750076
26.738392
26.738953
26.738614
26.737544
26.737354
26.738433
26.740809
26.744197
26.747973
26.738038
26.738694
26.738321
26.736189
26.734501
26.735383
26.737946
26.741604
26.745928
26.738059
26.738793
26.738557
26.736391
26.733262
26.73271
26.73526
26.73909
26.743966
26.73783
26.738647
26.738469
26.736289
26.732816
26.73115
26.733074
26.737161
26.742593
26.737702
26.738568
26.738412
26.736204
26.732635
26.730351
26.731769
26.736118
26.741854
26.737702
26.738567
26.738412
26.736203
26.732635
26.730351
26.731768
26.736118
26.741854
26.737829
26.738646
26.738469
26.736288
26.732816
26.731149
26.733073
26.73716
26.742593
26.738058
26.738792
26.738555
26.73639
26.733261
26.732709
26.735259
26.739089
26.743965
26.738037
26.738692
26.73832
26.736188
26.7345
26.735382
26.737945
26.741602
26.745926
26.738391
26.738951
26.738613
26.737542
26.737353
26.738431
26.740808
26.744196
26.747972
26.74018
26.740693
26.740664
26.740385
26.740603
26.741621
26.743784
26.746823
26.750074
26.74287
26.743408
26.743764
26.743896
26.744105
26.744966
26.746847
26.749472
26.752201
26.746685
26.747224
26.74764
26.747719
26.7478
26.748432
26.74995
26.752107
26.754296
26.750735
26.751207
26.751553
26.751541
26.751491
26.751878
26.753012
26.754685
26.756307
26.754858
26.755197
26.755414
26.755304
26.755115
26.755244
26.755981
26.757161
26.758236
26.758923
26.759118
26.759182
26.758918
26.758512
26.758316
26.758647
26.759401
26.760045
26.761719
26.761764
26.761659
26.761247
26.760676
26.760278
26.760405
26.760944
26.761279
25.328519
25.328419
25.328342
25.328382
25.328532
25.328641
25.328485
25.327926
25.327301
25.328947
25.32886
25.32883
25.328962
25.329243
25.329455
25.329283
25.328582
25.327631
25.329054
25.328981
25.328997
25.329234
25.329676
25.330045
25.329937
25.329176
25.328007
25.329261
25.329211
25.329272
25.329596
25.330164
25.330655
25.330597
25.329794
25.328478
25.329476
25.329452
25.329564
25.329982
25.330684
25.331303
25.331299
25.330453
25.329016
25.329578
25.329591
25.329771
25.330304
25.331164
25.331932
25.331996
25.331114
25.329568
25.329674
25.329717
25.329954
25.330602
25.331642
25.33257
25.332678
25.331741
25.330087
25.329649
25.329721
25.330019
25.330801
25.332092
25.333218
25.333331
25.3323
25.330538
25.329368
25.32947
25.329816
25.330659
25.332065
25.333485
25.333857
25.332739
25.33087
25.328794
25.328924
25.329301
25.330197
25.331624
25.333205
25.333929
25.332965
25.331028
25.328185
25.328345
25.328742
25.329652
25.331171
25.332872
25.333727
25.33299
25.33104
25.32782
25.327997
25.32842
25.329359
25.330913
25.332652
25.333595
25.332971
25.331006
25.327819
25.327997
25.32842
25.329358
25.330912
25.332652
25.333595
25.332971
25.331006
25.328185
25.328344
25.328741
25.329651
25.331171
25.332872
25.333726
25.332989
25.331039
25.328792
25.328923
25.3293
25.330196
25.331623
25.333204
25.333928
25.332964
25.331027
25.329367
25.329469
25.329814
25.330658
25.332064
25.333484
25.333856
25.332738
25.330869
25.329647
25.329719
25.330017
25.330799
25.33209
25.333216
25.333329
25.332298
25.330536
25.329673
25.329715
25.329952
25.3306
25.33164
25.332567
25.332676
25.331739
25.330086
25.329575
25.329589
25.329768
25.330301
25.331161
25.33193
25.331994
25.331112
25.329566
25.329474
25.329449
25.329561
25.329979
25.330681
25.3313
25.331296
25.330451
25.329014
25.329258
25.329208
25.329269
25.329592
25.330161
25.330652
25.330594
25.32979
25.328475
25.32905
25.328978
25.328993
25.329231
25.329673
25.330041
25.329934
25.329173
25.328004
25.328943
25.328856
25.328826
25.328958
25.329239
25.329451
25.329279
25.328579
25.327628
25.328515
25.328414
25.328337
25.328378
25.328527
25.328637
25.328481
25.327923
25.327299
24.191557
24.19155
24.191508
24.191394
24.191216
24.191053
24.19103
24.191177
24.191328
24.191123
24.191135
24.191115
24.191015
24.190854
24.190722
24.190744
24.190963
24.191209
24.190461
24.190487
24.190484
24.190399
24.190263
24.190186
24.190295
24.190615
24.190975
24.189772
24.189812
24.189818
24.189739
24.189616
24.189586
24.189786
24.190228
24.190727
24.189069
24.189119
24.189134
24.189059
24.18895
24.188969
24.189266
24.189838
24.190475
24.188369
24.188428
24.188449
24.188376
24.188279
24.188346
24.188746
24.189451
24.190221
24.187749
24.187815
24.187835
24.187749
24.187633
24.187726
24.188242
24.189083
24.189974
24.187269
24.187337
24.187351
24.187228
24.187023
24.187104
24.187756
24.18875
24.189751
24.187107
24.187173
24.187185
24.187065
24.186869
24.186844
24.187377
24.188489
24.189573
24.187265
24.187332
24.187363
24.18728
24.187169
24.18712
24.187412
24.188365
24.189456
24.187475
24.187548
24.187603
24.187573
24.187477
24.187444
24.187672
24.188361
24.189397
24.187628
24.187701
24.187753
24.187727
24.187643
24.187614
24.1878
24.188359
24.189368
24.187627
24.187701
24.187753
24.187727
24.187643
24.187613
24.1878
24.188359
24.189368
24.187475
24.187547
24.187602
24.187572
24.187476
24.187443
24.187671
24.18836
24.189396
24.187264
24.187331
24.187362
24.187279
24.187168
24.187119
24.187411
24.188364
24.189456
24.187106
24.187172
24.187183
24.187064
24.186867
24.186842
24.187375
24.188488
24.189572
24.187267
24.187336
24.187349
24.187226
24.18702
24.187101
24.187754
24.188748
24.189749
24.187747
24.187812
24.187833
24.187747
24.18763
24.187724
24.188239
24.18908
24.189972
24.188366
24.188425
24.188446
24.188373
24.188276
24.188342
24.188743
24.189448
24.190218
24.189065
24.189115
24.18913
24.189055
24.188946
24.188965
24.189262
24.189834
24.190472
24.189768
24.189807
24.189814
24.189735
24.189611
24.189581
24.189782
24.190224
24.190724
24.190456
24.190482
24.190479
24.190394
24.190258
24.190181
24.19029
24.19061
24.190971
24.191118
24.191129
24.191109
24.191009
24.190848
24.190716
24.190738
24.190958
24.191203
24.191551
24.191544
24.191502
24.191388
24.191209
24.191047
24.191024
24.19117
24.191322
22.904699
22.90468
22.904664
22.904669
22.904688
22.90468
22.904592
22.904398
22.904189
22.904712
22.904694
22.904687
22.90471
22.904753
22.904764
22.90467
22.904444
22.904166
22.904687
22.90467
22.904668
22.904708
22.904778
22.904812
22.904722
22.904477
22.90415
22.90469
22.904675
22.904678
22.90473
22.904817
22.904865
22.904776
22.904518
22.904161
22.904699
22.904686
22.904696
22.904759
22.904862
22.904924
22.904837
22.904571
22.904194
22.904687
22.904679
22.904697
22.904774
22.904895
22.904972
22.904894
22.904626
22.904237
22.904666
22.904664
22.904689
22.904778
22.904914
22.905006
22.90494
22.904676
22.904282
22.904631
22.904633
22.904665
22.904764
22.90491
22.905016
22.904968
22.904717
22.904325
22.904601
22.904606
22.904643
22.904748
22.904903
22.905018
22.90498
22.904747
22.904362
22.904576
22.904582
22.904623
22.904732
22.904892
22.905016
22.904992
22.90477
22.904392
22.904548
22.904556
22.904598
22.90471
22.904872
22.905004
22.904996
22.904784
22.904414
22.904531
22.90454
22.904582
22.904694
22.904857
22.904994
22.904994
22.904789
22.904425
22.904531
22.90454
22.904582
22.904693
22.904856
22.904993
22.904993
22.904789
22.904425
22.904547
22.904555
22.904598
22.904709
22.904871
22.905004
22.904995
22.904784
22.904414
22.904575
22.904581
22.904621
22.904731
22.904891
22.905015
22.90499
22.904769
22.904392
22.9046
22.904604
22.904641
22.904746
22.904901
22.905016
22.904978
22.904745
22.904361
22.904629
22.904631
22.904663
22.904761
22.904907
22.905014
22.904965
22.904714
22.904323
22.904663
22.904661
22.904686
22.904775
22.904911
22.905003
22.904936
22.904673
22.90428
22.904683
22.904675
22.904693
22.90477
22.904891
22.904968
22.90489
22.904622
22.904234
22.904694
22.904682
22.904691
22.904754
22.904857
22.904919
22.904832
22.904566
22.90419
22.904685
22.904669
22.904673
22.904724
22.904811
22.904859
22.90477
22.904513
22.904156
22.90468
22.904663
22.904661
22.904701
22.904771
22.904806
22.904716
22.904471
22.904143
22.904705
22.904687
22.904679
22.904702
22.904746
22.904757
22.904662
22.904436
22.904157
22.904691
22.904672
22.904656
22.904661
22.90468
22.904671
22.904583
22.904389
22.904179
21.690038
21.690041
21.690038
21.690017
21.689978
21.68994
21.689935
21.689974
21.690022
21.689946
21.689954
21.689955
21.689935
21.689898
21.689866
21.689873
21.689934
21.690013
21.689803
21.689815
21.689819
21.689802
21.689768
21.689746
21.689772
21.689859
21.689969
21.689655
21.689669
21.689675
21.689658
21.689626
21.689612
21.689658
21.689774
21.689916
21.689502
21.689518
21.689526
21.689509
21.689479
21.689474
21.689541
21.689687
21.689863
21.689349
21.689367
21.689375
21.689359
21.689332
21.689336
21.689425
21.6896
21.689807
21.689206
21.689225
21.689235
21.689218
21.689193
21.689207
21.689315
21.689517
21.689751
21.689078
21.689098
21.689108
21.689091
21.689067
21.68909
21.689216
21.68944
21.689697
21.688973
21.688993
21.689003
21.688986
21.688963
21.688992
21.689131
21.689375
21.689649
21.688893
21.688913
21.688922
21.688905
21.688883
21.688917
21.689066
21.689323
21.689611
21.688838
21.688858
21.688868
21.68885
21.688828
21.688865
21.689022
21.689287
21.689583
21.68881
21.688831
21.68884
21.688822
21.6888
21.688839
21.688999
21.689269
21.689569
21.68881
21.688831
21.68884
21.688822
21.6888
21.688838
21.688999
21.689268
21.689569
21.688837
21.688858
21.688867
21.688849
21.688827
21.688864
21.689021
21.689287
21.689583
21.688891
21.688912
21.688921
21.688904
21.688881
21.688915
21.689065
21.689322
21.68961
21.688971
21.688991
21.689001
21.688983
21.68896
21.688989
21.689129
21.689373
21.689648
21.689076
21.689095
21.689105
21.689088
21.689064
21.689087
21.689213
21.689438
21.689695
21.689203
21.689221
21.689231
21.689214
21.689189
21.689202
21.689312
21.689514
21.689748
21.689344
21.689362
21.689371
21.689354
21.689326
21.689331
21.68942
21.689596
21.689804
21.689496
21.689512
21.68952
21.689503
21.689473
21.689468
21.689535
21.689682
21.689859
21.689647
21.689661
21.689667
21.68965
21.689618
21.689604
21.689651
21.689768
21.689911
21.689795
21.689806
21.68981
21.689792
21.689759
21.689737
21.689764
21.689852
21.689962
21.689935
21.689943
21.689944
21.689925
21.689888
21.689856
21.689863
21.689924
21.690005
21.690026
21.69003
21.690027
21.690005
21.689967
21.689929
21.689924
21.689963
21.690012
20.440018
20.440012
20.440007
20.440009
20.440015
20.440017
20.44
20.439958
20.439911
20.440007
20.440001
20.439998
20.440004
20.440017
20.440025
20.440008
20.43996
20.439899
20.439991
20.439985
20.439984
20.439994
20.440014
20.440028
20.440012
20.439959
20.439887
20.439987
20.439981
20.439981
20.439994
20.440018
20.440035
20.440019
20.439962
20.439881
20.439987
20.439982
20.439983
20.439999
20.440027
20.440047
20.440031
20.43997
20.439881
20.439987
20.439982
20.439985
20.440004
20.440036
20.440059
20.440043
20.439979
20.439886
20.439988
20.439985
20.439989
20.44001
20.440045
20.44007
20.440055
20.43999
20.439893
20.43999
20.439987
20.439993
20.440016
20.440054
20.440081
20.440067
20.44
20.4399
20.439992
20.43999
20.439996
20.440022
20.440062
20.440091
20.440077
20.44001
20.439908
20.439994
20.439992
20.44
20.440027
20.440068
20.4401
20.440086
20.440017
20.439914
20.439994
20.439993
20.440001
20.440029
20.440071
20.440103
20.440089
20.44002
20.439917
20.439994
20.439993
20.440002
20.44003
20.440072
20.440101
20.440086
20.44002
20.439919
20.439994
20.439993
20.440001
20.440029
20.440071
20.440101
20.440086
20.44002
20.439919
20.439993
20.439992
20.44
20.440028
20.44007
20.440102
20.440088
20.440019
20.439917
20.439992
20.439991
20.439998
20.440025
20.440066
20.440098
20.440085
20.440015
20.439913
20.43999
20.439988
20.439994
20.44002
20.440059
20.440088
20.440075
20.440008
20.439907
20.439987
20.439984
20.439989
20.440013
20.44005
20.440077
20.440064
20.439998
20.439899
20.439984
20.43998
20.439984
20.440006
20.44004
20.440066
20.440051
20.439987
20.439891
20.439981
20.439977
20.439979
20.439998
20.44003
20.440052
20.440037
20.439975
20.439883
20.43998
20.439975
20.439975
20.439991
20.440019
20.440039
20.440024
20.439964
20.439878
20.439978
20.439972
20.439971
20.439984
20.440008
20.440025
20.440011
20.439955
20.439876
20.43998
20.439974
20.439972
20.439982
20.440002
20.440016
20.440001
20.43995
20.43988
20.439993
20.439987
20.439984
20.43999
20.440003
20.440011
20.439995
20.439948
20.439891
20.440003
20.439997
20.439992
20.439993
20.44
20.440002
20.439986
20.439944
20.439899
19.205613
19.205615
19.205615
19.20561
19.205601
19.20559
19.205583
19.205586
19.205595
19.20559
19.205592
19.205593
19.205589
19.20558
19.205571
19.205569
19.205579
19.205595
19.205552
19.205556
19.205557
19.205554
19.205546
19.20554
19.205543
19.20556
19.205584
19.205513
19.205517
19.205519
19.205516
19.205508
19.205504
19.205513
19.205537
19.205569
19.205473
19.205477
19.20548
19.205476
19.205469
19.205467
19.205481
19.205513
19.205553
19.205432
19.205437
19.20544
19.205436
19.20543
19.20543
19.205449
19.205488
19.205536
19.205394
19.205399
19.205402
19.205399
19.205392
19.205395
19.205418
19.205464
19.205519
19.20536
19.205365
19.205368
19.205365
19.205359
19.205362
19.20539
19.205442
19.205503
19.205331
19.205337
19.20534
19.205336
19.20533
19.205335
19.205365
19.205422
19.205488
19.205309
19.205315
19.205318
19.205314
19.205307
19.205312
19.205346
19.205408
19.205477
19.205294
19.2053
19.205303
19.205299
19.205293
19.2053
19.205337
19.205399
19.205469
19.205287
19.205293
19.205296
19.205292
19.205287
19.205297
19.205335
19.205396
19.205466
19.205287
19.205293
19.205296
19.205292
19.205287
19.205297
19.205335
19.205396
19.205466
19.205294
19.205299
19.205302
19.205298
19.205292
19.205299
19.205336
19.205399
19.205469
19.205308
19.205313
19.205316
19.205312
19.205306
19.20531
19.205344
19.205407
19.205477
19.205329
19.205335
19.205337
19.205334
19.205327
19.205332
19.205363
19.205421
19.205488
19.205357
19.205362
19.205365
19.205361
19.205355
19.205359
19.205386
19.205439
19.205502
19.20539
19.205395
19.205398
19.205394
19.205388
19.20539
19.205413
19.20546
19.205517
19.205426
19.205431
19.205434
19.20543
19.205423
19.205424
19.205443
19.205483
19.205534
19.205465
19.20547
19.205472
19.205468
19.205461
19.205459
19.205474
19.205507
19.20555
19.205504
19.205508
19.205509
19.205506
19.205498
19.205494
19.205504
19.20553
19.205564
19.205541
19.205544
19.205545
19.205542
19.205534
19.205528
19.205532
19.205551
19.205577
19.205576
19.205578
19.205579
19.205575
19.205566
19.205557
19.205556
19.205567
19.205585
19.205598
19.205599
19.205599
19.205595
19.205585
19.205574
19.205568
19.205571
19.205582
17.965038
17.965036
17.965035
17.965035
17.965036
17.965036
17.965033
17.965025
17.965014
17.965033
17.965032
17.965031
17.965032
17.965034
17.965036
17.965031
17.965021
17.965008
17.965028
17.965027
17.965027
17.965028
17.965032
17.965034
17.96503
17.965018
17.965002
17.965027
17.965026
17.965026
17.965028
17.965032
17.965034
17.965029
17.965016
17.964998
17.965029
17.965028
17.965028
17.965031
17.965035
17.965038
17.965033
17.965018
17.964998
17.965033
17.965032
17.965032
17.965036
17.965041
17.965046
17.965042
17.965026
17.965004
17.96504
17.965039
17.965039
17.965043
17.965051
17.965057
17.965055
17.965039
17.965014
17.965048
17.965046
17.965047
17.965052
17.965061
17.96507
17.965068
17.965052
17.965026
17.965055
17.965054
17.965055
17.965061
17.965071
17.965081
17.96508
17.965064
17.965037
17.965061
17.96506
17.965061
17.965068
17.965079
17.96509
17.965089
17.965073
17.965046
17.965065
17.965064
17.965066
17.965073
17.965085
17.965096
17.965096
17.96508
17.965052
17.965068
17.965067
17.965068
17.965075
17.965088
17.965099
17.9651
17.965084
17.965056
17.965068
17.965067
17.965068
17.965075
17.965087
17.965099
17.965099
17.965084
17.965056
17.965065
17.965064
17.965065
17.965072
17.965084
17.965095
17.965095
17.96508
17.965052
17.96506
17.965059
17.96506
17.965066
17.965077
17.965088
17.965088
17.965072
17.965046
17.965053
17.965052
17.965053
17.965058
17.965068
17.965078
17.965078
17.965062
17.965036
17.965045
17.965043
17.965044
17.965049
17.965058
17.965066
17.965065
17.965049
17.965024
17.965036
17.965035
17.965035
17.965039
17.965046
17.965052
17.96505
17.965035
17.965012
17.965028
17.965027
17.965026
17.965029
17.965035
17.965039
17.965036
17.965022
17.965001
17.965022
17.96502
17.96502
17.965022
17.965027
17.96503
17.965026
17.965013
17.964994
17.965018
17.965016
17.965016
17.965018
17.965022
17.965024
17.96502
17.965008
17.964992
17.965017
17.965015
17.965015
17.965016
17.96502
17.965022
17.965018
17.965008
17.964994
17.96502
17.965018
17.965017
17.965018
17.96502
17.965022
17.965018
17.965008
17.964997
17.965023
17.965021
17.96502
17.965019
17.96502
17.965021
17.965018
17.965009
17.965
16.726372
16.726373
16.726373
16.726372
16.726371
16.726368
16.726366
16.726366
16.726368
16.726374
16.726374
16.726375
16.726374
16.726372
16.726371
16.72637
16.726372
16.726376
16.72637
16.72637
16.726371
16.72637
16.726369
16.726368
16.72637
16.726373
16.726378
16.726364
16.726365
16.726366
16.726365
16.726365
16.726365
16.726367
16.726372
16.726378
16.726357
16.726358
16.726359
16.726359
16.726359
16.72636
16.726363
16.726369
16.726376
16.726348
16.72635
16.726351
16.726351
16.726351
16.726351
16.726354
16.726361
16.726371
16.726339
16.72634
16.726341
16.726342
16.726341
16.72634
16.726343
16.726351
16.726363
16.726329
16.726331
16.726332
16.726332
16.72633
16.726329
16.726332
16.726341
16.726353
16.72632
16.726322
16.726323
16.726323
16.726321
16.72632
16.726323
16.726332
16.726345
16.726313
16.726315
16.726316
16.726316
16.726313
16.726312
16.726315
16.726324
16.726338
16.726308
16.72631
16.726311
16.72631
16.726308
16.726306
16.72631
16.726319
16.726333
16.726305
16.726307
16.726308
16.726307
16.726305
16.726303
16.726307
16.726317
16.726331
16.726305
16.726307
16.726308
16.726307
16.726305
16.726303
16.726306
16.726317
16.726331
16.726307
16.726309
16.72631
16.726309
16.726307
16.726305
16.726309
16.726319
16.726333
16.726312
16.726314
16.726315
16.726314
16.726312
16.72631
16.726313
16.726323
16.726337
16.726319
16.72632
16.726321
16.726321
16.726318
16.726317
16.72632
16.72633
16.726344
16.726326
16.726328
16.726329
16.726328
16.726327
16.726326
16.726329
16.726338
16.726352
16.726335
16.726336
16.726337
16.726337
16.726336
16.726336
16.726339
16.726348
16.726361
16.726343
16.726344
16.726345
16.726345
16.726344
16.726345
16.726349
16.726357
16.726368
16.72635
16.726351
16.726352
16.726351
16.726351
16.726352
16.726356
16.726363
16.726372
16.726355
16.726356
16.726356
16.726356
16.726355
16.726355
16.726358
16.726364
16.726372
16.726358
16.726359
16.726359
16.726359
16.726357
16.726357
16.726359
16.726364
16.726371
16.72636
16.726361
16.726361
16.72636
16.726359
16.726357
16.726357
16.72636
16.726366
16.726358
16.726358
16.726358
16.726358
16.726356
16.726353
16.726351
16.726351
16.726355
15.487527
15.487527
15.487526
15.487526
15.487526
15.487526
15.487526
15.487526
15.487526
15.487526
15.487526
15.487526
15.487526
15.487526
15.487526
15.487525
15.487525
15.487524
15.487527
15.487526
15.487526
15.487527
15.487527
15.487527
15.487527
15.487526
15.487525
15.487528
15.487528
15.487528
15.487528
15.487529
15.48753
15.48753
15.48753
15.487529
15.487529
15.487529
15.487529
15.48753
15.487531
15.487533
15.487534
15.487534
15.487533
15.487531
15.487531
15.487531
15.487532
15.487534
15.487536
15.487537
15.487538
15.487537
15.487533
15.487533
15.487533
15.487534
15.487536
15.487538
15.487541
15.487541
15.487541
15.487534
15.487534
15.487535
15.487536
15.487538
15.487541
15.487544
15.487545
15.487544
15.487536
15.487536
15.487536
15.487537
15.48754
15.487543
15.487546
15.487548
15.487547
15.487537
15.487537
15.487537
15.487538
15.487541
15.487545
15.487548
15.48755
15.487549
15.487537
15.487537
15.487538
15.487539
15.487542
15.487546
15.487549
15.487551
15.487551
15.487538
15.487538
15.487538
15.48754
15.487542
15.487546
15.48755
15.487552
15.487552
15.487537
15.487537
15.487538
15.487539
15.487542
15.487546
15.48755
15.487552
15.487552
15.487537
15.487537
15.487537
15.487538
15.487541
15.487545
15.487549
15.487551
15.487551
15.487535
15.487535
15.487536
15.487537
15.48754
15.487543
15.487547
15.487549
15.487549
15.487534
15.487534
15.487534
15.487535
15.487537
15.487541
15.487544
15.487546
15.487546
15.487532
15.487531
15.487532
15.487533
15.487535
15.487538
15.487541
15.487542
15.487543
15.487529
15.487529
15.487529
15.48753
15.487531
15.487534
15.487537
15.487538
15.487539
15.487526
15.487526
15.487526
15.487527
15.487528
15.48753
15.487532
15.487534
15.487534
15.487523
15.487523
15.487523
15.487523
15.487524
15.487526
15.487527
15.487529
15.48753
15.48752
15.487519
15.487519
15.487519
15.48752
15.487521
15.487522
15.487523
15.487524
15.487516
15.487516
15.487516
15.487516
15.487516
15.487517
15.487517
15.487517
15.487519
15.487514
15.487514
15.487514
15.487514
15.487514
15.487514
15.487513
15.487514
15.487515
15.487514
15.487513
15.487513
15.487513
15.487512
15.487512
15.487512
15.487513
15.487514
14.24837
14.24837
14.24837
14.24837
14.24837
14.248369
14.248369
14.248368
14.248367
14.248368
14.248368
14.248368
14.248368
14.248368
14.248368
14.248367
14.248366
14.248365
14.248365
14.248365
14.248366
14.248366
14.248366
14.248366
14.248365
14.248364
14.248363
14.248363
14.248363
14.248363
14.248363
14.248364
14.248364
14.248363
14.248362
14.248361
14.24836
14.24836
14.248361
14.248361
14.248361
14.248361
14.248361
14.24836
14.248359
14.248358
14.248358
14.248358
14.248359
14.248359
14.248359
14.248359
14.248358
14.248357
14.248356
14.248356
14.248356
14.248356
14.248357
14.248357
14.248357
14.248356
14.248355
14.248353
14.248354
14.248354
14.248354
14.248355
14.248355
14.248355
14.248354
14.248353
14.248351
14.248352
14.248352
14.248352
14.248352
14.248353
14.248352
14.248352
14.248351
14.24835
14.24835
14.24835
14.248351
14.248351
14.248351
14.24835
14.24835
14.248349
14.248349
14.248349
14.248349
14.248349
14.24835
14.248349
14.248349
14.248349
14.248348
14.248348
14.248348
14.248348
14.248349
14.248349
14.248349
14.248348
14.248348
14.248348
14.248348
14.248348
14.248348
14.248348
14.248349
14.248348
14.248348
14.248348
14.248347
14.248348
14.248348
14.248348
14.248349
14.248349
14.248349
14.248348
14.248348
14.248348
14.248349
14.248349
14.248349
14.248349
14.248349
14.248349
14.248349
14.248349
14.248349
14.24835
14.24835
14.24835
14.24835
14.24835
14.24835
14.24835
14.24835
14.24835
14.248351
14.248351
14.248351
14.248352
14.248352
14.248352
14.248352
14.248352
14.248352
14.248352
14.248353
14.248353
14.248353
14.248353
14.248353
14.248353
14.248353
14.248353
14.248354
14.248354
14.248354
14.248354
14.248354
14.248354
14.248354
14.248354
14.248354
14.248355
14.248355
14.248355
14.248355
14.248355
14.248355
14.248355
14.248355
14.248355
14.248356
14.248356
14.248356
14.248356
14.248356
14.248356
14.248356
14.248356
14.248356
14.248357
14.248357
14.248357
14.248357
14.248357
14.248357
14.248357
14.248357
14.248357
14.248358
14.248358
14.248358
14.248358
14.248358
14.248358
14.248358
14.248357
14.248357
14.248359
14.248359
14.248359
14.248359
14.248359
14.248358
14.248358
14.248357
14.248357
13.009499
13.009499
13.009499
13.009499
13.009499
13.009499
13.009499
13.009499
13.009499
13.009498
13.009498
13.009498
13.009498
13.009498
13.009498
13.009498
13.009498
13.009498
13.009496
13.009496
13.009496
13.009496
13.009496
13.009496
13.009496
13.009497
13.009497
13.009495
13.009495
13.009495
13.009495
13.009495
13.009495
13.009495
13.009495
13.009496
13.009493
13.009493
13.009493
13.009493
13.009493
13.009494
13.009494
13.009494
13.009495
13.009492
13.009492
13.009492
13.009492
13.009492
13.009492
13.009493
13.009493
13.009494
13.009491
13.009491
13.009491
13.009491
13.009491
13.009491
13.009492
13.009493
13.009494
13.00949
13.00949
13.00949
13.00949
13.00949
13.009491
13.009491
13.009492
13.009493
13.00949
13.00949
13.00949
13.00949
13.00949
13.009491
13.009491
13.009492
13.009493
13.009489
13.00949
13.00949
13.00949
13.00949
13.00949
13.009491
13.009492
13.009493
13.009489
13.009489
13.009489
13.00949
13.00949
13.00949
13.009491
13.009492
13.009493
13.009489
13.009489
13.009489
13.009489
13.00949
13.00949
13.009491
13.009492
13.009493
13.009489
13.009489
13.009489
13.009489
13.009489
13.00949
13.009491
13.009492
13.009493
13.009489
13.009489
13.009489
13.009489
13.009489
13.00949
13.009491
13.009492
13.009493
13.009489
13.009489
13.009489
13.009489
13.009489
13.009489
13.00949
13.009491
13.009492
13.009488