/*--------------------------------*- C++ -*----------------------------------*\
| =========                 |                                                 |
| \\      /  F ield         | OpenFOAM: The Open Source CFD Toolbox           |
|  \\    /   O peration     | Version:  2406                                  |
|   \\  /    A nd           | Website:  www.openfoam.com                      |
|    \\/     M anipulation  |                                                 |
\*---------------------------------------------------------------------------*/
FoamFile
{
    version     2.0;
    format      ascii;
    arch        "LSB;label=32;scalar=64";
    class       surfaceScalarField;
    location    "7.75";
    object      phi;
}
// * * * * * * * * * * * * * * * * * * * * * * * * * * * * * * * * * * * * * //

dimensions      [0 3 -1 0 0 0 0];

oriented        oriented;

internalField   nonuniform List<scalar> 
101088
(
0.0001446664
-2.3357578e-05
1.7775735e-05
2.0292272e-05
0.00030357668
-9.9871844e-05
7.6068042e-05
8.7924321e-05
0.00045302701
-0.0002384341
0.00018043159
0.00021189818
0.0005619077
-0.00044767604
0.00033359608
0.00040153076
0.00060890983
-0.00070260467
0.00050872033
0.00063708843
0.00060225957
-0.00093734197
0.00064891028
0.00085979139
0.00057602275
-0.0010806952
0.00070061779
0.0010030979
0.00056277427
-0.0011020936
0.00065404628
0.0010340926
-0.0010129371
0.00054211395
0.00095849613
0.00057378257
0.00017586122
-2.5833763e-05
2.2123264e-05
0.00036437773
-0.0001089655
9.3809121e-05
0.00053325925
-0.00025684351
0.00022066921
0.00064155933
-0.00047576849
0.00040430563
0.00066436733
-0.00073664095
0.00061080743
0.00061670886
-0.00097036723
0.0007735021
0.00054553237
-0.001106486
0.00083432439
0.00048997142
-0.001115297
0.00078532894
-0.0010138941
0.00066317332
0.00046328551
0.00020697558
-2.7402634e-05
2.6567708e-05
0.00042404955
-0.00011408476
0.0001117
0.00061119957
-0.00026586862
0.0002606505
0.00072025611
-0.00048645207
0.00047329743
0.00072448491
-0.0007428099
0.0007083025
0.00064478659
-0.00096447105
0.00088978971
0.00053726074
-0.0010852292
0.00095637822
0.00044785697
-0.0010791891
0.00090304799
-0.00096837833
0.00077093439
0.00039135889
0.00023715948
-2.7996747e-05
3.1001458e-05
0.00048160078
-0.00011515577
0.00012929701
0.00068598442
-0.00026554255
0.00029942626
0.00079582425
-0.00048025781
0.0005391897
0.0007840674
-0.00072333348
0.00079992269
0.00067810824
-0.00092461454
0.00099734409
0.00054151132
-0.0010237836
0.0010675139
0.00042570637
-0.0010019146
0.0010088205
-0.00088588039
0.00086643533
0.00034739442
0.00026549688
-2.7405804e-05
3.5246e-05
0.00053514067
-0.00011179936
0.00014600979
0.00075509146
-0.00025584437
0.00033599243
0.00086563272
-0.00045835718
0.00060088546
0.00084006426
-0.00068137148
0.0008850736
0.00071206208
-0.00085631936
0.0010964867
0.00055141075
-0.00092937232
0.0011689945
0.0004142109
-0.0008915844
0.0011043158
-0.00077458862
0.00095153348
0.00031883914
0.00029191021
-2.5948516e-05
3.9268588e-05
0.00058528937
-0.00010508113
0.00016174585
0.00082024831
-0.00023878906
0.00037023495
0.00093202476
-0.00042377886
0.00065843024
0.00089390393
-0.00062087405
0.00096423504
0.00074533447
-0.00076445365
0.0011882389
0.00056260754
-0.00080831215
0.0012622279
0.00040671661
-0.0007558614
0.001191115
-0.00064272214
0.0010279067
0.00029753654
0.00031509376
-2.3576427e-05
4.2985542e-05
0.0006285671
-9.497677e-05
0.00017623501
0.00087501428
-0.00021468709
0.00040170423
0.00098525375
-0.000377733
0.00071130932
0.00093305188
-0.0005447842
0.0010370606
0.00076405682
-0.00065448006
0.0012725582
0.00056180816
-0.00066927207
0.0013474897
0.00039159958
-0.0006056053
0.0012699306
-0.0005013908
0.0010966971
0.00027350619
0.00033477525
-2.033082e-05
4.6318056e-05
0.00066451752
-8.1651563e-05
0.00018928931
0.00091846436
-0.00018391854
0.00043027729
0.001023186
-0.00032108809
0.00075969803
0.00095346528
-0.00045539905
0.0011042174
0.00076248642
-0.00053157344
0.0013505163
0.00054266006
-0.000521585
0.0014261148
0.00036251518
-0.00045273107
0.0013423166
-0.00036266631
0.0011593849
0.0002407506
0.00035061865
-1.6242234e-05
4.9209696e-05
0.00069239882
-6.5183971e-05
0.00020074016
0.00094922321
-0.00014655519
0.00045569908
0.0010433579
-0.00025411124
0.00080346762
0.00095169954
-0.00035436261
0.0011654939
0.00073702896
-0.00040085057
0.0014218888
0.00050219267
-0.00037508038
0.0014980067
0.0003172208
-0.00030955403
0.001408363
-0.00023821543
0.0012162436
0.00019708183
0.00036247737
-1.1420934e-05
5.1577834e-05
0.00071216757
-4.5820828e-05
0.00021025888
0.00096771161
-0.00010283431
0.00047720582
0.0010471671
-0.00017715394
0.00084123288
0.00093055566
-0.00024317842
0.0012189069
0.00069220051
-0.00026680925
0.001484071
0.00044577513
-0.00023797356
0.001560697
0.00026094886
-0.000185893
0.001466011
-0.00013675292
0.0012658658
0.00014673531
0.00037008391
-5.9179102e-06
5.3330661e-05
0.00072359162
-2.3718378e-05
0.00021733152
0.00097490686
-5.3172889e-05
0.00049329811
0.0010389449
-9.1219116e-05
0.00086977756
0.0008990406
-0.00012383993
0.0012597859
0.00064107202
-0.00013270456
0.0015314016
0.0003877362
-0.0001139541
0.0016082735
0.00020666161
-8.4953845e-05
0.0015101538
-6.0164952e-05
0.0013042835
0.00010018363
0.00037386462
-2.222256e-11
5.4207832e-05
0.00072899395
-8.0850279e-11
0.00022097683
0.00097724004
-1.3677247e-10
0.00050184087
0.001031543
-4.0324637e-10
0.00088537533
0.00087722692
-8.1319081e-10
0.0012826619
0.00060756868
-1.3479679e-09
0.0015584626
0.00035085341
-1.7907864e-09
0.0016355593
0.0001729677
-1.9002742e-09
0.0015355508
-1.5404395e-09
0.0013260373
7.1777952e-05
0.00037386477
5.9178871e-06
5.4207822e-05
0.00072899426
2.3718235e-05
0.00022097678
0.00097723989
5.3172489e-05
0.00050184077
0.0010315428
9.1218037e-05
0.00088537512
0.00087722676
0.00012383801
0.0012826617
0.00060756861
0.00013270159
0.0015584623
0.00035085352
0.00011395028
0.001635559
0.00017296791
8.4949875e-05
0.0015355506
6.0161512e-05
0.0013260371
7.1778509e-05
0.00037008423
1.1420927e-05
5.3330656e-05
0.00072359231
4.5820659e-05
0.0002173315
0.0009749066
0.00010283369
0.00049329803
0.0010389447
0.00017715252
0.00086977732
0.00089904035
0.00024317611
0.0012597857
0.00064107197
0.00026680585
0.0015314012
0.00038773659
0.00023796939
0.0016082731
0.0002066622
0.00018588872
0.0015101533
0.00013674871
0.0013042829
0.00010018504
0.00036247726
1.6242153e-05
5.1577818e-05
0.00071216752
6.5183604e-05
0.00021025881
0.0009677108
0.00014655442
0.00047720563
0.0010471666
0.00025410992
0.00084123246
0.00093055509
0.00035436036
0.0012189065
0.00069220039
0.00040084722
0.0014840705
0.00044577572
0.00037507642
0.0015606964
0.00026094949
0.00030954969
0.0014660104
0.00023821054
0.001265865
0.00014673693
0.0003506184
2.0330745e-05
4.9209685e-05
0.00069239855
8.1651286e-05
0.00020074011
0.00094922256
0.00018391802
0.00045569897
0.0010433571
0.00032108716
0.00080346738
0.00095169876
0.00045539713
0.0011654937
0.0007370289
0.0005315707
0.0014218885
0.00050219329
0.00052158179
0.0014980064
0.00031722109
0.00045272694
0.0014083625
0.00036266112
0.0012162428
0.00019708309
0.0003347752
2.3576439e-05
4.6318055e-05
0.00066451754
9.4976737e-05
0.00018928931
0.00091846399
0.00021468666
0.00043027729
0.0010231846
0.00037773201
0.00075969796
0.00095346449
0.00054478258
0.0011042173
0.00076248649
0.0006544781
0.0013505161
0.00054266036
0.00066926948
0.0014261146
0.00036251486
0.00060560131
0.0013423162
0.00050138574
0.0011593843
0.00024075152
0.00031509347
2.59485e-05
4.2985548e-05
0.00062856691
0.00010508113
0.00017623503
0.00087501426
0.00023878898
0.0004017043
0.00098525275
0.00042377877
0.00071130936
0.00093305147
0.00062087373
0.0010370606
0.00076405686
0.00076445256
0.0012725581
0.00056180788
0.00080830976
0.0013474896
0.00039159883
0.0007558578
0.0012699303
0.00064271764
0.0010966966
0.00027350681
0.00029191014
2.740581e-05
3.9268598e-05
0.00058528973
0.00011179941
0.00016174589
0.00082024903
0.0002558445
0.00037023507
0.00093202418
0.0004583572
0.00065843043
0.00089390305
0.00068137105
0.00096423516
0.00074533398
0.00085631837
0.0011882391
0.000562607
0.00092937054
0.0012622279
0.00040671628
0.00089158243
0.0011911149
0.00077458502
0.0010279064
0.00029753599
0.00026549683
2.7996705e-05
3.5246e-05
0.00053514049
0.00011515562
0.00014600978
0.00075509112
0.00026554222
0.00033599244
0.00086563146
0.00048025717
0.00060088547
0.00084006266
0.00072333257
0.0008850735
0.00071206107
0.00092461368
0.0010964866
0.00055141051
0.0010237832
0.0011689944
0.00041421104
0.0010019147
0.0011043158
0.00088587721
0.00095153322
0.0003188373
0.00023715934
2.7402562e-05
3.100145e-05
0.00048160026
0.00011408453
0.00012929697
0.00068598348
0.00026586823
0.00029942618
0.00079582294
0.00048645169
0.00053918961
0.00078406613
0.00074280963
0.0007999226
0.00067810737
0.00096447054
0.00099734393
0.00054151171
0.0010852287
0.0010675138
0.0004257058
0.0010791885
0.0010088204
0.00096837699
0.00086643515
0.00034739205
0.00020697553
2.5833703e-05
2.6567699e-05
0.00042404929
0.00010896531
0.00011169996
0.00061119862
0.00025684318
0.00026065041
0.00072025427
0.00047576813
0.0004732973
0.00072448276
0.00073664059
0.0007083024
0.00064478459
0.00097036634
0.0008897896
0.00053725992
0.0011064847
0.000956378
0.00044785552
0.0011152961
0.00090304769
0.0010138955
0.00077093428
0.00039135661
0.0001758612
2.3357541e-05
2.2123263e-05
0.00036437748
9.9871716e-05
9.3809115e-05
0.00053325816
0.00023843382
0.00022066919
0.00064155682
0.00044767568
0.0004043056
0.00066436411
0.00070260444
0.00061080745
0.00061670571
0.00093734148
0.00077350218
0.00054552891
0.0010806942
0.00083432435
0.00048996679
0.0011020938
0.00078532895
0.0010129391
0.00066317318
0.0004632813
0.00014466637
1.7775738e-05
2.0292311e-05
0.00030357637
7.6068051e-05
8.7924458e-05
0.0004530258
0.00018043161
0.00021189841
0.00056190508
0.0003335961
0.00040153103
0.00060890669
0.00050872037
0.00063708878
0.00060225608
0.0006489104
0.00085979169
0.00057601946
0.00070061788
0.0010030968
0.00056277053
0.00065404648
0.0010340912
0.00054211388
0.0009584942
0.00057378118
2.4852525e-06
-4.2127862e-06
1.6607847e-05
2.8954328e-06
1.1189038e-05
-2.1273455e-05
7.3352208e-05
1.5285506e-05
2.917289e-05
-6.0260152e-05
0.00017796557
4.4742405e-05
5.9385559e-05
-0.00013570993
0.00033534256
0.00010375129
0.00010048843
-0.00025410903
0.00052171503
0.00020001261
0.0001451058
-0.00039534586
0.00067981244
0.00031982754
0.00018843055
-0.0005144595
0.0007487611
0.00042299222
0.00022911383
-0.00057509701
0.00070980812
0.00047865228
-0.00056850933
0.00059292265
0.00048054656
0.00026626846
3.2949424e-06
-5.3555181e-06
1.9970984e-05
1.4744613e-05
-2.6864917e-05
8.7950635e-05
3.7582032e-05
-7.5076712e-05
0.00021264797
7.3280728e-05
-0.00016580589
0.00039870278
0.00011687324
-0.00030341236
0.00061651823
0.00015774857
-0.00046153465
0.00079881513
0.00018971821
-0.00059010966
0.00087800402
0.00021419956
-0.0006509376
0.00083668891
-0.00063617791
0.00071016144
0.00023487977
4.4219818e-06
-6.4198883e-06
2.3210107e-05
1.9251879e-05
-3.197395e-05
0.0001019792
4.7499837e-05
-8.8444183e-05
0.00024577037
8.8936458e-05
-0.00019240713
0.00045846322
0.00013497486
-0.00034528294
0.00070413617
0.00017193127
-0.00051444373
0.00090574285
0.00019377428
-0.00064598171
0.00099040851
0.00020478124
-0.0007027706
0.0009438738
-0.00067959083
0.0008077868
0.00021134267
5.7369248e-06
-7.429273e-06
2.6273845e-05
2.4555364e-05
-3.6672995e-05
0.00011517764
5.9025094e-05
-0.00010019492
0.00027670761
0.00010668733
-0.00021457043
0.00051369145
0.00015520625
-0.00037779449
0.00078391518
0.00018847221
-0.00055162742
0.0010012619
0.00020127532
-0.00067994119
0.0010886703
0.0002009178
-0.00072919017
0.0010355975
-0.00069733828
0.00088971384
0.00019538677
7.0426943e-06
-8.2581897e-06
2.9032114e-05
2.9814569e-05
-4.0526195e-05
0.00012709078
7.0426332e-05
-0.00010945885
0.00030464466
0.0001242311
-0.00023093707
0.00056344893
0.00017536443
-0.00039921552
0.00085536174
0.00020550185
-0.00057122797
0.0010859506
0.00021039358
-0.00069051205
0.0011746737
0.00020012889
-0.0007292251
0.0011146146
-0.00068923899
0.00095902377
0.00018453928
8.3974012e-06
-8.8993092e-06
3.1512495e-05
3.5190944e-05
-4.3381169e-05
0.0001378077
8.2307677e-05
-0.00011610096
0.00032976051
0.0001425033
-0.00024079044
0.00060808819
0.00019630355
-0.00040795478
0.0009191743
0.00022317713
-0.00057086082
0.0011609979
0.00022030146
-0.0006754516
0.0012500429
0.00020058535
-0.00070126884
0.0011828745
-0.0006547427
0.001017843
0.00017615257
9.5975703e-06
-9.2233533e-06
3.3711773e-05
3.9782351e-05
-4.4623858e-05
0.00014729307
9.1877176e-05
-0.00011845441
0.00035196417
0.00015636493
-0.00024146949
0.00064750158
0.00021074278
-0.00040059782
0.00097532583
0.00023317915
-0.00054729371
0.0012265548
0.00022284946
-0.00063279702
0.0013151645
0.00019554124
-0.00064516027
0.0012411302
-0.00059478181
0.0010673891
0.00016488741
1.047972e-05
-8.9884987e-06
3.560344e-05
4.2865705e-05
-4.3223196e-05
0.00015550234
9.7185131e-05
-0.00011380413
0.00037130784
0.00016322402
-0.00022989356
0.00068208417
0.00021518776
-0.00037311577
0.0010247714
0.00023118067
-0.00049680331
0.0012840331
0.00021357419
-0.00056077072
0.0013716944
0.00018081148
-0.00056112117
0.0012910399
-0.00051064186
0.0011093324
0.00014672293
1.1178143e-05
-8.1434479e-06
3.7186945e-05
4.5041689e-05
-3.8789124e-05
0.00016244262
0.00010010428
-0.00010100004
0.00038783227
0.00016268112
-0.00020097867
0.00071197641
0.00020696371
-0.00031977125
0.0010678665
0.00021364571
-0.00041560339
0.0013340068
0.00018902133
-0.00045847023
0.00142033
0.000153132
-0.00045031318
0.0013334442
-0.00040429724
0.0011445695
0.00011846078
1.1386543e-05
-6.4101655e-06
3.8458313e-05
4.4921132e-05
-3.0140275e-05
0.00016807543
9.7293155e-05
-7.7546831e-05
0.00040138056
0.00015321864
-0.00015235495
0.00073668421
0.00018707789
-0.00023840948
0.0011036862
0.00018129818
-0.00030126906
0.0013755166
0.00014983488
-0.00032665558
0.0014603455
0.00011185704
-0.00031431081
0.0013679868
-0.00027826326
0.001172983
7.8705843e-05
1.1092861e-05
-3.604864e-06
3.9432492e-05
4.2728242e-05
-1.6756297e-05
0.00017231209
8.9688854e-05
-4.2650085e-05
0.00041144104
0.00013508561
-8.2827099e-05
0.00075485355
0.00015471164
-0.00012801536
0.0011297667
0.00013952482
-0.00016013148
0.0014054515
0.00010279266
-0.00017061462
0.001488965
6.6964741e-05
-0.00016086867
0.00139254
-0.00014178388
0.0011930258
4.1743215e-05
1.0710981e-05
3.2720656e-11
3.9891932e-05
4.0532768e-05
1.074509e-10
0.0001743989
8.3163101e-05
2.4903991e-10
0.00041656083
0.00012139368
3.9796647e-10
0.00076431778
0.00013251564
4.8837555e-10
0.001143525
0.00010948715
5.9928105e-10
0.0014213598
7.0243446e-05
7.1784333e-10
0.0015041878
3.9301887e-05
7.421911e-10
0.0014056233
7.63236e-10
0.0012037232
1.9831361e-05
1.0711051e-05
3.6049353e-06
3.9891924e-05
4.053296e-05
1.6756514e-05
0.00017439887
8.3163232e-05
4.2650513e-05
0.00041656075
0.00012139368
8.2827693e-05
0.00076431762
0.00013251557
0.000128016
0.0011435248
0.00010948703
0.00016013229
0.0014213596
7.0243345e-05
0.00017061568
0.0015041876
3.9301838e-05
0.00016086986
0.0014056231
0.00014178516
0.0012037231
1.9831412e-05
1.1092881e-05
6.4102499e-06
3.9432488e-05
4.2728523e-05
3.0140508e-05
0.00017231207
8.9689085e-05
7.7547123e-05
0.00041144098
0.00013508549
0.00015235514
0.00075485338
0.00015471138
0.00023840951
0.0011297664
0.00013952447
0.00030126921
0.0014054512
0.0001027925
0.00032665593
0.0014889646
6.6964661e-05
0.00031431144
0.0013925397
0.00027826391
0.0011930255
4.1743458e-05
1.1386214e-05
8.1434803e-06
3.8458299e-05
4.4920952e-05
3.8789218e-05
0.00016807538
9.7293119e-05
0.00010100009
0.00040138042
0.00015321814
0.00020097856
0.00073668389
0.00018707736
0.00031977106
0.0011036858
0.00018129758
0.00041560333
0.0013755162
0.00014983475
0.0004584703
0.001460345
0.00011185699
0.0004503133
0.0013679863
0.00040429703
0.0011729825
7.8706359e-05
1.1177656e-05
8.9884604e-06
3.7186934e-05
4.5041277e-05
4.322313e-05
0.00016244258
0.00010010407
0.00011380413
0.00038783219
0.00016268027
0.00022989366
0.00071197621
0.00020696297
0.00037311599
0.0010678663
0.00021364488
0.0004968036
0.0013340065
0.00018902108
0.00056077105
0.0014203298
0.00015313168
0.00056112098
0.0013334439
0.00051064079
0.001144569
0.00011846128
1.0479641e-05
9.2233805e-06
3.5603437e-05
4.2865913e-05
4.4623979e-05
0.00015550233
9.7185036e-05
0.00011845475
0.00037130785
0.00016322294
0.00024146997
0.00068208414
0.00021518682
0.00040059836
0.0010247714
0.0002311796
0.00054729423
0.001284033
0.00021357359
0.00063279751
0.0013716943
0.00018081072
0.00064515983
0.0012910397
0.00059478034
0.0011093319
0.00014672338
9.5978166e-06
8.8993556e-06
3.3711777e-05
3.9782667e-05
4.3381282e-05
0.00014729309
9.1876631e-05
0.00011610111
0.00035196424
0.00015636375
0.00024079079
0.00064750162
0.00021074158
0.0004079554
0.00097532577
0.0002331779
0.00057086145
0.0012265547
0.00022284844
0.00067545214
0.0013151645
0.00019554024
0.0007012684
0.00124113
0.00065474156
0.0010673888
0.00016488783
8.3973215e-06
8.2581667e-06
3.1512503e-05
3.5190691e-05
4.0526181e-05
0.00013780773
8.2307273e-05
0.00010945896
0.00032976059
0.0001425024
0.0002309376
0.00060808827
0.00019630216
0.00039921619
0.00091917437
0.00022317577
0.00057122896
0.0011609981
0.00022030022
0.0006905129
0.001250043
0.00020058467
0.00072922514
0.0011828745
0.00068923804
0.0010178428
0.00017615261
7.0427366e-06
7.4292907e-06
2.9032112e-05
2.98148e-05
3.6673068e-05
0.00012709077
7.0426353e-05
0.00010019501
0.00030464463
0.00012422978
0.00021457065
0.00056344891
0.00017536305
0.00037779503
0.0008553617
0.00020550034
0.00055162839
0.0010859505
0.00021039235
0.00067994245
0.0011746737
0.00020012845
0.00072919105
0.0011146145
0.00069733719
0.00095902356
0.00018453825
5.7369743e-06
6.4198541e-06
2.6273838e-05
2.4555356e-05
3.1973857e-05
0.00011517761
5.902465e-05
8.8444061e-05
0.00027670754
0.00010668617
0.00019240729
0.00051369136
0.00015520522
0.00034528378
0.00078391503
0.00018847107
0.00051444487
0.0010012617
0.00020127441
0.00064598314
0.0010886702
0.00020091695
0.00070277108
0.0010355974
0.00067959014
0.0008897137
0.00019538485
4.4219587e-06
5.3554733e-06
2.3210099e-05
1.9251859e-05
2.6864808e-05
0.00010197916
4.7499699e-05
7.5076601e-05
0.00024577029
8.8935725e-05
0.000165806
0.00045846311
0.00013497345
0.00030341291
0.00070413604
0.00017192999
0.0004615354
0.00090574272
0.00019377321
0.00059011042
0.00099040826
0.00020478027
0.00065093849
0.00094387348
0.00063617875
0.00080778664
0.00021134131
3.2949654e-06
4.2127946e-06
1.9970983e-05
1.4744707e-05
2.1273517e-05
8.7950629e-05
3.7582e-05
6.0260346e-05
0.00021264795
7.327979e-05
0.00013571041
0.00039870274
0.00011687129
0.00025410993
0.00061651818
0.00015774665
0.00039534714
0.0007988151
0.00018971691
0.00051446083
0.00087800394
0.00021419695
0.00057509734
0.00083668882
0.00056851088
0.00071016126
0.00023487723
2.4852597e-06
1.660785e-05
2.8954884e-06
1.118906e-05
7.3352218e-05
1.5285725e-05
2.917271e-05
0.00017796559
4.4742871e-05
5.9384543e-05
0.00033534257
0.00010375202
0.00010048699
0.00052171505
0.0002000135
0.00014510429
0.00067981253
0.00031982841
0.00018842863
0.00074876116
0.00042299248
0.00022911241
0.00070980832
0.00047865257
0.00059292265
0.00048054605
0.00026626801
2.6749309e-07
-1.5162941e-06
1.6552959e-05
1.3036963e-06
1.8195654e-06
-7.7975386e-06
7.2893025e-05
6.7046332e-06
5.6855534e-06
-2.2696277e-05
0.00017746845
1.9327391e-05
1.23928e-05
-5.314723e-05
0.00033703422
4.4748499e-05
2.2351864e-05
-0.00010492297
0.00052868502
8.7994633e-05
3.6283618e-05
-0.00017338433
0.00069283154
0.00014643465
5.5526557e-05
-0.00023773175
0.0007636107
0.00020364001
8.1135025e-05
-0.00027477861
0.00072008446
0.00023889387
-0.00027515379
0.00059616046
0.00024297213
0.00011007952
3.227561e-07
-1.6471725e-06
1.9779046e-05
2.3234292e-06
-8.6905127e-06
8.6842711e-05
7.1870718e-06
-2.5764828e-05
0.00021085247
1.4877933e-05
-6.1032677e-05
0.00039889706
2.4536181e-05
-0.0001206804
0.00062261743
3.5363702e-05
-0.00019739187
0.00081199505
4.8168522e-05
-0.00026586745
0.000893334
6.4802727e-05
-0.00030138887
0.00084666584
-0.00029750644
0.00071168619
8.5631036e-05
4.7478007e-07
-1.757573e-06
2.2845737e-05
3.1743078e-06
-9.4785326e-06
0.00010006768
9.4388638e-06
-2.8579695e-05
0.00024232079
1.8713418e-05
-6.835862e-05
0.00045651543
2.8748497e-05
-0.00013490888
0.00070833099
3.7116256e-05
-0.00021757443
0.00091755779
4.4201537e-05
-0.00028681711
0.001004274
5.3173656e-05
-0.00031804086
0.00095155364
-0.00030878148
0.00080610171
6.6134963e-05
6.9757817e-07
-1.8773693e-06
2.5695991e-05
4.3388107e-06
-1.0237084e-05
0.0001122949
1.2455089e-05
-3.1207495e-05
0.0002712193
2.3815879e-05
-7.4911086e-05
0.00050888374
3.4625597e-05
-0.00014685195
0.00078504855
4.093596e-05
-0.00023271603
0.0010100931
4.3101792e-05
-0.00029950191
0.0010991895
4.5686989e-05
-0.00032424549
0.0010392172
-0.0003090842
0.00088364704
5.2056798e-05
9.4311084e-07
-1.9921101e-06
2.8203591e-05
5.5901672e-06
-1.0872326e-05
0.00012307852
1.5702845e-05
-3.3402858e-05
0.00029672728
2.9400307e-05
-8.0168527e-05
0.00055501023
4.1281662e-05
-0.00015556293
0.00085219136
4.5912366e-05
-0.00024158408
0.0010901885
4.380712e-05
-0.00030291387
0.0011801913
4.1021183e-05
-0.00031971476
0.0011128696
-0.00029909981
0.00094778466
4.2276113e-05
1.2878477e-06
-2.1657348e-06
3.0398338e-05
7.2879016e-06
-1.1574114e-05
0.00013250972
1.9639348e-05
-3.5008471e-05
0.00031901498
3.6022768e-05
-8.3659813e-05
0.00059519616
4.925452e-05
-0.00015998171
0.00091036142
5.2322216e-05
-0.00024263537
0.0011589814
4.6101101e-05
-0.00029567359
0.0012490238
3.8450482e-05
-0.00030388146
0.0011746921
-0.00027910841
0.0010008073
3.5494919e-05
1.5728899e-06
-2.3022415e-06
3.2275045e-05
8.7627907e-06
-1.2015344e-05
0.00014054434
2.3247697e-05
-3.5470059e-05
0.00033794205
4.1945258e-05
-8.4063956e-05
0.00062920874
5.5965134e-05
-0.00015803674
0.00095936108
5.7025388e-05
-0.00023365698
0.0012165165
4.6893445e-05
-0.0002764818
0.0013061048
3.5300995e-05
-0.00027667707
0.0012255186
-0.00024997042
0.0010439432
2.9608669e-05
1.8586616e-06
-2.3662513e-06
3.3808732e-05
1.0210778e-05
-1.1998754e-05
0.00014713331
2.709719e-05
-3.4565022e-05
0.00035351667
4.6987128e-05
-7.9265303e-05
0.0006573961
6.0502303e-05
-0.00014688222
0.0010001016
5.8840336e-05
-0.00021223454
0.0012642731
4.5005342e-05
-0.00024412794
0.0013531755
3.0604682e-05
-0.00023829428
0.001267058
-0.00021270129
0.0010788015
2.386589e-05
1.8896282e-06
-2.0803616e-06
3.50118e-05
1.0477163e-05
-1.0473527e-05
0.0001523299
2.7876428e-05
-3.0016753e-05
0.00036588466
4.902936e-05
-6.8391482e-05
0.00067995012
6.1946542e-05
-0.00012508951
0.0010331564
5.7445833e-05
-0.00017689588
0.0013031691
4.0586994e-05
-0.00019823625
0.0013912971
2.5064865e-05
-0.00018965426
0.0013003265
-0.00016868915
0.0011063021
1.9319863e-05
1.9632342e-06
-1.4857947e-06
3.5900802e-05
1.0961571e-05
-7.5912145e-06
0.00015619475
2.9104972e-05
-2.1923923e-05
0.00037514419
5.0312158e-05
-4.9892574e-05
0.00069697872
6.1093725e-05
-9.071119e-05
0.0010585266
5.4995801e-05
-0.00012862919
0.0013333482
3.6671528e-05
-0.00014025045
0.0014206841
2.3119768e-05
-0.00013364826
0.0013255328
-0.00011975135
0.0011265754
2.0589614e-05
2.1802755e-06
-7.7467646e-07
3.6541141e-05
1.1993937e-05
-3.9951741e-06
0.00015890236
3.1647364e-05
-1.1619257e-05
0.00038148303
5.4728743e-05
-2.6534393e-05
0.0007084146
6.6655692e-05
-4.8086165e-05
0.0010752154
5.7090806e-05
-6.709415e-05
0.001353482
3.8344624e-05
-7.2775879e-05
0.0014402369
2.5621184e-05
-7.0122892e-05
0.0013417385
-6.2363834e-05
0.0011390953
2.2164288e-05
2.3064018e-06
2.2873359e-11
3.6810818e-05
1.2597731e-05
8.835156e-11
0.00016011256
3.3080274e-05
2.5610325e-10
0.00038445923
5.686796e-05
5.6351979e-10
0.00071399566
6.8767715e-05
9.5131466e-10
0.0010835389
5.9602878e-05
1.2930804e-09
0.0013634299
4.1009821e-05
1.4130824e-09
0.0014500039
2.6761137e-05
1.199466e-09
0.0013497482
7.6340826e-10
0.0011453674
2.2752416e-05
2.3064402e-06
7.7472958e-07
3.6810812e-05
1.2597824e-05
3.9953622e-06
0.00016011254
3.3080352e-05
1.1619738e-05
0.00038445917
5.6867874e-05
2.6535406e-05
0.00071399554
6.8767528e-05
4.8087854e-05
0.0010835387
5.9602653e-05
6.7096429e-05
0.0013634297
4.1009621e-05
7.2778409e-05
0.0014500037
2.6760957e-05
7.0125145e-05
0.0013497481
6.2365287e-05
0.0011453673
2.2752235e-05
2.1802521e-06
1.4858623e-06
3.6541139e-05
1.1994059e-05
7.5914391e-06
0.00015890235
3.1647539e-05
2.1924368e-05
0.000381483
5.472848e-05
4.9893365e-05
0.00070841451
6.665524e-05
9.0712472e-05
0.0010752153
5.7090234e-05
0.00012863097
0.0013534819
3.8344093e-05
0.00014025254
0.0014402367
2.5620701e-05
0.0001336502
0.0013417383
0.00011975251
0.0011390952
2.2163907e-05
1.9629429e-06
2.0804005e-06
3.5900793e-05
1.0961367e-05
1.0473691e-05
0.0001561947
2.9104947e-05
3.0017095e-05
0.0003751441
5.0311603e-05
6.8392122e-05
0.00069697851
6.1093157e-05
0.00012509065
0.0010585264
5.4995035e-05
0.00017689765
0.0013333479
3.6670828e-05
0.00019823833
0.0014206837
2.3119042e-05
0.00018965596
0.0013255325
0.00016868965
0.0011265751
2.0589239e-05
1.8892398e-06
2.3662433e-06
3.5011793e-05
1.0476816e-05
1.1998823e-05
0.00015232987
2.7876205e-05
3.4565376e-05
0.00036588462
4.9028637e-05
7.9266162e-05
0.00067995
6.1946005e-05
0.00014688374
0.0010331563
5.7444956e-05
0.00021223672
0.0013031689
4.0586188e-05
0.00024413029
0.0013912969
2.5063932e-05
0.00023829572
0.0013003263
0.00021270095
0.0011063017
1.93195e-05
1.8586381e-06
2.3022877e-06
3.3808732e-05
1.021102e-05
1.2015579e-05
0.00014713331
2.7097112e-05
3.5470728e-05
0.00035351669
4.6986517e-05
8.4065224e-05
0.0006573961
6.050178e-05
0.00015803867
0.0010001016
5.8839328e-05
0.00023365933
0.0012642731
4.5004302e-05
0.00027648417
0.0013531754
3.0603423e-05
0.00027667824
0.0012670578
0.00024996968
0.0010788012
2.3865348e-05
1.573222e-06
2.1658174e-06
3.227505e-05
8.7632998e-06
1.157439e-05
0.00014054436
2.3247338e-05
3.5009044e-05
0.00033794211
4.194456e-05
8.3661022e-05
0.0006292088
5.5964335e-05
0.00015998365
0.00095936111
5.7024251e-05
0.00024263772
0.0012165164
4.6892211e-05
0.00029567599
0.0013061048
3.5299617e-05
0.0003038827
0.0012255185
0.00027910799
0.001043943
2.9608085e-05
1.2878703e-06
1.9921308e-06
3.0398347e-05
7.2878403e-06
1.0872461e-05
0.00013250976
1.9639039e-05
3.3403322e-05
0.00031901506
3.6022064e-05
8.0169785e-05
0.00059519626
4.9253485e-05
0.00015556486
0.00091036155
5.2321129e-05
0.00024158673
0.0011589815
4.6099965e-05
0.0003029166
0.001249024
3.8449531e-05
0.00031971636
0.0011746921
0.00029909955
0.0010008072
3.5494372e-05
9.4319333e-07
1.8774336e-06
2.8203591e-05
5.590531e-06
1.0237342e-05
0.00012307851
1.5703071e-05
3.1208041e-05
0.00029672726
2.939934e-05
7.491219e-05
0.0005550102
4.1280917e-05
0.00014685397
0.00085219135
4.5911554e-05
0.00023271872
0.0010901885
4.3806372e-05
0.00029950489
0.0011801914
4.1020704e-05
0.00032424756
0.0011128695
0.00030908392
0.00094778452
4.2274916e-05
6.9761792e-07
1.7575982e-06
2.5695986e-05
4.3388895e-06
9.4786653e-06
0.00011229487
1.2454979e-05
2.8580065e-05
0.00027121924
2.381525e-05
6.8359633e-05
0.00050888364
3.4625131e-05
0.00013491101
0.00078504838
4.0935713e-05
0.00021757715
0.0010100929
4.3101635e-05
0.00028682012
0.0010991893
4.5686485e-05
0.00031804287
0.0010392171
0.00030878156
0.00088364695
5.2054867e-05
4.7475624e-07
1.6471895e-06
2.2845732e-05
3.1743814e-06
8.6906237e-06
0.00010006765
9.4391015e-06
2.5765186e-05
0.00024232072
1.871341e-05
6.1033565e-05
0.00045651531
2.8747982e-05
0.00012068208
0.00070833082
3.7116276e-05
0.00019739426
0.0009175576
4.4201631e-05
0.00026587004
0.0010042738
5.3173399e-05
0.00030139161
0.00095155336
0.00029750798
0.00080610158
6.6133922e-05
3.2279313e-07
1.5163407e-06
1.9779046e-05
2.3236099e-06
7.7977415e-06
8.6842707e-05
7.1874182e-06
2.2696784e-05
0.00021085246
1.4877996e-05
5.3148228e-05
0.00039889702
2.4535776e-05
0.00010492459
0.00062261734
3.5363681e-05
0.00017338664
0.00081199494
4.8169616e-05
0.00023773449
0.00089333389
6.4802933e-05
0.00027478016
0.0008466657
0.00027515579
0.00071168609
8.5630679e-05
2.6751743e-07
1.6552963e-05
1.3037655e-06
1.8196754e-06
7.2893038e-05
6.7049122e-06
5.6857013e-06
0.00017746847
1.9328009e-05
1.2392682e-05
0.00033703425
4.4749531e-05
2.235197e-05
0.00052868504
8.7996019e-05
3.6284116e-05
0.0006928316
0.00014643622
5.5526968e-05
0.00076361072
0.00020364127
8.1136438e-05
0.0007200846
0.00023889547
0.00059616055
0.00024297298
0.00011008125
9.7089151e-08
-9.6365772e-07
1.6753617e-05
6.6591582e-07
4.2937885e-07
-4.6183706e-06
7.3879334e-05
3.2997624e-06
1.5971487e-06
-1.2631041e-05
0.00017968105
9.2506464e-06
5.292573e-06
-2.8042425e-05
0.00034040235
2.0978921e-05
1.3644186e-05
-5.3516698e-05
0.00053296268
4.0887784e-05
2.7279411e-05
-8.7538331e-05
0.00069832822
6.8407176e-05
4.394503e-05
-0.00012048696
0.00077094816
9.648442e-05
6.0016861e-05
-0.0001395694
0.00072904871
0.00011453326
-0.00013876631
0.00060523674
0.0001171289
7.2578348e-05
7.6817212e-08
-1.2127959e-06
1.9951332e-05
3.7853361e-07
-5.7889739e-06
8.7711462e-05
1.6435165e-06
-1.5709237e-05
0.00021266541
5.8171812e-06
-3.449091e-05
0.00040117163
1.5021067e-05
-6.4905075e-05
0.00062480192
2.9081851e-05
-0.00010418441
0.00081458031
4.457457e-05
-0.00014013488
0.00089748851
5.7520223e-05
-0.00015861786
0.00085276917
-0.00015480059
0.00071887074
6.6370188e-05
7.0211491e-08
-1.4070243e-06
2.2969761e-05
3.3625708e-07
-6.7102077e-06
0.00010072285
1.6447208e-06
-1.8180207e-05
0.00024348332
6.2313539e-06
-3.9771392e-05
0.00045720976
1.6219153e-05
-7.4232013e-05
0.00070767111
3.0684178e-05
-0.000117312
0.00091622038
4.5255229e-05
-0.00015441049
0.0010039792
5.5901253e-05
-0.00017103813
0.00095332778
-0.00016434195
0.00080981907
6.1725969e-05
8.003301e-08
-1.5467159e-06
2.5755597e-05
3.8474193e-07
-7.3753275e-06
0.00011265525
1.8777658e-06
-1.9976081e-05
0.00027152226
7.0218819e-06
-4.3642827e-05
0.0005076115
1.785426e-05
-8.1003018e-05
0.00078098725
3.2751238e-05
-0.00012626613
0.0010041502
4.6663811e-05
-0.00016281963
0.0010936862
5.5590457e-05
-0.00017664804
0.0010359007
-0.00016724234
0.00088312639
5.9011642e-05