/*--------------------------------*- C++ -*----------------------------------*\
| =========                 |                                                 |
| \\      /  F ield         | OpenFOAM: The Open Source CFD Toolbox           |
|  \\    /   O peration     | Version:  2406                                  |
|   \\  /    A nd           | Website:  www.openfoam.com                      |
|    \\/     M anipulation  |                                                 |
\*---------------------------------------------------------------------------*/
FoamFile
{
    version     2.0;
    format      ascii;
    arch        "LSB;label=32;scalar=64";
    class       volVectorField;
    location    "7.75";
    object      U;
}
// * * * * * * * * * * * * * * * * * * * * * * * * * * * * * * * * * * * * * //

dimensions      [0 1 -1 0 0 0 0];

internalField   nonuniform List<vector> 
34560
(
(0.090093095 -0.0071490448 -0.021256936)
(0.27837825 -0.021478143 -0.066166417)
(0.49179061 -0.040295417 -0.11398006)
(0.70846858 -0.063942068 -0.15709587)
(0.89676661 -0.090710414 -0.18652976)
(1.0267354 -0.11731266 -0.19555245)
(1.0895263 -0.13994741 -0.1860587)
(1.1043478 -0.15709138 -0.16624205)
(1.0967292 -0.16574865 -0.14719403)
(0.10404388 -0.0083922288 -0.023820819)
(0.31655317 -0.024305648 -0.073526113)
(0.55042908 -0.044126603 -0.12465671)
(0.77850289 -0.067869806 -0.16807179)
(0.96491677 -0.09344505 -0.19415704)
(1.0805829 -0.11753283 -0.19719223)
(1.125365 -0.13676433 -0.18151183)
(1.1263815 -0.14954852 -0.15721295)
(1.1132933 -0.15451914 -0.13487351)
(0.1183327 -0.008912765 -0.025349746)
(0.35514441 -0.025268152 -0.078052065)
(0.60907485 -0.045108953 -0.13095378)
(0.84817397 -0.068211494 -0.17391252)
(1.0334147 -0.092127228 -0.19721083)
(1.137421 -0.11347483 -0.19614223)
(1.1679965 -0.12964127 -0.17626397)
(1.1586638 -0.13889314 -0.14923556)
(1.1431911 -0.14107857 -0.12536132)
(0.13282883 -0.0093740287 -0.026713622)
(0.39381803 -0.025995949 -0.082027047)
(0.66737225 -0.045465459 -0.13624106)
(0.91737157 -0.067317876 -0.17834109)
(1.1023826 -0.088856998 -0.19873721)
(1.1970675 -0.10682598 -0.19393224)
(1.2160335 -0.11945453 -0.17056866)
(1.1986532 -0.12523939 -0.14150271)
(1.1809898 -0.1248703 -0.11660687)
(0.14697437 -0.0093897215 -0.027686292)
(0.43138636 -0.025648677 -0.084975576)
(0.72404692 -0.044257269 -0.14004165)
(0.98528244 -0.064510015 -0.18115069)
(1.1716039 -0.083420314 -0.19885664)
(1.2593436 -0.097829098 -0.19069259)
(1.268906 -0.10663081 -0.16430397)
(1.2448712 -0.10919298 -0.13341196)
(1.224995 -0.10679618 -0.10754222)
(0.16064498 -0.0091674116 -0.02829594)
(0.46762498 -0.024799607 -0.086927112)
(0.77895257 -0.042279756 -0.14241638)
(1.0519996 -0.06064421 -0.1824174)
(1.241367 -0.07667202 -0.19757041)
(1.3244179 -0.087375478 -0.18626103)
(1.3264624 -0.092279875 -0.15697375)
(1.2968295 -0.091886711 -0.12435492)
(1.2748194 -0.087996714 -0.097553257)
(0.17367638 -0.0086715073 -0.028707348)
(0.502285 -0.023313258 -0.088274843)
(0.83199417 -0.039383725 -0.14380146)
(1.1176984 -0.055670015 -0.18239654)
(1.3119904 -0.068745789 -0.19476426)
(1.3924864 -0.075833971 -0.18010275)
(1.3886421 -0.077038778 -0.14780393)
(1.3544396 -0.074126498 -0.11357618)
(1.3305 -0.069279906 -0.086028121)
(0.1856508 -0.0078586397 -0.028909841)
(0.53451701 -0.021097171 -0.089000628)
(0.88226986 -0.035462459 -0.1441609)
(1.1817095 -0.049532073 -0.18095889)
(1.3829696 -0.059750544 -0.19010199)
(1.4630405 -0.063564474 -0.17163686)
(1.4548433 -0.061593235 -0.13618347)
(1.4172386 -0.05679253 -0.10057598)
(1.3916042 -0.051546019 -0.072698844)
(0.19622579 -0.0066965311 -0.028937932)
(0.5634781 -0.018028931 -0.089169508)
(0.92853576 -0.030278809 -0.14353576)
(1.2424066 -0.041921691 -0.17804073)
(1.452323 -0.049473302 -0.18336825)
(1.5338289 -0.050659026 -0.16058284)
(1.5228463 -0.046489526 -0.12201486)
(1.4831507 -0.040708958 -0.085461236)
(1.455967 -0.035659756 -0.057923277)
(0.20496676 -0.0051950609 -0.028839612)
(0.58788329 -0.014067859 -0.088898803)
(0.96846961 -0.023649419 -0.14213446)
(1.2962179 -0.032514135 -0.17398057)
(1.5153034 -0.037623146 -0.17513245)
(1.5994106 -0.037113757 -0.14781635)
(1.5874425 -0.032179435 -0.10649562)
(1.5469818 -0.026588426 -0.069558558)
(1.5183592 -0.022342669 -0.043067128)
(0.21148342 -0.003358977 -0.028733851)
(0.60624259 -0.0091324845 -0.088518544)
(0.99889077 -0.01533279 -0.14057824)
(1.3377722 -0.020923022 -0.16988131)
(1.5646633 -0.023812112 -0.16720534)
(1.6515139 -0.022752515 -0.13586842)
(1.6400088 -0.018781929 -0.092522206)
(1.5996291 -0.014674936 -0.055689694)
(1.5698468 -0.011842899 -0.030536989)
(0.21475993 -0.0011162735 -0.028642861)
(0.61571484 -0.0030348146 -0.088221063)
(1.0149801 -0.0051341314 -0.13956019)
(1.3602523 -0.0070460295 -0.16733704)
(1.5919009 -0.0080096379 -0.1623503)
(1.680779 -0.0075542943 -0.12857751)
(1.6700863 -0.0060772992 -0.084108461)
(1.6299989 -0.0045957045 -0.047474729)
(1.5994327 -0.0036255496 -0.023262838)
(0.21475991 0.0011162516 -0.028642866)
(0.61571479 0.0030347408 -0.088221107)
(1.01498 0.0051340196 -0.13956021)
(1.3602521 0.0070458014 -0.16733701)
(1.5919008 0.0080092944 -0.16235027)
(1.6807788 0.0075538266 -0.12857749)
(1.6700861 0.0060767471 -0.084108454)
(1.6299986 0.0045951413 -0.047474747)
(1.5994324 0.0036250588 -0.023262904)
(0.21148339 0.0033589612 -0.02873386)
(0.6062425 0.0091323933 -0.088518614)
(0.99889054 0.015332603 -0.14057826)
(1.3377717 0.02092271 -0.16988123)
(1.5646629 0.023811694 -0.16720526)
(1.6515134 0.022751981 -0.13586834)
(1.6400082 0.018781322 -0.092522186)
(1.5996285 0.014674326 -0.055689744)
(1.5698459 0.011842315 -0.030537158)
(0.20496672 0.0051950389 -0.0288396)
(0.58788316 0.014067745 -0.088898796)
(0.9684693 0.023649188 -0.14213439)
(1.2962173 0.032513792 -0.17398044)
(1.515303 0.037622694 -0.17513233)
(1.59941 0.037113193 -0.14781622)
(1.5874418 0.032178809 -0.10649559)
(1.546981 0.026587781 -0.069558608)
(1.518358 0.022341966 -0.043067303)
(0.19622576 0.0066964897 -0.028937897)
(0.56347801 0.018028792 -0.089169475)
(0.92853558 0.030278599 -0.14353568)
(1.2424063 0.041921416 -0.1780406)
(1.4523228 0.049472905 -0.18336808)
(1.5338284 0.050658529 -0.16058268)
(1.5228457 0.046488972 -0.12201482)
(1.4831499 0.040708326 -0.085461229)
(1.4559656 0.035658977 -0.057923358)
(0.18565079 0.0078586042 -0.028909821)
(0.53451698 0.021097042 -0.089000634)
(0.8822698 0.035462266 -0.14416086)
(1.1817092 0.049531848 -0.18095871)
(1.3829692 0.059750233 -0.19010173)
(1.4630401 0.0635641 -0.17163669)
(1.4548428 0.061592796 -0.1361834)
(1.4172379 0.056791943 -0.10057585)
(1.391603 0.051545251 -0.072698805)
(0.17367637 0.0086715036 -0.028707318)
(0.50228498 0.023313216 -0.088274775)
(0.83199415 0.039383611 -0.14380139)
(1.1176983 0.055669883 -0.1823964)
(1.31199 0.068745622 -0.19476404)
(1.392486 0.075833724 -0.18010261)
(1.3886416 0.077038404 -0.14780378)
(1.3544388 0.074125949 -0.11357593)
(1.330499 0.069279228 -0.086028004)
(0.16064496 0.0091674241 -0.028295903)
(0.46762493 0.02479964 -0.086927041)
(0.77895258 0.042279752 -0.14241638)
(1.0519997 0.060644212 -0.18241734)
(1.2413668 0.076672014 -0.19757017)
(1.3244177 0.087375361 -0.18626081)
(1.3264619 0.092279575 -0.1569735)
(1.2968289 0.09188628 -0.12435465)
(1.2748185 0.087996172 -0.097553052)
(0.14697437 0.0093897245 -0.027686267)
(0.43138636 0.025648715 -0.084975486)
(0.72404693 0.044257286 -0.14004152)
(0.98528239 0.064510004 -0.18115045)
(1.1716035 0.083420283 -0.1988563)
(1.2593432 0.097829008 -0.1906923)
(1.2689057 0.1066306 -0.16430376)
(1.244871 0.10919275 -0.1334118)
(1.2249943 0.10679573 -0.10754188)
(0.13282881 0.0093740196 -0.026713565)
(0.39381795 0.025995946 -0.082026894)
(0.66737212 0.045465457 -0.13624082)
(0.91737149 0.067317865 -0.17834081)
(1.1023826 0.088856983 -0.19873696)
(1.1970673 0.10682586 -0.19393201)
(1.2160334 0.11945424 -0.17056855)
(1.198653 0.12523908 -0.14150255)
(1.1809892 0.12486996 -0.11660636)
(0.11833269 0.0089127265 -0.025349703)
(0.35514436 0.025268092 -0.078051959)
(0.60907476 0.045108917 -0.13095362)
(0.8481739 0.068211526 -0.17391228)
(1.0334148 0.092127272 -0.19721054)
(1.137421 0.1134747 -0.19614189)
(1.1679963 0.12964077 -0.17626374)
(1.1586634 0.13889244 -0.14923544)
(1.1431908 0.1410783 -0.12536107)
(0.10404388 0.0083921929 -0.023820794)
(0.31655316 0.024305594 -0.073526034)
(0.55042904 0.044126568 -0.12465656)
(0.77850286 0.067869872 -0.16807146)
(0.96491689 0.093445172 -0.19415657)
(1.0805832 0.11753282 -0.19719175)
(1.1253649 0.13676391 -0.18151163)
(1.1263814 0.14954763 -0.15721323)
(1.1132929 0.15451819 -0.13487338)
(0.090093097 0.0071490505 -0.02125694)
(0.27837824 0.021478169 -0.066166405)
(0.49179058 0.040295469 -0.11397998)
(0.70846853 0.06394221 -0.15709562)
(0.89676659 0.090710604 -0.18652943)
(1.0267354 0.11731272 -0.19555219)
(1.0895263 0.13994706 -0.18605857)
(1.1043479 0.15709061 -0.16624235)
(1.0967286 0.16574783 -0.14719434)
(0.10925651 -0.0022023015 -0.0021876361)
(0.34844986 -0.0079827851 -0.008179622)
(0.63364954 -0.016584351 -0.017524448)
(0.93847023 -0.028538533 -0.030705951)
(1.2192919 -0.043524637 -0.046131182)
(1.4328352 -0.059603623 -0.059738812)
(1.5600304 -0.07408007 -0.067485534)
(1.6143342 -0.085923357 -0.068820907)
(1.6214122 -0.09506263 -0.066311094)
(0.12127519 -0.0030559525 -0.0027193343)
(0.38395363 -0.010764258 -0.0099284632)
(0.69200215 -0.021641913 -0.020929418)
(1.0124835 -0.035885507 -0.035968742)
(1.2953051 -0.052538353 -0.052656116)
(1.4960702 -0.069020944 -0.066228555)
(1.6020739 -0.082836316 -0.07285033)
(1.6355183 -0.093352189 -0.072654436)
(1.628421 -0.10082563 -0.068296888)
(0.13240094 -0.0035885196 -0.0028493107)
(0.41678514 -0.01261651 -0.010509852)
(0.74573363 -0.025119165 -0.022396503)
(1.0800352 -0.040986962 -0.038567575)
(1.3638626 -0.058681338 -0.056003819)
(1.5526423 -0.075135433 -0.069450844)
(1.6401472 -0.087993578 -0.075278527)
(1.656782 -0.096945916 -0.074185348)
(1.6400954 -0.10265943 -0.069030729)
(0.14282858 -0.0041885512 -0.0029701729)
(0.44738464 -0.014556581 -0.01099277)
(0.79551676 -0.028534765 -0.023604658)
(1.1422886 -0.045656202 -0.040622053)
(1.4270341 -0.063834564 -0.058420184)
(1.6055941 -0.079654447 -0.071428547)
(1.677742 -0.091010483 -0.076333215)
(1.6807391 -0.098131641 -0.074462346)
(1.6558702 -0.10208788 -0.068812917)
(0.15212117 -0.0047126865 -0.0029834643)
(0.47478653 -0.016249504 -0.011149472)
(0.84031429 -0.031452903 -0.024175632)
(1.1986804 -0.049493589 -0.041739058)
(1.4849787 -0.067742432 -0.059647239)
(1.6554659 -0.082495506 -0.07207985)
(1.7151396 -0.09195377 -0.07602391)
(1.7067899 -0.09714109 -0.073378151)
(1.6746779 -0.099312659 -0.067252796)
(0.16051886 -0.0051594428 -0.0028555151)
(0.49962931 -0.01767724 -0.010872844)
(0.88105314 -0.03383753 -0.023928403)
(1.2503459 -0.052426459 -0.041667092)
(1.5388587 -0.070264417 -0.059366399)
(1.7030667 -0.083479087 -0.071000796)
(1.7523867 -0.090752688 -0.073878816)
(1.7343669 -0.093843824 -0.070409868)
(1.6958047 -0.094371964 -0.063820722)
(0.16824377 -0.0055077704 -0.002641106)
(0.52254353 -0.018740955 -0.010256673)
(0.91880318 -0.035583898 -0.023204953)
(1.298648 -0.054137542 -0.040335319)
(1.5900634 -0.07099826 -0.057324659)
(1.7493531 -0.082195011 -0.067741077)
(1.7897188 -0.087066529 -0.069310993)
(1.7631676 -0.088103914 -0.064999914)
(1.7189111 -0.087189592 -0.058054792)
(0.17517553 -0.0055810672 -0.0022976742)
(0.54341138 -0.018905989 -0.0091568128)
(0.95383156 -0.035702021 -0.021405686)
(1.3441744 -0.053644433 -0.037473171)
(1.6393866 -0.068992431 -0.052970833)
(1.7948746 -0.077863046 -0.061715235)
(1.8273501 -0.080367467 -0.061784466)
(1.7930248 -0.079612864 -0.056706615)
(1.7438169 -0.077559356 -0.049637626)
(0.18132071 -0.0053167172 -0.0018781766)
(0.5622841 -0.017917982 -0.0077550258)
(0.98627158 -0.033663296 -0.01875059)
(1.3876101 -0.050244618 -0.033908959)
(1.6870412 -0.063053333 -0.046216924)
(1.8394517 -0.06947188 -0.052660886)
(1.86473 -0.06998384 -0.051177753)
(1.823379 -0.067916073 -0.045465949)
(1.7700129 -0.065163561 -0.038542365)
(0.18658237 -0.0045934133 -0.0013953962)
(0.57879396 -0.015324086 -0.0061001359)
(1.0153283 -0.02851671 -0.015368608)
(1.4275997 -0.042060098 -0.028127516)
(1.7314835 -0.052257498 -0.038716603)
(1.8809888 -0.055976673 -0.041094641)
(1.8997753 -0.055173462 -0.038213059)
(1.8525866 -0.052486315 -0.031953822)
(1.7963239 -0.049551319 -0.025116455)
(0.19089591 -0.003221327 -0.00092031369)
(0.59218262 -0.010622123 -0.0044372083)
(1.0388021 -0.019570686 -0.011902458)
(1.460067 -0.028521049 -0.022102639)
(1.7683842 -0.034887966 -0.029558684)
(1.9148846 -0.036788702 -0.029195086)
(1.9284138 -0.035658806 -0.025182488)
(1.8775764 -0.033219484 -0.018058288)
(1.8198332 -0.030983008 -0.01294144)
(0.19298442 -0.0011743212 -0.00062819746)
(0.59899349 -0.0038457261 -0.0034040302)
(1.0512377 -0.0070396137 -0.0097034761)
(1.4778698 -0.010184159 -0.018282409)
(1.7892592 -0.012353168 -0.023768896)
(1.9350955 -0.012975187 -0.022148569)
(1.9456415 -0.01239161 -0.016178176)
(1.8929297 -0.011367637 -0.0098518465)
(1.8338211 -0.010547165 -0.0059050696)
(0.19298441 0.0011743653 -0.0006282053)
(0.59899345 0.0038458237 -0.003404051)
(1.0512376 0.0070397679 -0.0097035084)
(1.4778697 0.010184338 -0.018282422)
(1.789259 0.012353331 -0.023768892)
(1.9350953 0.012975349 -0.022148556)
(1.9456413 0.012391792 -0.016178157)
(1.8929295 0.011367836 -0.0098518338)
(1.8338208 0.010547384 -0.005905075)
(0.19089589 0.0032213698 -0.00092031857)
(0.59218256 0.010622202 -0.0044372342)
(1.0388019 0.019570785 -0.011902511)
(1.4600667 0.028521142 -0.022102652)
(1.7683839 0.034888029 -0.029558653)
(1.9148841 0.036788786 -0.029195036)
(1.9284133 0.03565892 -0.025182441)
(1.8775759 0.033219612 -0.018058264)
(1.8198326 0.030983156 -0.012941474)
(0.18658235 0.0045934459 -0.001395373)
(0.57879389 0.015324139 -0.0061001046)
(1.0153282 0.028516749 -0.015368596)
(1.4275993 0.042060106 -0.02812748)
(1.7314832 0.05225748 -0.03871652)
(1.8809884 0.055976685 -0.041094545)
(1.8997749 0.055173495 -0.03821299)
(1.8525861 0.052486376 -0.031953797)
(1.7963231 0.04955135 -0.02511652)
(0.18132068 0.0053167214 -0.0018781331)
(0.56228403 0.017917986 -0.0077549607)
(0.98627148 0.033663296 -0.018750538)
(1.3876099 0.050244618 -0.033908897)
(1.6870412 0.063053357 -0.046216809)
(1.8394515 0.069471921 -0.052660756)
(1.8647298 0.06998388 -0.051177653)
(1.8233787 0.067916076 -0.045465883)
(1.7700121 0.065163461 -0.03854237)
(0.17517553 0.0055810671 -0.0022976467)
(0.54341137 0.018905989 -0.0091568209)
(0.95383159 0.035702051 -0.021405709)
(1.3441744 0.053644498 -0.037473109)
(1.6393866 0.068992539 -0.052970685)
(1.7948745 0.077863157 -0.061715067)
(1.82735 0.080367561 -0.061784318)
(1.7930245 0.079612845 -0.056706457)
(1.7438162 0.077559165 -0.049637555)
(0.16824378 0.0055077938 -0.0026411157)
(0.52254357 0.018741009 -0.010256735)
(0.91880328 0.035583988 -0.023204972)
(1.298648 0.054137672 -0.040335206)
(1.5900632 0.070998433 -0.057324474)
(1.749353 0.082195171 -0.06774088)
(1.7897187 0.087066656 -0.069310792)
(1.7631673 0.088103885 -0.064999667)
(1.7189106 0.087189419 -0.058054692)
(0.16051886 0.0051594594 -0.0028555221)
(0.49962929 0.017677304 -0.01087283)
(0.88105312 0.033837621 -0.02392835)
(1.2503458 0.052426601 -0.041667005)
(1.5388585 0.070264616 -0.059366242)
(1.7030667 0.083479302 -0.071000595)
(1.7523867 0.090752839 -0.073878587)
(1.7343667 0.093843806 -0.070409628)
(1.6958044 0.094371863 -0.06382061)
(0.15212116 0.0047126901 -0.0029834558)
(0.4747865 0.016249536 -0.011149454)
(0.84031426 0.031452964 -0.02417562)
(1.1986804 0.049493741 -0.041738983)
(1.4849787 0.067742652 -0.059647053)
(1.6554658 0.082495765 -0.072079669)
(1.7151398 0.09195396 -0.076023717)
(1.70679 0.097141145 -0.07337804)
(1.6746776 0.099312565 -0.067252637)
(0.14282858 0.0041885449 -0.002970161)
(0.4473846 0.014556596 -0.010992731)
(0.79551673 0.028534819 -0.023604604)
(1.1422887 0.04565635 -0.040621943)
(1.4270342 0.063834798 -0.05842009)
(1.6055941 0.079654696 -0.071428471)
(1.6777421 0.091010695 -0.076333166)
(1.6807391 0.098131732 -0.074462385)
(1.6558701 0.1020877 -0.068812663)
(0.13240094 0.0035884986 -0.0028492896)
(0.41678513 0.012616502 -0.010509794)
(0.74573361 0.025119174 -0.022396466)
(1.0800353 0.040987066 -0.038567538)
(1.3638628 0.058681567 -0.056003785)
(1.5526424 0.075135618 -0.069450812)
(1.6401472 0.087993656 -0.075278602)
(1.6567818 0.096945911 -0.074185435)
(1.6400953 0.10265923 -0.069030555)
(0.1212752 0.0030559417 -0.002719325)
(0.38395365 0.010764259 -0.0099284579)
(0.69200218 0.02164194 -0.020929452)
(1.0124835 0.035885625 -0.035968764)
(1.2953052 0.052538568 -0.052656082)
(1.4960704 0.069021106 -0.066228594)
(1.602074 0.082836218 -0.072850597)
(1.6355183 0.093351802 -0.072654673)
(1.6284207 0.1008251 -0.068296794)
(0.10925652 0.0022023255 -0.0021876548)
(0.34844989 0.0079828497 -0.008179684)
(0.63364957 0.016584457 -0.017524546)
(0.93847022 0.028538713 -0.030706011)
(1.2192919 0.043524854 -0.0461312)
(1.4328354 0.059603751 -0.059738913)
(1.5600305 0.074079939 -0.067485711)
(1.6143347 0.085923001 -0.06882136)
(1.6214122 0.09506235 -0.066311462)
(0.091079032 -0.00089989432 -0.00083442451)
(0.2940424 -0.0032969054 -0.0030894672)
(0.5431809 -0.0070425522 -0.00654904)
(0.82075053 -0.012641382 -0.01144574)
(1.0897057 -0.020455295 -0.01734921)
(1.3035085 -0.029947983 -0.022931139)
(1.4305664 -0.039410659 -0.026506697)
(1.4750071 -0.047077631 -0.027575785)
(1.4636716 -0.051884516 -0.027033358)
(0.099308361 -0.0010369595 -0.00086243667)
(0.31896261 -0.0038064766 -0.0032209661)
(0.5855136 -0.0081190517 -0.0069300461)
(0.87648329 -0.014489756 -0.012252736)
(1.148317 -0.023113254 -0.01853756)
(1.3505001 -0.032991776 -0.024066068)
(1.4549793 -0.042067405 -0.026988775)
(1.475478 -0.048738243 -0.027169244)
(1.4477859 -0.05259812 -0.025793116)
(0.10679261 -0.0010555239 -0.00077931446)
(0.34175182 -0.0039914866 -0.0030368233)
(0.62434403 -0.0086774424 -0.0068011308)
(0.92751183 -0.015643834 -0.012379618)
(1.2015498 -0.02487237 -0.018925032)
(1.3926981 -0.034886909 -0.024362126)
(1.4771368 -0.043345112 -0.026711976)
(1.477919 -0.048895098 -0.02611928)
(1.4392284 -0.051754508 -0.024177789)
(0.11367067 -0.0011184109 -0.00073562995)
(0.36267605 -0.0042784554 -0.0029483042)
(0.65997665 -0.0093536806 -0.0067981199)
(0.9743289 -0.016864338 -0.012607746)
(1.2505362 -0.026528748 -0.0193114)
(1.4322902 -0.036394938 -0.024514223)
(1.5000039 -0.043944221 -0.026199703)
(1.4848534 -0.04821367 -0.024881542)
(1.4374235 -0.049953266 -0.022411724)
(0.11956761 -0.0011736081 -0.00068915584)
(0.3808212 -0.0045257617 -0.0028205716)
(0.69122166 -0.0099632246 -0.0067492811)
(1.0158697 -0.017951185 -0.012723556)
(1.2946915 -0.027893312 -0.019497181)
(1.4691819 -0.037365257 -0.024382068)
(1.523553 -0.043777741 -0.025367884)
(1.4957059 -0.046659015 -0.023331137)
(1.4410465 -0.047307212 -0.02042516)
(0.12468418 -0.00125808 -0.0006521889)
(0.396647 -0.0048053397 -0.0026700262)
(0.71870633 -0.010548146 -0.0066408346)
(1.0527719 -0.018860407 -0.012643264)
(1.3345214 -0.028835571 -0.019318186)
(1.5035442 -0.037625868 -0.023761892)
(1.5473579 -0.042706951 -0.024008327)
(1.5094054 -0.04418759 -0.021297107)
(1.4487038 -0.043852339 -0.018046457)
(0.12919842 -0.0013539023 -0.00061928822)
(0.41060615 -0.0050544396 -0.0025232141)
(0.74305419 -0.01087878 -0.0062200699)
(1.0857943 -0.019373934 -0.012367306)
(1.3707313 -0.029075309 -0.018687671)
(1.5357151 -0.036894953 -0.022473902)
(1.5710752 -0.04053009 -0.021920302)
(1.5249596 -0.040705902 -0.018603435)
(1.4592015 -0.039586184 -0.015162902)
(0.1329572 -0.0014444894 -0.00057405087)
(0.42235691 -0.0052315325 -0.0023521554)
(0.76381135 -0.010970138 -0.0057711194)
(1.1148335 -0.019177585 -0.011698253)
(1.4035311 -0.028140415 -0.017511469)
(1.5658759 -0.034713832 -0.020362223)
(1.5944478 -0.036945641 -0.018976979)
(1.5415487 -0.036056665 -0.015206482)
(1.4714141 -0.034452832 -0.011839971)
(0.13595184 -0.0013984988 -0.00046653044)
(0.4318478 -0.0049610763 -0.0019762027)
(0.7808635 -0.01020464 -0.0050370241)
(1.1392291 -0.017366455 -0.0097056415)
(1.4325661 -0.025466674 -0.015756898)
(1.5936529 -0.030612959 -0.017593332)
(1.6168163 -0.031630604 -0.01536831)
(1.5581308 -0.030098312 -0.011423511)
(1.4839779 -0.028394343 -0.0085527024)
(0.13821093 -0.0011198415 -0.00032806694)
(0.43909625 -0.0040078062 -0.0015033702)
(0.79404046 -0.0082977157 -0.0042105199)
(1.1583165 -0.014106548 -0.0084559805)
(1.4562652 -0.020168797 -0.012661644)
(1.6175118 -0.024213886 -0.014896763)
(1.6366442 -0.024415782 -0.011878875)
(1.5729976 -0.022858553 -0.0082120477)
(1.4947796 -0.021522795 -0.0066099739)
(0.14001227 -0.00070609437 -0.00022579621)
(0.44464415 -0.0025669677 -0.0011652806)
(0.80379566 -0.0053733142 -0.0036218556)
(1.172027 -0.0091985162 -0.0076341886)
(1.4725876 -0.013171501 -0.011566605)
(1.6348565 -0.015612659 -0.013315847)
(1.6513817 -0.015468324 -0.0097199171)
(1.5834548 -0.014493498 -0.0071305756)
(1.5014388 -0.013648548 -0.0055033973)
(0.14072923 -0.00024259106 -0.00017636532)
(0.44704893 -0.00088711598 -0.0009998344)
(0.80832122 -0.0018639091 -0.0033270037)
(1.1787232 -0.003197681 -0.007187719)
(1.4807237 -0.0045778311 -0.010976763)
(1.6431317 -0.005332734 -0.012096361)
(1.6585556 -0.0052949053 -0.0094702845)
(1.588281 -0.0050027632 -0.0064547938)
(1.5046685 -0.0046905697 -0.004816651)
(0.14072922 0.00024262219 -0.00017637187)
(0.4470489 0.00088719576 -0.00099984618)
(0.80832116 0.0018640706 -0.003327025)
(1.1787231 0.0031979481 -0.0071877263)
(1.4807235 0.0045781862 -0.010976751)
(1.6431316 0.0053331453 -0.012096338)
(1.6585555 0.0052953161 -0.0094702554)
(1.5882808 0.0050031039 -0.0064547648)
(1.5046684 0.0046908008 -0.0048166195)
(0.14001226 0.0007061276 -0.00022580063)
(0.44464409 0.002567043 -0.0011652899)
(0.80379554 0.0053734489 -0.0036218923)
(1.1720267 0.0091987334 -0.0076342027)
(1.4725874 0.013171791 -0.011566569)
(1.6348563 0.015612989 -0.013315787)
(1.6513814 0.015468661 -0.0097198399)
(1.5834545 0.01449381 -0.0071304982)
(1.5014385 0.013648758 -0.0055033164)
(0.13821092 0.0011198718 -0.00032804797)
(0.4390962 0.0040078762 -0.0015033386)
(0.79404036 0.0082978313 -0.004210515)
(1.1583162 0.014106724 -0.0084559743)
(1.4562651 0.020169042 -0.012661595)
(1.6175116 0.024214181 -0.014896697)
(1.6366439 0.024416096 -0.011878782)
(1.5729973 0.02285882 -0.0082119411)
(1.4947791 0.02152294 -0.006609854)
(0.13595182 0.0013985124 -0.00046649719)
(0.43184775 0.0049611243 -0.0019761635)
(0.78086344 0.010204753 -0.0050370054)
(1.1392289 0.017366644 -0.0097056349)
(1.432566 0.025466939 -0.015756865)
(1.5936528 0.030613299 -0.017593287)
(1.6168161 0.031630954 -0.015368219)
(1.5581304 0.030098567 -0.011423376)
(1.4839774 0.028394377 -0.0085525569)
(0.13295719 0.0014445027 -0.0005740372)
(0.42235688 0.0052315827 -0.0023522052)
(0.76381136 0.010970285 -0.0057711988)
(1.1148334 0.019177837 -0.011698308)
(1.4035311 0.028140765 -0.017511477)
(1.5658758 0.034714237 -0.020362193)
(1.5944476 0.036946036 -0.018976873)
(1.5415484 0.036056909 -0.015206286)
(1.4714136 0.034452794 -0.01183976)
(0.12919842 0.001353939 -0.00061931165)
(0.41060617 0.0050545351 -0.0025233318)
(0.74305424 0.010878971 -0.0062201787)
(1.0857943 0.019374241 -0.012367338)
(1.3707311 0.029075715 -0.018687675)
(1.5357148 0.036895389 -0.022473858)
(1.571075 0.040530505 -0.021920181)
(1.5249593 0.040706148 -0.018603198)
(1.4592012 0.039586173 -0.015162662)
(0.12468418 0.001258119 -0.00065221034)
(0.39664697 0.0048054582 -0.0026700784)
(0.71870627 0.010548344 -0.0066408851)
(1.0527717 0.018860724 -0.01264331)
(1.3345212 0.028835984 -0.019318193)
(1.503544 0.037626341 -0.023761861)
(1.5473578 0.0427074 -0.024008242)
(1.5094053 0.044187863 -0.02129692)
(1.4487035 0.043852404 -0.01804625)
(0.1195676 0.0011736372 -0.00068917139)
(0.38082114 0.0045258546 -0.0028206324)
(0.69122156 0.0099633928 -0.0067493935)
(1.0158696 0.017951504 -0.01272364)
(1.2946914 0.027893758 -0.01949721)
(1.4691818 0.037365767 -0.024382126)
(1.5235529 0.043778224 -0.025367888)
(1.4957058 0.046659357 -0.023331079)
(1.4410462 0.047307323 -0.020424951)
(0.11367066 0.0011184374 -0.00073564123)
(0.362676 0.0042785463 -0.0029483467)
(0.65997657 0.0093538548 -0.0067982049)
(0.97432882 0.016864652 -0.012607836)
(1.250536 0.026529221 -0.019311529)
(1.4322901 0.036395463 -0.02451438)
(1.5000038 0.043944725 -0.026199866)
(1.4848532 0.048214072 -0.024881655)
(1.4374233 0.049953347 -0.022411453)
(0.10679261 0.0010555404 -0.00077932043)
(0.3417518 0.0039915623 -0.0030368512)
(0.62434399 0.0086775786 -0.0068012403)
(0.9275118 0.01564409 -0.012379792)
(1.2015498 0.024872805 -0.01892524)
(1.3926981 0.034887406 -0.024362379)
(1.4771366 0.043345561 -0.026712331)
(1.4779186 0.048895475 -0.026119465)
(1.4392282 0.051754458 -0.024177479)
(0.099308363 0.0010369781 -0.00086245229)
(0.3189626 0.0038065504 -0.0032210266)
(0.58551355 0.0081191821 -0.0069301963)
(0.87648319 0.014489975 -0.012252956)
(1.1483168 0.023113571 -0.018537819)
(1.3504999 0.032992146 -0.024066429)
(1.4549791 0.04206764 -0.026989226)
(1.4754777 0.048738171 -0.027169176)
(1.4477855 0.052597799 -0.025792757)
(0.09107904 0.00089993698 -0.00083446196)
(0.29404241 0.0032970212 -0.003089583)
(0.54318089 0.007042732 -0.0065492385)
(0.82075046 0.01264162 -0.011445981)
(1.0897056 0.020455543 -0.017349499)
(1.3035085 0.029948219 -0.022931481)
(1.4305663 0.039410851 -0.026506837)
(1.4750073 0.047077572 -0.02757578)
(1.4636717 0.051884353 -0.027033518)
(0.1007206 -0.00052653237 -0.00048158776)
(0.32342364 -0.0018415281 -0.0016603591)
(0.59347998 -0.0037860707 -0.0033074361)
(0.8896115 -0.006504614 -0.0055680317)
(1.1722408 -0.0099879686 -0.0085411734)
(1.3957011 -0.01392639 -0.011982252)
(1.5308463 -0.017631495 -0.015088514)
(1.5827024 -0.020484298 -0.016946173)
(1.577315 -0.02216516 -0.017514196)
(0.10953352 -0.00072302438 -0.00058454696)
(0.34962029 -0.0024661219 -0.0019716421)
(0.63690305 -0.0049410084 -0.0038479349)
(0.94500633 -0.0082478324 -0.0063817202)
(1.2284726 -0.012275891 -0.009669616)
(1.4389393 -0.016515217 -0.013366229)
(1.5512287 -0.020090145 -0.016488066)
(1.5794791 -0.022423025 -0.018124426)
(1.5583029 -0.023482599 -0.018162577)
(0.11734928 -0.00083512042 -0.00058624185)
(0.37288722 -0.002850174 -0.0019852689)
(0.67540773 -0.0056917106 -0.0038850318)
(0.99375761 -0.0094293479 -0.0064969027)
(1.2771541 -0.013851259 -0.009948075)
(1.4751948 -0.018241884 -0.013819092)
(1.5671087 -0.02156392 -0.016991959)
(1.5759004 -0.023339954 -0.018560963)
(1.5440732 -0.023869359 -0.018496252)
(0.12435909 -0.00093275279 -0.00056924524)
(0.39365936 -0.0031718578 -0.0019291556)
(0.7096262 -0.0062980264 -0.0037875516)
(1.0368864 -0.010357958 -0.0064023322)
(1.3201319 -0.015046025 -0.0099328529)
(1.5075068 -0.019444605 -0.013895555)
(1.5824927 -0.022388276 -0.017080093)
(1.5757093 -0.023560367 -0.018643729)
(1.5355879 -0.023573519 -0.018582486)
(0.13017843 -0.00098688021 -0.0005219967)
(0.41103374 -0.0033604257 -0.0017788294)
(0.73845238 -0.0066680957 -0.0035283287)
(1.0735056 -0.01094473 -0.0060836272)
(1.3570484 -0.015793415 -0.0096415784)
(1.5360324 -0.020094091 -0.013657321)
(1.5976374 -0.022584091 -0.01684892)
(1.5786803 -0.023145984 -0.018434518)
(1.5319604 -0.022680598 -0.018445697)
(0.1350578 -0.0010064008 -0.00045003988)
(0.42561365 -0.0034334442 -0.0015474326)
(0.76268125 -0.0068156173 -0.0031261329)
(1.1044029 -0.011185993 -0.0055575521)
(1.3884969 -0.016069043 -0.0090843391)
(1.5609877 -0.020155578 -0.013113302)
(1.6122006 -0.022127721 -0.016308506)
(1.5838916 -0.02210505 -0.017944105)
(1.5319636 -0.021233677 -0.0180721)
(0.13919588 -0.00098381382 -0.00036629335)
(0.43790819 -0.0033654068 -0.0012715455)
(0.7830338 -0.0066946507 -0.0026273959)
(1.1303565 -0.011016612 -0.0048702017)
(1.4151163 -0.015790463 -0.0082906029)
(1.5826226 -0.019546415 -0.012287061)
(1.6258266 -0.020965012 -0.015480533)
(1.590392 -0.02042008 -0.017192301)
(1.5343941 -0.01924743 -0.017483949)
(0.14246863 -0.0008965674 -0.0002704349)
(0.44769792 -0.0030931048 -0.000954372)
(0.79937565 -0.0061978746 -0.0020404389)
(1.1514635 -0.010266808 -0.004015942)
(1.4371991 -0.01474359 -0.00726368)
(1.601159 -0.01807449 -0.011187034)
(1.6382999 -0.018983069 -0.01439414)
(1.5974314 -0.018050365 -0.016240168)
(1.5382424 -0.016711576 -0.016757724)
(0.144942 -0.00073790246 -0.00017391091)
(0.45516806 -0.0025877615 -0.00063669182)
(0.8120034 -0.0052618495 -0.001457559)
(1.1680738 -0.0088617015 -0.0031489026)
(1.4550777 -0.013080626 -0.006308882)
(1.6167186 -0.015880499 -0.010033844)
(1.6493486 -0.016108874 -0.013130584)
(1.6043026 -0.014964279 -0.015218202)
(1.5425635 -0.013637539 -0.016052434)
(0.14670613 -0.00053257527 -9.4458896e-05)
(0.46057024 -0.0019124765 -0.00037516334)
(0.82127897 -0.003976157 -0.00098693049)
(1.1805634 -0.0068850636 -0.0024836851)
(1.4690045 -0.0100956 -0.0052579173)
(1.6293215 -0.012322914 -0.0088631333)
(1.6585215 -0.012545516 -0.012051672)
(1.6102399 -0.011237956 -0.014354013)
(1.5464591 -0.010104794 -0.015572508)
(0.14810432 -0.00031573188 -4.2484702e-05)
(0.46464275 -0.0011568773 -0.00020405244)
(0.82799178 -0.0024468789 -0.00067798216)
(1.1893527 -0.0043032253 -0.0020094604)
(1.4786096 -0.006357544 -0.0046151381)
(1.6381092 -0.0077562332 -0.008147497)
(1.6651191 -0.0078563584 -0.01132318)
(1.6144507 -0.00697318 -0.013897013)
(1.5492127 -0.0062215943 -0.015328781)
(0.14856971 -0.00010567967 -1.9259263e-05)
(0.46617356 -0.00039207264 -0.0001263817)
(0.83078538 -0.00084033263 -0.0005457549)
(1.1933235 -0.0014715385 -0.0017884037)
(1.4832041 -0.0021727454 -0.0043197257)
(1.6424281 -0.0026400553 -0.0077977976)
(1.6684412 -0.002672037 -0.011119421)
(1.6165873 -0.0023652196 -0.013703298)
(1.5506221 -0.0021016099 -0.015215425)
(0.14856971 0.00010571845 -1.9264058e-05)
(0.46617355 0.0003921746 -0.00012639128)
(0.83078536 0.00084051788 -0.00054576959)
(1.1933234 0.0014718199 -0.0017884113)
(1.4832041 0.0021731082 -0.0043197201)
(1.642428 0.0026404787 -0.0077977813)
(1.6684412 0.0026724522 -0.011119393)
(1.6165872 0.0023655149 -0.013703261)
(1.550622 0.0021017291 -0.015215383)
(0.14810431 0.00031577226 -4.2488947e-05)