/*--------------------------------*- C++ -*----------------------------------*\
| =========                 |                                                 |
| \\      /  F ield         | OpenFOAM: The Open Source CFD Toolbox           |
|  \\    /   O peration     | Version:  2406                                  |
|   \\  /    A nd           | Website:  www.openfoam.com                      |
|    \\/     M anipulation  |                                                 |
\*---------------------------------------------------------------------------*/
FoamFile
{
    version     2.0;
    format      ascii;
    arch        "LSB;label=32;scalar=64";
    class       volScalarField;
    location    "8";
    object      p;
}
// * * * * * * * * * * * * * * * * * * * * * * * * * * * * * * * * * * * * * //

dimensions      [0 2 -2 0 0 0 0];

internalField   nonuniform List<scalar> 
1176
(
0.79699879
0.79702167
0.79704533
0.797053
0.79702148
0.79692678
0.79676955
0.79658338
0.79640418
0.79623702
0.7960824
0.79598679
0.79598679
0.7960824
0.79623704
0.79640421
0.79658344
0.79676964
0.79692691
0.79702164
0.79705318
0.79704551
0.79702182
0.79699892
0.77385035
0.7738034
0.77375565
0.77373876
0.77380127
0.77400363
0.77436895
0.77483335
0.77526421
0.77555031
0.77566971
0.77570396
0.77570396
0.77566969
0.77555027
0.77526415
0.77483327
0.77436886
0.77400354
0.77380117
0.77373865
0.77375552
0.77380326
0.7738502
0.75676559
0.75678761
0.75680742
0.75680552
0.75674647
0.7565853
0.75631353
0.75598558
0.75567937
0.75546658
0.75535578
0.75530696
0.75530696
0.75535578
0.75546657
0.75567936
0.75598558
0.75631354
0.75658532
0.75674651
0.75680559
0.75680752
0.75678774
0.75676575
0.7400937
0.74010284
0.74011491
0.74013132
0.74015388
0.74017146
0.74013922
0.74000581
0.7397737
0.73950114
0.73927693
0.73915643
0.73915643
0.73927693
0.73950112
0.73977369
0.7400058
0.74013922
0.74017146
0.7401539
0.74013137
0.74011498
0.74010294
0.74009382
0.72367467
0.72367864
0.72368364
0.72368971
0.72369942
0.7237197
0.72375589
0.7237974
0.72381907
0.7237952
0.72373309
0.72368045
0.72368045
0.72373308
0.72379519
0.72381906
0.72379739
0.72375588
0.7237197
0.72369943
0.72368973
0.72368367
0.72367868
0.72367472
0.70721305
0.70721547
0.70721872
0.70722277
0.70722768
0.70723452
0.70724869
0.70728
0.70733
0.70738725
0.70742996
0.70744661
0.70744661
0.70742995
0.70738723
0.70732998
0.70728
0.70724869
0.70723454
0.70722771
0.7072228
0.70721875
0.70721549
0.70721307
0.69080729
0.69080942
0.69081222
0.69081565
0.69081954
0.69082306
0.69082513
0.69082731
0.69083586
0.69085309
0.69087099
0.69088271
0.69088271
0.69087098
0.69085308
0.69083584
0.6908273
0.69082513
0.69082307
0.69081956
0.69081566
0.69081223
0.69080941
0.69080727
0.67442745
0.6744292
0.67443152
0.67443443
0.6744381
0.67444247
0.67444692
0.67445008
0.67445132
0.67445294
0.67444999
0.67444747
0.67444747
0.67444998
0.67445292
0.6744513
0.67445007
0.67444692
0.67444248
0.67443811
0.67443443
0.67443149
0.67442914
0.67442737
0.65807317
0.65807462
0.65807654
0.65807895
0.65808196
0.65808575
0.65809079
0.65809784
0.65810653
0.65811656
0.65812433
0.65812791
0.65812791
0.65812431
0.65811654
0.65810651
0.65809783
0.65809079
0.65808575
0.65808197
0.65807895
0.65807653
0.65807458
0.65807312
0.64173546
0.64173666
0.64173828
0.64174031
0.64174288
0.64174606
0.64175022
0.64175661
0.64176677
0.64177991
0.64179424
0.64180354
0.64180354
0.64179423
0.64177989
0.64176675
0.64175659
0.64175021
0.64174605
0.64174288
0.64174032
0.64173829
0.64173668
0.64173549
0.62541105
0.62541209
0.62541348
0.62541524
0.62541746
0.62542019
0.62542359
0.62542844
0.6254363
0.62544696
0.62545952
0.62546865
0.62546865
0.62545951
0.62544694
0.62543628
0.62542842
0.62542357
0.62542018
0.62541745
0.62541524
0.62541349
0.62541211
0.62541109
0.60909756
0.60909847
0.60909969
0.60910124
0.6091032
0.6091056
0.60910857
0.60911258
0.60911879
0.60912745
0.60913802
0.60914546
0.60914546
0.609138
0.60912744
0.60911877
0.60911256
0.60910855
0.60910559
0.60910319
0.60910126
0.60909974
0.60909855
0.60909767
0.59279337
0.59279418
0.59279526
0.59279663
0.59279837
0.59280051
0.59280315
0.59280669
0.59281209
0.59281983
0.59282952
0.5928362
0.59283619
0.59282951
0.59281982
0.59281207
0.59280666
0.59280312
0.59280048
0.59279836
0.59279666
0.59279533
0.59279431
0.59279355
0.57649718
0.5764979
0.57649886
0.57650008
0.57650163
0.57650355
0.5765059
0.57650904
0.57651381
0.57652078
0.57652944
0.57653553
0.57653552
0.57652943
0.57652076
0.57651379
0.57650902
0.57650588
0.57650353
0.57650163
0.5765001
0.5764989
0.57649797
0.57649728
0.56020797
0.56020861
0.56020946
0.56021055
0.56021194
0.56021366
0.56021577
0.56021854
0.5602227
0.56022883
0.56023635
0.56024174
0.56024174
0.56023633
0.56022881
0.56022268
0.56021851
0.56021575
0.56021365
0.56021194
0.56021056
0.56020949
0.56020865
0.56020803
0.54392492
0.54392548
0.54392624
0.54392721
0.54392846
0.54393002
0.54393192
0.54393438
0.54393802
0.5439434
0.54394993
0.54395471
0.54395471
0.54394991
0.54394338
0.543938
0.54393436
0.54393191
0.54393002
0.54392847
0.54392722
0.54392626
0.54392551
0.54392495
0.52764736
0.52764786
0.52764853
0.5276494
0.52765054
0.52765195
0.52765367
0.52765588
0.52765911
0.52766387
0.5276696
0.52767388
0.52767388
0.52766958
0.52766386
0.5276591
0.52765588
0.52765368
0.52765196
0.52765055
0.52764941
0.52764851
0.5276478
0.52764728
0.51137473
0.51137518
0.51137578
0.51137657
0.5113776
0.51137889
0.51138046
0.51138246
0.51138534
0.51138959
0.51139465
0.51139851
0.51139851
0.51139464
0.51138958
0.51138533
0.51138246
0.51138048
0.51137892
0.51137762
0.51137657
0.51137574
0.51137509
0.5113746
0.49510656
0.49510697
0.49510752
0.49510824
0.49510919
0.49511037
0.49511181
0.49511362
0.4951162
0.49512001
0.49512451
0.495128
0.495128
0.49512451
0.49512001
0.4951162
0.49511363
0.49511183
0.4951104
0.49510921
0.49510825
0.49510749
0.4951069
0.49510646
0.47884246
0.47884284
0.47884335
0.47884401
0.47884488
0.47884598
0.4788473
0.47884895
0.47885127
0.4788547
0.47885874
0.47886191
0.47886191
0.47885874
0.47885471
0.47885128
0.47884897
0.47884733
0.47884601
0.47884491
0.47884402
0.47884331
0.47884276
0.47884234
0.46258208
0.46258243
0.46258291
0.46258354
0.46258435
0.46258536
0.46258658
0.46258808
0.46259019
0.46259329
0.46259695
0.46259982
0.46259983
0.46259696
0.46259331
0.46259021
0.46258811
0.46258661
0.46258539
0.46258437
0.46258354
0.46258289
0.46258237
0.46258198
0.44632512
0.44632546
0.44632592
0.44632651
0.44632727
0.44632821
0.44632934
0.44633072
0.44633264
0.44633546
0.44633878
0.44634141
0.44634141
0.4463388
0.44633548
0.44633266
0.44633075
0.44632937
0.44632824
0.44632729
0.44632652
0.44632592
0.44632545
0.4463251
0.43007134
0.43007167
0.43007211
0.43007267
0.43007338
0.43007426
0.4300753
0.43007658
0.43007833
0.4300809
0.43008394
0.43008634
0.43008635
0.43008396
0.43008093
0.43007836
0.43007661
0.43007533
0.43007428
0.4300734
0.43007269
0.43007213
0.43007169
0.43007137
0.4138205
0.41382081
0.41382123
0.41382177
0.41382244
0.41382326
0.41382423
0.41382541
0.41382702
0.41382937
0.41383217
0.41383436
0.41383437
0.41383219
0.4138294
0.41382704
0.41382544
0.41382425
0.41382327
0.41382245
0.41382179
0.41382127
0.41382087
0.41382057
0.39757239
0.39757269
0.39757309
0.3975736
0.39757423
0.397575
0.39757591
0.397577
0.39757848
0.39758064
0.39758322
0.39758523
0.39758524
0.39758323
0.39758066
0.3975785
0.39757702
0.39757592
0.397575
0.39757423
0.39757361
0.39757313
0.39757275
0.39757248
0.38132683
0.38132711
0.38132749
0.38132796
0.38132855
0.38132927
0.38133012
0.38133114
0.38133251
0.3813345
0.38133688
0.38133874
0.38133874
0.38133689
0.38133452
0.38133253
0.38133116
0.38133013
0.38132927
0.38132856
0.38132798
0.38132754
0.3813272
0.38132694
0.36508365
0.3650839
0.36508425
0.36508468
0.36508524
0.36508591
0.36508671
0.36508766
0.36508893
0.36509077
0.36509298
0.36509469
0.36509469
0.36509298
0.36509078
0.36508894
0.36508767
0.3650867
0.3650859
0.36508523
0.3650847
0.36508429
0.36508398
0.36508376
0.34884267
0.3488429
0.34884321
0.34884361
0.34884412
0.34884475
0.3488455
0.3488464
0.34884757
0.34884927
0.34885133
0.3488529
0.3488529
0.34885133
0.34884928
0.34884757
0.34884639
0.34884549
0.34884474
0.34884411
0.34884361
0.34884322
0.34884293
0.34884271
0.33260375
0.33260395
0.33260423
0.33260459
0.33260506
0.33260565
0.33260635
0.33260719
0.33260829
0.33260987
0.33261178
0.33261324
0.33261324
0.33261177
0.33260986
0.33260828
0.33260718
0.33260634
0.33260564
0.33260505
0.33260458
0.33260422
0.33260395
0.33260375
0.31636674
0.31636692
0.31636716
0.31636749
0.31636792
0.31636847
0.31636913
0.31636992
0.31637094
0.31637241
0.31637419
0.31637555
0.31637555
0.31637418
0.3163724
0.31637093
0.3163699
0.31636912
0.31636846
0.31636791
0.31636747
0.31636714
0.31636689
0.3163667
0.30013151
0.30013167
0.30013189
0.30013218
0.30013258
0.30013309
0.30013371
0.30013445
0.30013541
0.30013678
0.30013845
0.30013971
0.3001397
0.30013843
0.30013677
0.30013539
0.30013444
0.3001337
0.30013308
0.30013256
0.30013214
0.30013182
0.30013156
0.30013137
0.28389794
0.28389808
0.28389828
0.28389855
0.28389893
0.2838994
0.28389998
0.28390067
0.28390157
0.28390285
0.28390441
0.28390559
0.28390558
0.2839044
0.28390283
0.28390156
0.28390067
0.28389998
0.2838994
0.28389891
0.28389851
0.28389819
0.28389794
0.28389775
0.26766592
0.26766606
0.26766625
0.2676665
0.26766685
0.2676673
0.26766784
0.26766849
0.26766932
0.26767052
0.26767199
0.26767309
0.26767309
0.26767198
0.26767051
0.26766931
0.26766848
0.26766784
0.2676673
0.26766684
0.26766646
0.26766617
0.26766594
0.26766576
0.25143537
0.2514355
0.25143569
0.25143593
0.25143626
0.25143668
0.25143719
0.2514378
0.25143858
0.2514397
0.25144107
0.25144211
0.25144211
0.25144107
0.25143969
0.25143858
0.2514378
0.25143719
0.25143668
0.25143624
0.25143587
0.25143558
0.25143534
0.25143517
0.2352062
0.23520633
0.23520651
0.23520675
0.23520707
0.23520746
0.23520794
0.23520851
0.23520924
0.23521029
0.23521159
0.23521256
0.23521256
0.23521159
0.23521029
0.23520925
0.23520852
0.23520795
0.23520747
0.23520705
0.2352067
0.23520641
0.23520617
0.23520599
0.21897833
0.21897846
0.21897864
0.21897888
0.21897918
0.21897956
0.21898001
0.21898054
0.21898123
0.21898221
0.21898342
0.21898434
0.21898434
0.21898343
0.21898222
0.21898124
0.21898055
0.21898001
0.21897956
0.21897917
0.21897885
0.2189786
0.2189784
0.21897825
0.20275168
0.20275182
0.20275201
0.20275224
0.20275254
0.20275289
0.20275332
0.20275382
0.20275446
0.20275538
0.20275653
0.20275739
0.20275739
0.20275654
0.2027554
0.20275448
0.20275383
0.20275332
0.20275288
0.20275251
0.20275222
0.20275199
0.20275181
0.20275168
0.1865262
0.18652635
0.18652654
0.18652677
0.18652705
0.1865274
0.1865278
0.18652826
0.18652887
0.18652973
0.1865308
0.1865316
0.18653161
0.18653082
0.18652975
0.18652889
0.18652828
0.1865278
0.18652739
0.18652704
0.18652675
0.18652653
0.18652636
0.18652624
0.17030182
0.17030196
0.17030216
0.17030239
0.17030267
0.17030299
0.17030337
0.17030381
0.17030438
0.17030519
0.1703062
0.17030696
0.17030697
0.17030622
0.17030521
0.1703044
0.17030382
0.17030336
0.17030297
0.17030265
0.1703024
0.17030222
0.17030209
0.170302
0.15407848
0.15407863
0.15407882
0.15407905
0.15407932
0.15407963
0.15407999
0.15408041
0.15408094
0.15408169
0.15408263
0.15408333
0.15408334
0.15408265
0.15408172
0.15408096
0.15408041
0.15407998
0.1540796
0.1540793
0.15407908
0.15407893
0.15407883
0.15407876
0.13785612
0.13785626
0.13785645
0.13785667
0.13785693
0.13785723
0.13785757
0.13785797
0.13785847
0.13785918
0.13786007
0.13786073
0.13786073
0.13786009
0.1378592
0.13785849
0.13785797
0.13785756
0.13785721
0.13785693
0.13785671
0.13785657
0.13785647
0.1378564
0.12163472
0.12163485
0.12163503
0.12163524
0.12163548
0.12163577
0.1216361
0.12163647
0.12163694
0.12163759
0.1216384
0.121639
0.121639
0.12163841
0.12163761
0.12163695
0.12163647
0.12163608
0.12163576
0.12163549
0.12163529
0.12163516
0.12163507
0.12163501
0.10541419
0.1054143
0.10541446
0.10541465
0.10541488
0.10541515
0.10541547
0.10541582
0.10541626
0.10541687
0.10541763
0.10541818
0.10541818
0.10541764
0.10541688
0.10541626
0.10541582
0.10541546
0.10541515
0.1054149
0.10541472
0.10541459
0.1054145
0.10541444
0.089194541
0.08919464
0.089194772
0.089194939
0.089195148
0.089195403
0.089195701
0.08919604
0.089196446
0.089196983
0.089197628
0.089198087
0.089198087
0.089197626
0.089196978
0.089196437
0.089196033
0.089195704
0.089195424
0.08919519
0.089195004
0.089194864
0.089194755
0.089194675
0.07297561
0.072975687
0.072975794
0.072975936
0.072976126
0.072976367
0.072976654
0.07297698
0.072977363
0.072977857
0.072978433
0.072978822
0.072978819
0.072978423
0.07297784
0.072977344
0.07297697
0.072976663
0.072976398
0.072976172
0.072975987
0.072975839
0.07297572
0.07297563
0.056757551
0.056757613
0.056757701
0.056757823
0.056757992
0.05675821
0.056758472
0.056758769
0.056759099
0.056759475
0.056759846
0.056760053
0.056760049
0.056759832
0.056759451
0.056759075
0.056758762
0.056758493
0.056758255
0.056758046
0.056757865
0.056757707
0.056757573
0.056757468
0.040539803
0.040539848
0.040539917
0.040540023
0.040540185
0.040540408
0.04054068
0.040540984
0.040541319
0.040541729
0.040542194
0.040542496
0.040542491
0.040542178
0.040541702
0.040541293
0.040540978
0.040540704
0.040540455
0.040540236
0.040540049
0.040539889
0.040539754
0.040539649
0.024323541
0.024323599
0.024323679
0.024323782
0.024323915
0.024324072
0.024324249
0.024324441
0.024324615
0.024324697
0.024324609
0.024324375
0.024324371
0.024324594
0.024324672
0.024324593
0.024324438
0.024324274
0.024324116
0.024323957
0.024323794
0.024323635
0.024323487
0.024323369
0.008105445
0.0081054944
0.0081055632
0.0081056634
0.008105811
0.0081060054
0.0081062267
0.0081064699
0.0081068521
0.0081076898
0.0081091677
0.0081105346
0.0081105321
0.0081091584
0.0081076737
0.0081068374
0.0081064678
0.0081062416
0.0081060312
0.0081058317
0.0081056561
0.0081055049
0.0081053761
0.0081052737
)
;

boundaryField
{
    INLET
    {
        type            zeroGradient;
    }
    OUTLET
    {
        type            fixedValue;
        value           uniform 0;
    }
    WALL
    {
        type            zeroGradient;
    }
    frontAndBackPlanes
    {
        type            empty;
    }
}


// ************************************************************************* //
