/*--------------------------------*- C++ -*----------------------------------*\
| =========                 |                                                 |
| \\      /  F ield         | OpenFOAM: The Open Source CFD Toolbox           |
|  \\    /   O peration     | Version:  2406                                  |
|   \\  /    A nd           | Website:  www.openfoam.com                      |
|    \\/     M anipulation  |                                                 |
\*---------------------------------------------------------------------------*/
FoamFile
{
    version     2.0;
    format      ascii;
    arch        "LSB;label=32;scalar=64";
    class       surfaceScalarField;
    location    "8";
    object      phi;
}
// * * * * * * * * * * * * * * * * * * * * * * * * * * * * * * * * * * * * * //

dimensions      [0 3 -1 0 0 0 0];

oriented        oriented;

internalField   nonuniform List<scalar> 
2279
(
2.3606256e-08
1.0148926e-05
2.0507783e-07
4.9823749e-05
6.9329604e-07
0.00014252872
1.5784608e-06
0.00034353082
2.678854e-06
0.00075378088
3.3473125e-06
0.0015415573
3.0435453e-06
0.0029497096
2.1517038e-06
0.005249171
1.4318146e-06
0.008582269
9.895985e-07
0.012685995
5.1267103e-07
0.016666385
8.7994384e-13
0.01918202
-5.1267265e-07
0.01918202
-9.8961413e-07
0.016666385
-1.4318605e-06
0.012685995
-2.1517934e-06
0.0085822691
-3.0436897e-06
0.0052491711
-3.3475057e-06
0.0029497097
-2.6790436e-06
0.0015415574
-1.5785624e-06
0.00075378096
-6.9326988e-07
0.00034353086
-2.0499788e-07
0.00014252873
-2.3541012e-08
4.9823755e-05
1.0148928e-05
-9.5272795e-08
1.0244175e-05
-5.3798437e-07
5.0266439e-05
-1.6230536e-06
0.00014361378
-3.5389902e-06
0.00034544676
-5.9202002e-06
0.00075616211
-7.4054961e-06
0.0015430426
-6.5847114e-06
0.0029488888
-3.9361438e-06
0.0052465224
-1.3883763e-06
0.0085797212
-6.5109295e-08
0.012684671
2.424166e-07
0.016666078
1.2094543e-11
0.019182263
-2.4238686e-07
0.019182263
6.5150452e-08
0.016666078
1.3884276e-06
0.012684671
3.9361842e-06
0.0085797212
6.584722e-06
0.0052465223
7.4054961e-06
0.0029488887
5.9202371e-06
0.0015430425
3.5390731e-06
0.00075616207
1.6231474e-06
0.00034544674
5.3805217e-07
0.00014361376
9.5303181e-08
5.0266434e-05
1.0244173e-05
5.010515e-08
1.0194034e-05
2.6328077e-07
5.0053233e-05
7.490283e-07
0.00014312801
1.5313948e-06
0.00034466441
2.3366197e-06
0.0007553569
2.5476495e-06
0.0015428316
1.8390949e-06
0.0029495973
9.756772e-07
0.0052473858
6.7696157e-07
0.0085800199
6.7179036e-07
0.012684676
4.8417229e-07
0.016666265
1.8414e-11
0.019182747
-4.8412714e-07
0.019182747
-6.7172875e-07
0.016666265
-6.7689414e-07
0.012684676
-9.7563543e-07
0.0085800199
-1.8391085e-06
0.0052473858
-2.5477199e-06
0.0029495974
-2.3367433e-06
0.0015428316
-1.531564e-06
0.0007553569
-7.4921229e-07
0.00034466441
-2.6342139e-07
0.00014312801
-5.0178341e-08
5.0053234e-05
1.0194035e-05
1.9549354e-08
1.0174448e-05
1.117794e-07
4.996097e-05
3.6119654e-07
0.00014287857
9.0497305e-07
0.00034412064
1.8716122e-06
0.00075439028
3.0948012e-06
0.0015416084
3.8987126e-06
0.0029487934
3.7285451e-06
0.0052475559
2.9242039e-06
0.0085808242
1.9733729e-06
0.012685627
1.0127752e-06
0.016667226
1.4917662e-11
0.01918376
-1.0127404e-06
0.01918376
-1.9733282e-06
0.016667226
-2.9241597e-06
0.012685627
-3.7285208e-06
0.0085808242
-3.8987238e-06
0.0052475559
-3.094862e-06
0.0029487934
-1.8717277e-06
0.0015416084
-9.0512438e-07
0.00075439028
-3.6134948e-07
0.00034412064
-1.1189095e-07
0.00014287858
-1.9605572e-08
4.9960972e-05
1.0174448e-05
8.0572284e-09
1.0166363e-05
4.709077e-08
4.9921912e-05
1.5488066e-07
0.00014277077
3.9840091e-07
0.00034387712
8.7974503e-07
0.00075390894
1.7014799e-06
0.0015407867
2.7512491e-06
0.0029477436
3.4623441e-06
0.0052468448
3.4708522e-06
0.0085808157
2.8006812e-06
0.012686297
1.5505175e-06
0.016668476
1.5039643e-11
0.01918531
-1.5504835e-06
0.01918531
-2.800639e-06
0.016668476
-3.4708068e-06
0.012686297
-3.4623156e-06
0.0085808157
-2.7512511e-06
0.0052468448
-1.701513e-06
0.0029477436
-8.7979952e-07
0.0015407867
-3.98464e-07
0.00075390894
-1.549412e-07
0.00034387712
-4.7134571e-08
0.00014277077
-8.080082e-09
4.9921913e-05
1.0166364e-05
4.9286484e-09
1.0161428e-05
2.8684123e-08
4.9898149e-05
9.509864e-08
0.00014270434
2.4918504e-07
0.00034372302
5.6357411e-07
0.00075359454
1.1213368e-06
0.0015402289
1.9184232e-06
0.0029469465
2.6587972e-06
0.0052461044
2.8930443e-06
0.0085805814
2.4787594e-06
0.012686712
1.4344271e-06
0.01666952
1.4449322e-11
0.019186744
-1.4343943e-06
0.019186744
-2.4787206e-06
0.01666952
-2.893012e-06
0.012686712
-2.6587924e-06
0.0085805814
-1.9184584e-06
0.0052461044
-1.1213959e-06
0.0029469466
-5.6362495e-07
0.0015402289
-2.4920179e-07
0.00075359455
-9.5079236e-08
0.00034372303
-2.8654499e-08
0.00014270435
-4.9086597e-09
4.989815e-05
1.0161428e-05
4.4263331e-09
1.0157015e-05
2.5550499e-08
4.9877035e-05
8.3856501e-08
0.00014264604
2.1690529e-07
0.00034358996
4.8448876e-07
0.00075332693
9.5632838e-07
0.001539757
1.641334e-06
0.0029462615
2.3245495e-06
0.0052454212
2.5939311e-06
0.008580312
2.2393521e-06
0.012687066
1.306673e-06
0.016670453
1.4711439e-11
0.019188051
-1.3066384e-06
0.019188051
-2.2393122e-06
0.016670453
-2.593905e-06
0.012687066
-2.3245578e-06
0.008580312
-1.6413792e-06
0.0052454212
-9.5638389e-07
0.0029462615
-4.8451681e-07
0.001539757
-2.1688535e-07
0.00075332694
-8.3799261e-08
0.00034358996
-2.5493878e-08
0.00014264604
-4.3934554e-09
4.9877036e-05
1.0157016e-05
3.6487042e-09
1.015339e-05
2.1079144e-08
4.9859625e-05
6.9488312e-08
0.00014259764
1.8117593e-07
0.00034347825
4.0972074e-07
0.00075309836
8.2388302e-07
0.0015393428
1.4539561e-06
0.0029456314
2.1430388e-06
0.0052447321
2.4674477e-06
0.0085799876
2.1883809e-06
0.012687345
1.2866417e-06
0.016671355
1.4130821e-11
0.019189338
-1.2866074e-06
0.019189338
-2.1883415e-06
0.016671355
-2.4674252e-06
0.012687345
-2.1430534e-06
0.0085799876
-1.4539971e-06
0.0052447321
-8.2391296e-07
0.0029456314
-4.0969362e-07
0.0015393428
-1.8107207e-07
0.00075309836
-6.9333165e-08
0.00034347825
-2.0944543e-08
0.00014259764
-3.5738e-09
4.9859624e-05
1.015339e-05
2.996855e-09
1.0150407e-05
1.7372675e-08
4.9845261e-05
5.7408919e-08
0.00014255761
1.5009832e-07
0.00034338556
3.4098031e-07
0.00075290745
6.9192304e-07
0.0015389919
1.2440855e-06
0.0029450792
1.9041564e-06
0.005244072
2.3015772e-06
0.0085795901
2.0974959e-06
0.012687549
1.2520102e-06
0.0166722
1.4300429e-11
0.01919059
-1.2519762e-06
0.01919059
-2.0974577e-06
0.0166722
-2.3015547e-06
0.012687549
-1.9041668e-06
0.0085795902
-1.2441194e-06
0.005244072
-6.9195182e-07
0.0029450792
-3.4097035e-07
0.0015389919
-1.5003383e-07
0.00075290746
-5.7305705e-08
0.00034338556
-1.7281011e-08
0.00014255761
-2.9449891e-09
4.9845259e-05
1.0150406e-05
2.4549725e-09
1.0147941e-05
1.4344175e-08
4.9833363e-05
4.760433e-08
0.00014252434
1.2501268e-07
0.00034330815
2.8558127e-07
0.00075274689
5.8417491e-07
0.0015386933
1.0641752e-06
0.0029445992
1.6641411e-06
0.005243472
2.089856e-06
0.0085791644
1.9528831e-06
0.012687686
1.1802443e-06
0.016672973
1.4466833e-11
0.01919177
-1.1802117e-06
0.01919177
-1.9528461e-06
0.016672973
-2.0898279e-06
0.012687686
-1.6641305e-06
0.0085791644
-1.0641796e-06
0.005243472
-5.8419027e-07
0.0029445992
-2.8560928e-07
0.0015386933
-1.2505578e-07
0.0007527469
-4.7657259e-08
0.00034330815
-1.4387715e-08
0.00014252434
-2.4789636e-09
4.9833363e-05
1.0147941e-05
2.0636308e-09
1.0145839e-05
1.21863e-08
4.9823206e-05
4.0600728e-08
0.00014249591
1.0692096e-07
0.00034324185
2.4504134e-07
0.0007526088
5.0384161e-07
0.0015384345
9.2623186e-07
0.0029441768
1.4715053e-06
0.0052429267
1.8908968e-06
0.008578745
1.8050131e-06
0.012687772
1.1036899e-06
0.016673674
1.3766678e-11
0.019192873
-1.1036603e-06
0.019192873
-1.8049807e-06
0.016673674
-1.890866e-06
0.012687772
-1.4714792e-06
0.008578745
-9.2621336e-07
0.0052429267
-5.0383777e-07
0.0029441768
-2.4506474e-07
0.0015384345
-1.0697469e-07
0.0007526088
-4.0671016e-08
0.00034324185
-1.2244252e-08
0.00014249591
-2.0949954e-09
4.9823206e-05
1.0145838e-05
1.7686143e-09
1.014401e-05
1.0554612e-08
4.9814368e-05
3.5292972e-08
0.00014247114
9.3170156e-08
0.00034318399
2.1407281e-07
0.00075248794
4.4190203e-07
0.0015382067
8.1810733e-07
0.0029438006
1.3163789e-06
0.0052424284
1.7244898e-06
0.0085783369
1.6780379e-06
0.012687819
1.0378066e-06
0.016674314
1.4994477e-11
0.019193911
-1.0377749e-06
0.019193911
-1.6780029e-06
0.016674314
-1.7244528e-06
0.012687819
-1.3163465e-06
0.0085783369
-8.1809156e-07
0.0052424284
-4.4192432e-07
0.0029438006
-2.1415975e-07
0.0015382067
-9.3324231e-08
0.00075248795
-3.5480199e-08
0.000343184
-1.0705089e-08
0.00014247115
-1.8492322e-09
4.9814369e-05
1.014401e-05
1.5464604e-09
1.0142399e-05
9.2798634e-09
4.9806578e-05
3.109369e-08
0.0001424493
8.2211535e-08
0.00034313289
1.8923742e-07
0.00075238095
3.9178258e-07
0.0015380042
7.2922554e-07
0.0029434632
1.1851422e-06
0.0052419725
1.5781779e-06
0.0085779438
1.5623434e-06
0.012687834
9.7670666e-07
0.0166749
1.8036371e-11
0.019194888
-9.7666875e-07
0.019194888
-1.5623008e-06
0.0166749
-1.5781312e-06
0.012687834
-1.1850978e-06
0.0085779438
-7.292011e-07
0.0052419725
-3.9181217e-07
0.0029434632
-1.8936748e-07
0.0015380042
-8.2454939e-08
0.00075238096
-3.1402435e-08
0.0003431329
-9.5338575e-09
0.0001424493
-1.6852752e-09
4.9806581e-05
1.01424e-05
1.3842279e-09
1.0140967e-05
8.2720002e-09
4.9799647e-05
2.7694782e-08
0.00014242985
7.3244978e-08
0.00034308735
1.6878868e-07
0.00075228543
3.5021762e-07
0.0015378228
6.5455487e-07
0.0029431589
1.0720497e-06
0.005241555
1.4464395e-06
0.0085775694
1.4548889e-06
0.012687826
9.1882631e-07
0.016675436
2.3094473e-11
0.019195807
-9.187795e-07
0.019195807
-1.4548407e-06
0.016675436
-1.4463917e-06
0.012687826
-1.0720102e-06
0.0085775694
-6.5453669e-07
0.005241555
-3.5024073e-07
0.0029431589
-1.6887221e-07
0.0015378228
-7.3384431e-08
0.00075228544
-2.7857615e-08
0.00034308736
-8.4002834e-09
0.00014242985
-1.4524954e-09
4.9799649e-05
1.0140968e-05
1.2700252e-09
1.0139682e-05
7.4749184e-09
4.9793427e-05
2.4924171e-08
0.00014241238
6.5838526e-08
0.00034304643
1.5178248e-07
0.00075219948
3.15434e-07
0.0015376591
5.9145789e-07
0.0029428828
9.7476959e-07
0.0052411717
1.3297113e-06
0.0085772144
1.3568084e-06
0.012687799
8.6527962e-07
0.016675928
3.1331721e-11
0.019196672
-8.6521836e-07
0.019196672
-1.3567516e-06
0.016675928
-1.3296642e-06
0.012687799
-9.7474516e-07
0.0085772145
-5.9146654e-07
0.0052411717
-3.1547863e-07
0.0029428828
-1.5185503e-07
0.0015376591
-6.5922244e-08
0.00075219949
-2.5002097e-08
0.00034304643
-7.5294945e-09
0.00014241239
-1.2974515e-09
4.9793428e-05
1.0139682e-05
1.1861535e-09
1.013852e-05
6.8285008e-09
4.9787803e-05
2.2626028e-08
0.00014239659
5.9635136e-08
0.00034300939
1.3746453e-07
0.00075212161
2.8600441e-07
0.0015375105
5.3766691e-07
0.0029426312
8.9068116e-07
0.0052408187
1.2264006e-06
0.0085768787
1.2675133e-06
0.012687758
8.1596049e-07
0.016676379
3.9161971e-11
0.019197488
-8.1588478e-07
0.019197488
-1.2674459e-06
0.016676379
-1.2263521e-06
0.012687758
-8.9066368e-07
0.0085768788
-5.3768625e-07
0.0052408187
-2.8605068e-07
0.0029426312
-1.3751818e-07
0.0015375106
-5.9680649e-08
0.00075212162
-2.2659038e-08
0.0003430094
-6.8482779e-09
0.00014239659
-1.1957941e-09
4.9787806e-05
1.0138521e-05
1.1143197e-09
1.0137464e-05
6.2768429e-09
4.9782688e-05
2.0665394e-08
0.00014238222
5.4338295e-08
0.00034297568
1.2521557e-07
0.00075205067
2.6074261e-07
0.001537375
4.9120975e-07
0.0029424007
8.1719605e-07
0.0052404927
1.1341812e-06
0.0085765617
1.1858131e-06
0.012687706
7.7025176e-07
0.016676795
4.3772087e-11
0.019198258
-7.7016809e-07
0.019198258
-1.1857422e-06
0.016676795
-1.1341362e-06
0.012687706
-8.1718809e-07
0.0085765618
-4.9123386e-07
0.0052404927
-2.6076574e-07
0.0029424007
-1.2518601e-07
0.001537375
-5.4227538e-08
0.00075205067
-2.0496034e-08
0.00034297568
-6.1280195e-09
0.00014238222
-1.0309558e-09
4.9782689e-05
1.0137465e-05
1.0421236e-09
1.0136499e-05
5.7816426e-09
4.9778014e-05
1.8948733e-08
0.00014236908
4.9740522e-08
0.00034294485
1.1459904e-07
0.00075198574
2.3880555e-07
0.0015372507
4.5067098e-07
0.0029421887
7.5245375e-07
0.0052401909
1.0514917e-06
0.0085762627
1.1108464e-06
0.012687647
7.2772078e-07
0.016677178
4.5418249e-11
0.019198986
-7.276338e-07
0.019198986
-1.1107743e-06
0.016677178
-1.0514499e-06
0.012687647
-7.524547e-07
0.0085762627
-4.507035e-07
0.0052401909
-2.3882314e-07
0.0029421888
-1.1453441e-07
0.0015372507
-4.9562143e-08
0.00075198574
-1.8694504e-08
0.00034294484
-5.563715e-09
0.00014236908
-9.212971e-10
4.9778013e-05
1.0136499e-05
9.6413359e-10
1.0135614e-05
5.3220802e-09
4.9773722e-05
1.7417593e-08
0.00014235702
4.5700893e-08
0.00034291652
1.0530743e-07
0.00075192606
2.1958974e-07
0.0015371363
4.1502263e-07
0.0029419933
6.950637e-07
0.0052399108
9.7708021e-07
0.0085759807
1.0418728e-06
0.012687582
6.8802987e-07
0.016677532
4.2160584e-11
0.019199674
-6.8794793e-07
0.019199674
-1.0418026e-06
0.016677532
-9.7703916e-07
0.012687582
-6.9506127e-07
0.0085759807
-4.1504536e-07
0.0052399108
-2.1959546e-07
0.0029419933
-1.0524328e-07
0.0015371363
-4.5547428e-08
0.00075192606
-1.7209285e-08
0.00034291652
-5.1469551e-09
0.00014235702
-8.6808223e-10
4.9773722e-05
1.0135613e-05
8.7958517e-10
1.0134798e-05
4.8883499e-09
4.9769768e-05
1.6034251e-08
0.0001423459
4.2115636e-08
0.00034289042
9.7103464e-08
0.00075187102
2.0262115e-07
0.0015370307
3.8344412e-07
0.0029418124
6.4387607e-07
0.0052396503
9.0982345e-07
0.0085757147
9.782274e-07
0.012687513
6.5087548e-07
0.016677859
3.3984805e-11
0.019200324
-6.508081e-07
0.019200324
-9.781672e-07
0.016677859
-9.097858e-07
0.012687513
-6.4386678e-07
0.0085757147
-3.8344659e-07
0.0052396504
-2.0259798e-07
0.0029418124
-9.7009899e-08
0.0015370308
-4.1935985e-08
0.00075187102
-1.5802354e-08
0.00034289042
-4.6959387e-09
0.0001423459
-7.7402311e-10
4.9769767e-05
1.0134797e-05
7.9039161e-10
1.0134043e-05
4.4773226e-09
4.9766114e-05
1.4774477e-08
0.00014233562
3.890699e-08
0.00034286628
8.9801156e-08
0.0007518201
1.875223e-07
0.001536933
3.5527414e-07
0.0029416446
5.9794492e-07
0.0052394076
8.487636e-07
0.0085754638
9.1934661e-07
0.012687443
6.160086e-07
0.016678162
2.3835224e-11
0.01920094
-6.159599e-07
0.01920094
-9.1930142e-07
0.016678162
-8.4873257e-07
0.012687443
-5.9793104e-07
0.0085754639
-3.5526251e-07
0.0052394076
-1.8748654e-07
0.0029416446
-8.9711108e-08
0.001536933
-3.8753327e-08
0.0007518201
-1.4583787e-08
0.00034286627
-4.3212131e-09
0.00014233562
-7.049894e-10
4.9766112e-05
1.0134043e-05
7.0087107e-10
1.0133344e-05
4.0917053e-09
4.9762726e-05
1.3625473e-08
0.0001423261
3.6018598e-08
0.00034284389
8.3256264e-08
0.00075177286
1.7399465e-07
0.0015368422
3.2998388e-07
0.0029414886
5.5650035e-07
0.005239181
7.9309344e-07
0.0085752272
8.6473563e-07
0.012687371
5.8321289e-07
0.016678444
1.2843928e-11
0.019201524
-5.8318443e-07
0.019201524
-8.6470491e-07
0.016678444
-7.9306639e-07
0.012687371
-5.5647575e-07
0.0085752272
-3.2995146e-07
0.0052391811
-1.739473e-07
0.0029414886
-8.3193678e-08
0.0015368422
-3.5947329e-08
0.00075177286
-1.3556241e-08
0.00034284389
-4.0413461e-09
0.00014232609
-6.7488821e-10
4.9762724e-05
1.0133344e-05
6.1760925e-10
1.0132695e-05
3.7395331e-09
4.9759578e-05
1.2584417e-08
0.00014231724
3.3411799e-08
0.00034282309
7.7357687e-08
0.00075172895
1.6180129e-07
0.0015367578
3.0714882e-07
0.0029413432
5.189161e-07
0.0052389692
7.4214293e-07
0.0085750039
8.13976e-07
0.012687299
5.5231853e-07
0.016678705
2.1966744e-12
0.019202076
-5.5231053e-07
0.019202076
-8.1396067e-07
0.016678705
-7.4212115e-07
0.012687299
-5.1888387e-07
0.0085750039
-3.0710245e-07
0.0052389693
-1.61752e-07
0.0029413432
-7.7325889e-08
0.0015367578
-3.3408025e-08
0.00075172895
-1.2601156e-08
0.00034282309
-3.7589559e-09
0.00014231724
-6.2878494e-10
4.9759577e-05
1.0132694e-05
5.4725446e-10
1.013209e-05
3.4299071e-09
4.9756647e-05
1.1652667e-08
0.000142309
3.1059217e-08
0.00034280371
7.2019202e-08
0.00075168804
1.5075331e-07
0.0015366791
2.864257e-07
0.0029412075
4.846793e-07
0.0052387709
6.9535219e-07
0.0085747932
7.6670087e-07
0.012687228
5.2316937e-07
0.016678949
-5.6877807e-12
0.019202599
-5.2317726e-07
0.019202599
-7.6669969e-07
0.016678949
-6.9533598e-07
0.012687228
-4.8464122e-07
0.0085747932
-2.8636949e-07
0.005238771
-1.507052e-07
0.0029412075
-7.2016898e-08
0.0015366791
-3.111994e-08
0.00075168805
-1.1756783e-08
0.00034280372
-3.523324e-09
0.000142309
-5.9962236e-10
4.9756647e-05
1.013209e-05
4.9423577e-10
1.0131526e-05
3.1685273e-09
4.9753914e-05
1.0829599e-08
0.00014230131
2.8938009e-08
0.00034278564
6.7171633e-08
0.00075164987
1.4069859e-07
0.0015366056
2.6753483e-07
0.0029410807
4.5336506e-07
0.0052385851
6.5224565e-07
0.0085745942
7.2259658e-07
0.012687157
4.956446e-07
0.016679176
-1.0626692e-11
0.019203095
-4.95663e-07
0.019203095
-7.226053e-07
0.016679176
-6.5223507e-07
0.012687157
-4.5332746e-07
0.0085745943
-2.6747787e-07
0.0052385851
-1.4065393e-07
0.0029410807
-6.7182205e-08
0.0015366056
-2.9022605e-08
0.00075164987
-1.0964437e-08
0.00034278564
-3.2875132e-09
0.00014230131
-5.6082363e-10
4.9753914e-05
1.0131526e-05
4.6057756e-10
1.0130999e-05
2.9571414e-09
4.9751361e-05
1.0111311e-08
0.00014229413
2.7027245e-08
0.00034276875
6.2758031e-08
0.00075161418
1.3151382e-07
0.0015365369
2.5024821e-07
0.002940962
4.2462337e-07
0.0052384107
6.124251e-07
0.0085744064
6.8138398e-07
0.012687088
4.6962226e-07
0.016679387
-1.2511009e-11
0.019203564
-4.6964528e-07
0.019203564
-6.813983e-07
0.016679387
-6.1242e-07
0.012687088
-4.2459277e-07
0.0085744064
-2.502052e-07
0.0052384107
-1.3149353e-07
0.002940962
-6.2803245e-08
0.0015365369
-2.7152207e-08
0.00075161419
-1.0284941e-08
0.00034276875
-3.103857e-09
0.00014229413
-5.4108695e-10
4.9751361e-05
1.0131e-05
4.460177e-10
1.0130507e-05
2.7936548e-09
4.9748972e-05
9.4903806e-09
0.00014228741
2.5306531e-08
0.00034275295
5.8729938e-08
0.00075158079
1.2309664e-07
0.0015364726
2.3437585e-07
0.0029408507
3.9815857e-07
0.0052382469
5.7554563e-07
0.008574229
6.4282102e-07
0.012687021
4.4501108e-07
0.016679585
-1.2156025e-11
0.019204009
-4.4503415e-07
0.019204009
-6.4283674e-07
0.016679585
-5.7554261e-07
0.012687021
-3.9813192e-07
0.008574229
-2.3434016e-07
0.0052382469
-1.230858e-07
0.0029408507
-5.8785916e-08
0.0015364726
-2.5445424e-08
0.00075158079
-9.6825752e-09
0.00034275295
-2.9568525e-09
0.00014228741
-5.3656955e-10
4.9748973e-05
1.0130507e-05
4.4689842e-10
1.0130045e-05
2.6700666e-09
4.9746735e-05
8.9532498e-09
0.00014228111
2.375363e-08
0.00034273814
5.5045206e-08
0.00075154949
1.1536288e-07
0.0015364122
2.1976162e-07
0.0029407463
3.7372548e-07
0.0052380929
5.4131777e-07
0.0085740614
6.0669348e-07
0.012686956
4.2171564e-07
0.01667977
-9.646014e-12
0.019204431
-4.217354e-07
0.019204431
-6.0671023e-07
0.01667977
-5.4132156e-07
0.012686956
-3.7371227e-07
0.0085740614
-2.1974141e-07
0.0052380929
-1.153545e-07
0.0029407463
-5.5067522e-08
0.0015364122
-2.3811571e-08
0.00075154949
-9.032683e-09
0.00034273814
-2.7369953e-09
0.00014228111
-4.8396894e-10
4.9746736e-05
1.0130046e-05
4.5528701e-10
1.0129613e-05
2.5706031e-09
4.9744637e-05
8.477274e-09
0.00014227521
2.2340509e-08
0.00034272425
5.1662685e-08
0.00075152013
1.0823896e-07
0.0015363556
2.0627166e-07
0.0029406482
3.511121e-07
0.0052379481
5.0948468e-07
0.008573903
5.728051e-07
0.012686892
3.9965683e-07
0.016679943
-5.6138144e-12
0.019204831
-3.9966997e-07
0.019204831
-5.7281996e-07
0.016679943
-5.0949448e-07
0.012686892
-3.5111467e-07
0.008573903
-2.0627352e-07
0.0052379481
-1.0824565e-07
0.0029406482
-5.1674622e-08
0.0015363556
-2.23553e-08
0.00075152013
-8.4925956e-09
0.00034272425
-2.5822326e-09
0.00014227521
-4.6175711e-10
4.9744638e-05
1.0129613e-05
4.6232643e-10
1.0129207e-05
2.4778383e-09
4.9742668e-05
8.0379551e-09
0.00014226966
2.1038524e-08
0.00034271121
4.8544087e-08
0.00075149256
1.0166123e-07
0.0015363025
1.9379342e-07
0.0029405561
3.3014104e-07
0.0052378117
4.7983107e-07
0.0085737533
5.4099539e-07
0.012686831
3.7876721e-07
0.016680105
-1.9304008e-12
0.019205209
-3.7877397e-07
0.019205209
-5.4100714e-07
0.016680105
-4.7984333e-07
0.012686831
-3.3015163e-07
0.0085737533
-1.9380378e-07
0.0052378117
-1.0166713e-07
0.0029405561
-4.8536374e-08
0.0015363025
-2.1014356e-08
0.00075149256
-8.0050983e-09
0.00034271122
-2.4506799e-09
0.00014226967
-4.4814658e-10
4.9742669e-05
1.0129207e-05
4.6097813e-10
1.0128825e-05
2.377707e-09
4.9740818e-05
7.6148708e-09
0.00014226446
1.9822447e-08
0.00034269896
4.5654218e-08
0.00075146665
9.5571279e-08
0.0015362525
1.8222557e-07
0.0029404694
3.1065402e-07
0.0052376833
4.5216125e-07
0.0085736118
5.110938e-07
0.012686772
3.5896194e-07
0.016680258
6.2125377e-13
0.019205568
-3.5896501e-07
0.019205568
-5.1110602e-07
0.016680258
-4.5218023e-07
0.012686772
-3.1067539e-07
0.0085736118
-1.8224122e-07
0.0052376832
-9.5558815e-08
0.0029404694
-4.5579608e-08
0.0015362525
-1.9673547e-08
0.00075146665
-7.4216924e-09
0.00034269896
-2.2175298e-09
0.00014226446
-3.7364169e-10
4.9740818e-05
1.0128825e-05
4.4768195e-10
1.0128467e-05
2.262763e-09
4.9739079e-05
7.1961236e-09
0.00014225956
1.8674957e-08
0.00034268744
4.2964864e-08
0.00075144228
8.9919106e-08
0.0015362054
1.7148088e-07
0.0029403878
2.9251554e-07
0.0052375622
4.2631006e-07
0.008573478
4.8299141e-07
0.012686716
3.4021512e-07
0.0166804
2.2778777e-12
0.019205908
-3.4021577e-07
0.019205908
-4.8300483e-07
0.0166804
-4.2633629e-07
0.012686716
-2.9254946e-07
0.008573478
-1.7150787e-07
0.0052375622
-8.9904066e-08
0.0029403877
-4.2858677e-08
0.0015362054
-1.846159e-08
0.00075144227
-6.919614e-09
0.00034268744
-2.0337287e-09
0.00014225956
-3.225852e-10
4.9739077e-05
1.0128466e-05
4.2155026e-10
1.0128129e-05
2.1305699e-09
4.9737442e-05
6.7761741e-09
0.00014225495
1.7584503e-08
0.0003426766
4.0452768e-08
0.00075141934
8.4660374e-08
0.0015361611
1.6148112e-07
0.0029403109
2.7560413e-07
0.005237448
4.0212427e-07
0.0085733514
4.5652273e-07
0.012686661
3.2241372e-07
0.016680534
1.9447595e-12
0.019206231
-3.2241479e-07
0.019206231
-4.5653603e-07
0.016680534
-4.0215145e-07
0.012686661
-2.7563962e-07
0.0085733514
-1.6150813e-07
0.005237448
-8.4646444e-08
0.0029403109
-4.0357793e-08
0.0015361611
-1.7398566e-08
0.00075141934
-6.5384098e-09
0.0003426766
-1.934632e-09
0.00014225495
-3.1455518e-10
4.9737441e-05
1.0128129e-05
3.8431657e-10
1.0127811e-05
1.9836611e-09
4.97359e-05
6.3559518e-09
0.00014225061
1.6545696e-08
0.00034266639
3.810027e-08
0.00075139774
7.9757177e-08
0.0015361194
1.5215802e-07
0.0029402384
2.598137e-07
0.0052373403
3.7947613e-07
0.0085732317
4.3163535e-07
0.012686609
3.0558996e-07
0.01668066
-1.0594374e-12
0.019206536
-3.0559647e-07
0.019206536
-4.3165285e-07
0.01668066
-3.7950571e-07
0.012686609
-2.5984453e-07
0.0085732317
-1.5216629e-07
0.0052373403
-7.9708327e-08
0.0029402384
-3.795584e-08
0.0015361194
-1.6301077e-08
0.00075139773
-6.0593412e-09
0.00034266638
-1.7442274e-09
0.00014225061
-2.5482993e-10
4.9735898e-05
1.0127811e-05
3.3932985e-10
1.0127512e-05
1.8275817e-09
4.9734448e-05
5.9402391e-09
0.00014224652
1.5556816e-08
0.00034265676
3.5893404e-08
0.00075137738
7.5176703e-08
0.0015360801
1.4345138e-07
0.0029401701
2.4504908e-07
0.0052372387
3.5823828e-07
0.0085731185
4.0814534e-07
0.012686559
2.8958013e-07
0.016680779
-5.0358218e-12
0.019206826
-2.895937e-07
0.019206826
-4.0816825e-07
0.016680779
-3.582718e-07
0.012686559
-2.450805e-07
0.0085731185
-1.4345446e-07
0.0052372387
-7.5117916e-08
0.0029401701
-3.5735542e-08
0.0015360801
-1.5294703e-08
0.00075137736
-5.6225641e-09
0.00034265675
-1.5705741e-09
0.00014224652
-1.9963247e-10
4.9734443e-05
1.0127511e-05
2.9064975e-10
1.012723e-05
1.6693487e-09
4.9733078e-05
5.5360964e-09
0.00014224267
1.4619035e-08
0.00034264769
3.3821696e-08
0.00075135818
7.0890535e-08
0.001536043
1.353082e-07
0.0029401057
2.312291e-07
0.0052371427
3.3831994e-07
0.0085730114
3.8607078e-07
0.012686511
2.7449442e-07
0.016680891
-9.5983664e-12
0.0192071
-2.7451503e-07
0.0192071
-3.8609541e-07
0.016680891
-3.3834708e-07
0.012686511
-2.312443e-07
0.0085730113
-1.3529369e-07
0.0052371427
-7.0839747e-08
0.0029401057
-3.3739958e-08
0.001536043
-1.4521774e-08
0.00075135817
-5.4422024e-09
0.00034264768
-1.6018405e-09
0.00014224266
-2.5601662e-10
4.9733075e-05
1.0127229e-05
2.4194334e-10
1.0126963e-05
1.515248e-09
4.9731787e-05
5.1497294e-09
0.00014223903
1.3733165e-08
0.00034263913
3.1875703e-08
0.00075134007
6.6873666e-08
0.0015360081
1.2768015e-07
0.0029400448
2.1827206e-07
0.0052370521
3.1959644e-07
0.00857291
3.6517534e-07
0.012686466
2.6008775e-07
0.016680996
-1.6196709e-11
0.019207361
-2.6011979e-07
0.019207361
-3.6520449e-07
0.016680996
-3.1961438e-07
0.012686466
-2.1825902e-07
0.00857291
-1.2762441e-07
0.0052370521
-6.6794248e-08
0.0029400448
-3.1814482e-08
0.001536008
-1.3721605e-08
0.00075134006
-5.1850181e-09
0.00034263913
-1.5601337e-09
0.00014223903
-2.7021672e-10
4.9731784e-05
1.0126963e-05
1.9524488e-10
1.0126712e-05
1.3687894e-09
4.9730568e-05
4.7846758e-09
0.0001422356
1.2899544e-08
0.00034263106
3.0048617e-08
0.00075132298
6.310682e-08
0.001535975
1.2053094e-07
0.0029399874
2.0612752e-07
0.0052369665
3.0203233e-07
0.008572814
3.4558288e-07
0.012686422
2.4657969e-07
0.016681095
-2.2088137e-11
0.019207607
-2.4662299e-07
0.019207607
-3.4561999e-07
0.016681095
-3.0204752e-07
0.012686422
-2.060982e-07
0.008572814
-1.2045456e-07
0.0052369664
-6.3019269e-08
0.0029399874
-3.0004921e-08
0.001535975
-1.2929657e-08
0.00075132297
-4.871509e-09
0.00034263105
-1.4546165e-09
0.00014223559
-2.4502338e-10
4.9730564e-05
1.0126711e-05
1.5347225e-10
1.0126475e-05
1.2347238e-09
4.9729417e-05
4.444944e-09
0.00014223236
1.2116837e-08
0.00034262343
2.8329996e-08
0.00075130684
5.9566387e-08
0.0015359439
1.1381456e-07
0.0029399332
1.947073e-07
0.0052368855
2.8546655e-07
0.0085727232
3.2695169e-07
0.012686381
2.3360563e-07
0.016681188
-2.7661382e-11
0.019207841
-2.3365858e-07
0.019207841
-3.2699231e-07
0.016681188
-2.8547237e-07
0.01268638
-1.9465811e-07
0.0085727232
-1.1372627e-07
0.0052368855
-5.9504163e-08
0.0029399331
-2.838509e-08
0.0015359438
-1.2332455e-08
0.00075130683
-4.7713407e-09
0.00034262343
-1.5199163e-09
0.00014223236
-3.1333543e-10
4.9729415e-05
1.0126474e-05
1.2031137e-10
1.012625e-05
1.12005e-09
4.972833e-05
4.1396044e-09
0.0001422293
1.1392917e-08
0.00034261623
2.6723495e-08
0.0007512916
5.6248669e-08
0.0015359144
1.0752207e-07
0.0029398819
1.8401625e-07
0.005236809
2.6996873e-07
0.0085726373
3.0957902e-07
0.012686341
2.215423e-07
0.016681276
-3.4545719e-11
0.019208062
-2.2160794e-07
0.019208062
-3.0962518e-07
0.016681276
-2.6996643e-07
0.012686341
-1.8394891e-07
0.0085726372
-1.0742134e-07
0.005236809
-5.6201468e-08
0.0029398819
-2.6843618e-08
0.0015359144
-1.1726994e-08
0.00075129159
-4.6124929e-09
0.00034261623
-1.5240975e-09
0.0001422293
-3.4467986e-10
4.972833e-05
1.012625e-05
1.007698e-10
1.0126039e-05
1.0330282e-09
4.9727302e-05
3.8759777e-09
0.00014222641
1.072695e-08
0.00034260943
2.5215447e-08
0.0007512772
5.3123673e-08
0.0015358866
1.0159384e-07
0.0029398335
1.7392536e-07
0.0052367367
2.5527734e-07
0.0085725559
2.9293873e-07
0.012686303
2.0985014e-07
0.016681359
-4.1866343e-11
0.019208272
-2.0992978e-07
0.019208272
-2.9299453e-07
0.016681359
-2.5527784e-07
0.012686303
-1.7386266e-07
0.0085725558
-1.0151086e-07
0.0052367366
-5.3106147e-08
0.0029398334
-2.5361128e-08
0.0015358865
-1.1065193e-08
0.00075127718
-4.3289208e-09
0.00034260942
-1.411862e-09
0.00014222641
-3.0884507e-10
4.9727303e-05
1.0126039e-05
9.9423802e-11
1.0125838e-05
9.8372847e-10
4.972633e-05
3.6708012e-09
0.00014222367
1.0141952e-08
0.00034260299
2.3834483e-08
0.00075126357
5.0224769e-08
0.0015358602
9.6081422e-08
0.0029397877
1.6455683e-07
0.0052366682
2.4167469e-07
0.0085724788
2.7763152e-07
0.012686267
1.9915861e-07
0.016681437
-4.8579809e-11
0.019208471
-1.992496e-07
0.019208471
-2.7769432e-07
0.016681437
-2.4168192e-07
0.012686267
-1.6451485e-07
0.0085724786
-9.6042047e-08
0.0052366681
-5.0263319e-08
0.0029397876
-2.402799e-08
0.0015358602
-1.0506858e-08
0.00075126355
-4.1316377e-09
0.00034260298
-1.3617164e-09
0.00014222367
-3.0577398e-10
4.9726332e-05
1.0125839e-05
1.1712154e-10
1.0125649e-05
9.7123902e-10
4.9725412e-05
3.5161363e-09
0.00014222109
9.6156084e-09
0.0003425969
2.2538203e-08
0.00075125069
4.7484445e-08
0.0015358353
9.0865805e-08
0.0029397443
1.5565992e-07
0.0052366035
2.2867369e-07
0.0085724057
2.6282412e-07
0.012686233
1.8867112e-07
0.016681512
-5.7827105e-11
0.01920866
-1.887764e-07
0.01920866
-2.6289379e-07
0.016681512
-2.2869173e-07
0.012686233
-1.5564894e-07
0.0085724056
-9.0877108e-08
0.0052366033
-4.7568665e-08
0.0029397442
-2.2736872e-08
0.0015358353
-9.927708e-09
0.00075125066
-3.8823826e-09
0.0003425969
-1.2630151e-09
0.00014222109
-2.745094e-10
4.9725414e-05
1.0125649e-05
1.50127e-10
1.0125469e-05
9.941729e-10
4.9724539e-05
3.4256652e-09
0.00014221863
9.1942747e-09
0.00034259112
2.1416443e-08
0.00075123846
4.5038796e-08
0.0015358117
8.6160357e-08
0.0029397032
1.4763721e-07
0.005236542
2.1700817e-07
0.0085723364
2.4966892e-07
0.0126862
1.794405e-07
0.016681582
-6.8008291e-11
0.019208839
-1.7956148e-07
0.019208839
-2.4974798e-07
0.016681582
-2.170452e-07
0.0126862
-1.4767043e-07
0.0085723362
-8.6232569e-08
0.0052365419
-4.5161939e-08
0.0029397031
-2.1576574e-08
0.0015358117
-9.3637934e-09
0.00075123843
-3.5772321e-09
0.00034259111
-1.0984633e-09
0.00014221863
-2.0217078e-10
4.972454e-05
1.0125469e-05
1.8389087e-10
1.01253e-05
1.0120662e-09
4.9723721e-05
3.3132409e-09
0.00014221632
8.7241126e-09
0.00034258568
2.0229482e-08
0.00075122691
4.2562983e-08
0.0015357894
8.1534079e-08
0.0029396642
1.3983594e-07
0.0052364837
2.0565672e-07
0.0085722706
2.3670933e-07
0.012686169
1.7025038e-07
0.016681648
-7.8112849e-11
0.01920901
-1.7038674e-07
0.01920901
-2.3679993e-07
0.016681648
-2.0571624e-07
0.012686169
-1.3991317e-07
0.0085722704
-8.165807e-08
0.0052364835
-4.2707374e-08
0.0029396641
-2.0335257e-08
0.0015357893
-8.7511809e-09
0.00075122687
-3.271059e-09
0.00034258566
-9.541585e-10
0.00014221632
-1.4729115e-10
4.972372e-05
1.01253e-05
2.1502804e-10
1.0125136e-05
1.0510018e-09
4.9722925e-05
3.2974461e-09
0.00014221409
8.4988596e-09
0.00034258043