/*--------------------------------*- C++ -*----------------------------------*\
| =========                 |                                                 |
| \\      /  F ield         | OpenFOAM: The Open Source CFD Toolbox           |
|  \\    /   O peration     | Version:  2406                                  |
|   \\  /    A nd           | Website:  www.openfoam.com                      |
|    \\/     M anipulation  |                                                 |
\*---------------------------------------------------------------------------*/
FoamFile
{
    version     2.0;
    format      ascii;
    arch        "LSB;label=32;scalar=64";
    class       volVectorField;
    location    "8";
    object      U;
}
// * * * * * * * * * * * * * * * * * * * * * * * * * * * * * * * * * * * * * //

dimensions      [0 1 -1 0 0 0 0];

internalField   nonuniform List<vector> 
1176
(
(0.019493789 7.0748479e-07 0)
(0.066677318 8.1681504e-06 0)
(0.13357994 3.9500956e-05 0)
(0.227247 0.00010873399 0)
(0.35591522 0.00021175993 0)
(0.52772023 0.00030396423 0)
(0.74780387 0.00031818253 0)
(1.0136216 0.00024904806 0)
(1.3093323 0.00016667134 0)
(1.6017081 0.00011264753 0)
(1.8421723 7.0214487e-05 0)
(1.9793239 2.3940923e-05 0)
(1.9793239 -2.3940921e-05 0)
(1.8421723 -7.0215298e-05 0)
(1.6017081 -0.00011265043 0)
(1.3093323 -0.00016667775 0)
(1.0136216 -0.00024905917 0)
(0.7478039 -0.00031819905 0)
(0.52772027 -0.00030398376 0)
(0.35591525 -0.00021177458 0)
(0.22724703 -0.00010873694 0)
(0.13357995 -3.9494067e-05 0)
(0.066677324 -8.1608198e-06 0)
(0.019493791 -7.0519182e-07 0)
(0.020187017 -3.7427384e-06 0)
(0.06881353 -2.4641944e-05 0)
(0.13732107 -9.6553622e-05 0)
(0.2324739 -0.00024839937 0)
(0.36204616 -0.00047269061 0)
(0.53373556 -0.00067421223 0)
(0.75267407 -0.00069486827 0)
(1.0170176 -0.00049687205 0)
(1.3116385 -0.00023345787 0)
(1.6034438 -4.98235e-05 0)
(1.8436588 1.9765543e-05 0)
(1.9807026 1.3428767e-05 0)
(1.9807026 -1.3426053e-05 0)
(1.8436588 -1.9762014e-05 0)
(1.6034438 4.9827956e-05 0)
(1.3116385 0.0002334622 0)
(1.0170176 0.00049687428 0)
(0.75267406 0.00069486819 0)
(0.53373555 0.00067421386 0)
(0.36204616 0.00047269719 0)
(0.2324739 0.00024840884 0)
(0.13732107 9.6561849e-05 0)
(0.068813531 2.4646582e-05 0)
(0.020187017 3.7437122e-06 0)
(0.020018441 2.0906678e-06 0)
(0.068327402 1.2716026e-05 0)
(0.13655404 4.6869814e-05 0)
(0.23159543 0.00011388995 0)
(0.36138707 0.00019768745 0)
(0.53366967 0.00023902985 0)
(0.75344342 0.0002055973 0)
(1.0184881 0.00011361136 0)
(1.3134639 7.4313776e-05 0)
(1.6053464 7.9533028e-05 0)
(1.8455118 7.0516887e-05 0)
(1.9825245 2.782675e-05 0)
(1.9825245 -2.7822998e-05 0)
(1.8455118 -7.0511795e-05 0)
(1.6053464 -7.9526531e-05 0)
(1.3134639 -7.4307994e-05 0)
(1.0184881 -0.00011360941 0)
(0.75344343 -0.00020560237 0)
(0.53366967 -0.00023903957 0)
(0.36138707 -0.00019770278 0)
(0.23159543 -0.0001139082 0)
(0.13655403 -4.6886488e-05 0)
(0.068327398 -1.2726221e-05 0)
(0.020018439 -2.0931066e-06 0)
(0.019966546 6.9950653e-07 0)
(0.068159227 4.6819102e-06 0)
(0.1362402 1.9347278e-05 0)
(0.23111939 5.6447721e-05 0)
(0.36078091 0.0001344392 0)
(0.53306291 0.00025828963 0)
(0.75295635 0.00035344588 0)
(1.0181104 0.00036911877 0)
(1.313184 0.00030758765 0)
(1.6051633 0.00022777205 0)
(1.8453995 0.00014555948 0)
(1.9824491 4.9998124e-05 0)
(1.9824491 -4.9995089e-05 0)
(1.8453995 -0.00014555566 0)
(1.6051633 -0.00022776749 0)
(1.313184 -0.00030758445 0)
(1.0181104 -0.00036911841 0)
(0.75295635 -0.00035344883 0)
(0.53306291 -0.00025829897 0)
(0.36078091 -0.00013445312 0)
(0.23111939 -5.6463327e-05 0)
(0.1362402 -1.9360731e-05 0)
(0.068159229 -4.6898928e-06 0)
(0.019966546 -7.0138007e-07 0)
(0.019942202 2.8987163e-07 0)
(0.068078697 1.9835101e-06 0)
(0.13608627 8.2301149e-06 0)
(0.23087698 2.3692731e-05 0)
(0.36044742 5.6875836e-05 0)
(0.53266446 0.00012306447 0)
(0.75256875 0.00022681497 0)
(1.0178079 0.00032271994 0)
(1.3129044 0.00034572323 0)
(1.604912 0.00030729892 0)
(1.8452028 0.0002109529 0)
(1.9822897 7.4615335e-05 0)
(1.9822897 -7.4612328e-05 0)
(1.8452028 -0.00021094926 0)
(1.604912 -0.0003072947 0)
(1.3129044 -0.0003457194 0)
(1.0178079 -0.00032271859 0)
(0.75256875 -0.00022681687 0)
(0.53266446 -0.00012306923 0)
(0.36044742 -5.6881921e-05 0)
(0.23087698 -2.3698954e-05 0)
(0.13608627 -8.2353973e-06 0)
(0.068078699 -1.9866877e-06 0)
(0.019942203 -2.9064257e-07 0)
(0.01993313 1.7157453e-07 0)
(0.068047749 1.1930467e-06 0)
(0.13602487 5.0633419e-06 0)
(0.23077533 1.4966292e-05 0)
(0.36029896 3.6216308e-05 0)
(0.53247918 7.6940515e-05 0)
(0.75239425 0.00014713394 0)
(1.0177221 0.00023748726 0)
(1.3129292 0.00028525409 0)
(1.6049746 0.00027441389 0)
(1.8452865 0.00019644587 0)
(1.9823834 7.11777e-05 0)
(1.9823834 -7.1174824e-05 0)
(1.8452865 -0.00019644245 0)
(1.6049746 -0.00027441038 0)
(1.3129292 -0.00028525188 0)
(1.0177221 -0.00023748877 0)
(0.75239425 -0.00014713892 0)
(0.53247918 -7.6946304e-05 0)
(0.36029896 -3.6219603e-05 0)
(0.23077534 -1.4965776e-05 0)
(0.13602488 -5.0604493e-06 0)
(0.06804775 -1.1905806e-06 0)
(0.01993313 -1.7088068e-07 0)
(0.019923398 1.5634867e-07 0)
(0.0680155 1.0719595e-06 0)
(0.13596285 4.4962163e-06 0)
(0.23067605 1.3197575e-05 0)
(0.36015771 3.1857247e-05 0)
(0.53230175 6.6955987e-05 0)
(0.75221426 0.00012411515 0)
(1.0176105 0.00019916673 0)
(1.3129358 0.00025490585 0)
(1.6050903 0.00024595009 0)
(1.8454578 0.00018127853 0)
(1.9825798 6.6549221e-05 0)
(1.9825798 -6.654621e-05 0)
(1.8454578 -0.00018127485 0)
(1.6050903 -0.0002459467 0)
(1.3129358 -0.00025490482 0)
(1.0176105 -0.00019916953 0)
(0.75221426 -0.00012412051 0)
(0.53230175 -6.6960374e-05 0)
(0.36015771 -3.1857352e-05 0)
(0.23067605 -1.3193181e-05 0)
(0.13596285 -4.4900433e-06 0)
(0.068015502 -1.0676097e-06 0)
(0.019923399 -1.5523858e-07 0)
(0.019915695 1.2836669e-07 0)
(0.067989786 8.8118128e-07 0)
(0.13591292 3.700876e-06 0)
(0.23059501 1.0906131e-05 0)
(0.36003985 2.661565e-05 0)
(0.5321475 5.7236431e-05 0)
(0.75204129 0.00010910753 0)
(1.0174722 0.00017936245 0)
(1.3128926 0.00023802167 0)
(1.6051413 0.00023746571 0)
(1.8455876 0.00017750627 0)
(1.9827513 6.5540063e-05 0)
(1.9827513 -6.5537125e-05 0)
(1.8455876 -0.0001775026 0)
(1.6051413 -0.00023746246 0)
(1.3128926 -0.00023802122 0)
(1.0174722 -0.00017936542 0)
(0.7520413 -0.00010911142 0)
(0.5321475 -5.7236694e-05 0)
(0.36003985 -2.6608466e-05 0)
(0.23059501 -1.0892305e-05 0)
(0.13591292 -3.6855816e-06 0)
(0.067989786 -8.7107899e-07 0)
(0.019915695 -1.2583649e-07 0)
(0.019909215 1.0511845e-07 0)
(0.067968135 7.2502534e-07 0)
(0.13587082 3.0550921e-06 0)
(0.23052652 9.0148014e-06 0)
(0.35993982 2.2001732e-05 0)
(0.53201538 4.7473514e-05 0)
(0.75188897 9.2012442e-05 0)
(1.0173341 0.0001561791 0)
(1.3128277 0.00021699392 0)
(1.6051595 0.00022709453 0)
(1.8456699 0.00017232578 0)
(1.9828679 6.4148393e-05 0)
(1.9828679 -6.4145442e-05 0)
(1.8456699 -0.00017232222 0)
(1.6051595 -0.0002270914 0)
(1.3128277 -0.00021699342 0)
(1.0173341 -0.00015618144 0)
(0.75188898 -9.20157e-05 0)
(0.53201539 -4.7474489e-05 0)
(0.35993982 -2.199759e-05 0)
(0.23052652 -9.0058242e-06 0)
(0.13587082 -3.0447647e-06 0)
(0.067968133 -7.1808573e-07 0)
(0.019909214 -1.0335364e-07 0)
(0.01990397 8.5771635e-08 0)
(0.067950547 5.9554379e-07 0)
(0.13583648 2.5252239e-06 0)
(0.23047028 7.4896141e-06 0)
(0.35985689 1.8375066e-05 0)
(0.53190432 3.9835124e-05 0)
(0.75175832 7.771154e-05 0)
(1.0172122 0.00013432305 0)
(1.3127613 0.00019323174 0)
(1.6051771 0.00021058194 0)
(1.8457532 0.00016272913 0)
(1.9829862 6.1084928e-05 0)
(1.9829862 -6.108204e-05 0)
(1.8457532 -0.00016272576 0)
(1.6051771 -0.00021057868 0)
(1.3127613 -0.00019322996 0)
(1.0172122 -0.0001343228 0)
(0.75175833 -7.7712574e-05 0)
(0.53190432 -3.9837334e-05 0)
(0.3598569 -1.8378761e-05 0)
(0.23047028 -7.4945893e-06 0)
(0.13583648 -2.530259e-06 0)
(0.067950546 -5.9879639e-07 0)
(0.019903969 -8.6585684e-08 0)
(0.019899541 7.2046019e-08 0)
(0.067935681 5.0364802e-07 0)
(0.1358074 2.1485897e-06 0)
(0.23042257 6.3945636e-06 0)
(0.35978623 1.5741977e-05 0)
(0.53180886 3.4275403e-05 0)
(0.75164404 6.7204006e-05 0)
(1.017102 0.0001172296 0)
(1.3126976 0.00017262372 0)
(1.6051928 0.0001930878 0)
(1.845837 0.00015219815 0)
(1.9831061 5.7545439e-05 0)
(1.9831061 -5.7542744e-05 0)
(1.845837 -0.00015219518 0)
(1.6051928 -0.0001930849 0)
(1.3126976 -0.00017262088 0)
(1.017102 -0.00011722732 0)
(0.75164405 -6.720285e-05 0)
(0.53180886 -3.427644e-05 0)
(0.35978623 -1.5746123e-05 0)
(0.23042257 -6.4010828e-06 0)
(0.1358074 -2.1552764e-06 0)
(0.067935681 -5.0794475e-07 0)
(0.019899541 -7.3099278e-08 0)
(0.019895719 6.1716755e-08 0)
(0.067922842 4.3433919e-07 0)
(0.13578227 1.863844e-06 0)
(0.23038123 5.5634883e-06 0)
(0.3597248 1.372926e-05 0)
(0.53172531 2.9993378e-05 0)
(0.75154259 5.9110085e-05 0)
(1.017001 0.00010388793 0)
(1.3126344 0.00015540259 0)
(1.6052015 0.00017849465 0)
(1.8459124 0.00014271531 0)
(1.9832185 5.4331388e-05 0)
(1.9832185 -5.4328496e-05 0)
(1.8459124 -0.00014271216 0)
(1.6052015 -0.00017849131 0)
(1.3126344 -0.00015539917 0)
(1.017001 -0.0001038854 0)
(0.7515426 -5.9110245e-05 0)
(0.53172531 -2.9998931e-05 0)
(0.3597248 -1.3742036e-05 0)
(0.23038123 -5.5813246e-06 0)
(0.13578227 -1.8813792e-06 0)
(0.067922842 -4.454158e-07 0)
(0.019895719 -6.4415911e-08 0)
(0.019892368 5.3933356e-08 0)
(0.067911578 3.8096816e-07 0)
(0.13576019 1.6401154e-06 0)
(0.23034488 4.904256e-06 0)
(0.35967065 1.2120918e-05 0)
(0.53165131 2.653619e-05 0)
(0.75145185 5.2496016e-05 0)
(1.0169085 9.287481e-05 0)
(1.3125727 0.00014061495 0)
(1.605205 0.00016529653 0)
(1.8459797 0.00013398976 0)
(1.9833221 5.1388644e-05 0)
(1.9833221 -5.1385189e-05 0)
(1.8459797 -0.00013398593 0)
(1.605205 -0.00016529224 0)
(1.3125727 -0.0001406104 0)
(1.0169085 -9.2871328e-05 0)
(0.75145185 -5.2496229e-05 0)
(0.53165132 -2.6544371e-05 0)
(0.35967066 -1.2140701e-05 0)
(0.23034488 -4.9331249e-06 0)
(0.1357602 -1.6694695e-06 0)
(0.06791158 -3.9985109e-07 0)
(0.019892369 -5.8619127e-08 0)
(0.0198894 4.8232081e-08 0)
(0.067901597 3.399671e-07 0)
(0.13574062 1.4610103e-06 0)
(0.23031261 4.3677681e-06 0)
(0.35962249 1.0802564e-05 0)
(0.53158526 2.3684799e-05 0)
(0.75137024 4.6980179e-05 0)
(1.016824 8.35444e-05 0)
(1.3125138 0.00012773739 0)
(1.605205 0.00015293458 0)
(1.8460414 0.00012582169 0)
(1.9834195 4.8618343e-05 0)
(1.9834195 -4.8613989e-05 0)
(1.8460414 -0.00012581718 0)
(1.605205 -0.00015292979 0)
(1.3125138 -0.00012773302 0)
(1.016824 -8.3541522e-05 0)
(0.75137024 -4.6980472e-05 0)
(0.53158527 -2.3690359e-05 0)
(0.3596225 -1.081435e-05 0)
(0.23031262 -4.3834658e-06 0)
(0.13574063 -1.4760478e-06 0)
(0.0679016 -3.4938303e-07 0)
(0.019889402 -5.0524319e-08 0)
(0.019886748 4.4199672e-08 0)
(0.067892674 3.088123e-07 0)
(0.13572311 1.3170682e-06 0)
(0.23028373 3.9273399e-06 0)
(0.35957931 9.7103966e-06 0)
(0.53152587 2.1310165e-05 0)
(0.75129642 4.2355629e-05 0)
(1.0167465 7.5616963e-05 0)
(1.312458 0.00011654186 0)
(1.6052026 0.00014170036 0)
(1.8460982 0.00011827338 0)
(1.9835116 4.6034371e-05 0)
(1.9835116 -4.602848e-05 0)
(1.8460982 -0.00011826769 0)
(1.6052026 -0.00014169514 0)
(1.312458 -0.00011653833 0)
(1.0167465 -7.5616248e-05 0)
(0.75129643 -4.235842e-05 0)
(0.53152588 -2.1316258e-05 0)
(0.35957932 -9.7185014e-06 0)
(0.23028373 -3.9355357e-06 0)
(0.13572312 -1.3237463e-06 0)
(0.067892677 -3.1269257e-07 0)
(0.019886749 -4.5104836e-08 0)
(0.019884359 4.1223727e-08 0)
(0.067884633 2.8433785e-07 0)
(0.13570733 1.1989261e-06 0)
(0.23025766 3.5601239e-06 0)
(0.35954031 8.7933079e-06 0)
(0.5314721 1.9307048e-05 0)
(0.75122928 3.8435661e-05 0)
(1.0166752 6.8835303e-05 0)
(1.3124052 0.00010678246 0)
(1.6051982 0.00013155388 0)
(1.8461503 0.00011133086 0)
(1.9835984 4.3634667e-05 0)
(1.9835984 -4.3627279e-05 0)
(1.8461503 -0.00011132383 0)
(1.6051982 -0.00013154802 0)
(1.3124052 -0.00010677916 0)
(1.0166752 -6.8835574e-05 0)
(0.75122928 -3.8439261e-05 0)
(0.53147211 -1.9312317e-05 0)
(0.35954031 -8.7983275e-06 0)
(0.23025767 -3.5639342e-06 0)
(0.13570733 -1.2014955e-06 0)
(0.067884636 -2.8571525e-07 0)
(0.01988436 -4.1547077e-08 0)
(0.019882192 3.867712e-08 0)
(0.067877338 2.6344175e-07 0)
(0.13569301 1.0981595e-06 0)
(0.230234 3.2468022e-06 0)
(0.35950486 8.0096631e-06 0)
(0.53142315 1.7590914e-05 0)
(0.7511679 3.5063663e-05 0)
(1.0166095 6.296038e-05 0)
(1.3123553 9.8201632e-05 0)
(1.6051922 0.00012233474 0)
(1.8461982 0.00010491629 0)
(1.9836803 4.1394383e-05 0)
(1.9836803 -4.1386131e-05 0)
(1.8461982 -0.00010490866 0)
(1.6051922 -0.00012232888 0)
(1.3123553 -9.8199001e-05 0)
(1.0166095 -6.2961406e-05 0)
(0.75116791 -3.5066415e-05 0)
(0.53142315 -1.7590804e-05 0)
(0.35950486 -8.0020219e-06 0)
(0.230234 -3.2318388e-06 0)
(0.13569301 -1.0813219e-06 0)
(0.067877341 -2.5223531e-07 0)
(0.019882193 -3.5856409e-08 0)
(0.019880216 3.6136643e-08 0)
(0.067870685 2.440141e-07 0)
(0.13567994 1.0089729e-06 0)
(0.2302124 2.973932e-06 0)
(0.35947248 7.3303087e-06 0)
(0.53137836 1.6102804e-05 0)
(0.75111157 3.2130921e-05 0)
(1.0165487 5.7820098e-05 0)
(1.3123082 9.0600558e-05 0)
(1.6051851 0.00011395388 0)
(1.8462423 9.8958443e-05 0)
(1.9837576 3.929274e-05 0)
(1.9837576 -3.928412e-05 0)
(1.8462423 -9.895055e-05 0)
(1.6051851 -0.00011394818 0)
(1.3123082 -9.0598586e-05 0)
(1.0165487 -5.7821982e-05 0)
(0.75111158 -3.2133791e-05 0)
(0.53137836 -1.6100585e-05 0)
(0.35947248 -7.3172258e-06 0)
(0.2302124 -2.9510087e-06 0)
(0.13567994 -9.8412906e-07 0)
(0.067870685 -2.276832e-07 0)
(0.019880216 -3.204639e-08 0)
(0.019878407 3.3415828e-08 0)
(0.06786459 2.2502425e-07 0)
(0.13566796 9.2800007e-07 0)
(0.2301926 2.7327249e-06 0)
(0.35944277 6.73497e-06 0)
(0.53133722 1.4800554e-05 0)
(0.75105969 2.9559279e-05 0)
(1.0164924 5.3290159e-05 0)
(1.3122637 8.3829541e-05 0)
(1.6051772 0.00010632359 0)
(1.846283 9.3404995e-05 0)
(1.9838306 3.7315701e-05 0)
(1.9838306 -3.7307608e-05 0)
(1.846283 -9.3397432e-05 0)
(1.6051772 -0.00010631806 0)
(1.3122637 -8.3827403e-05 0)
(1.0164924 -5.3291367e-05 0)
(0.7510597 -2.9561052e-05 0)
(0.53133722 -1.4797735e-05 0)
(0.35944277 -6.7233052e-06 0)
(0.2301926 -2.7136215e-06 0)
(0.13566796 -9.079094e-07 0)
(0.067864589 -2.1197628e-07 0)
(0.019878406 -3.0174522e-08 0)
(0.019876742 3.0485951e-08 0)
(0.067858983 2.0614345e-07 0)
(0.13565695 8.5335956e-07 0)
(0.23017438 2.5170629e-06 0)
(0.35941542 6.2082986e-06 0)
(0.5312993 1.3651171e-05 0)
(0.75101175 2.7286464e-05 0)
(1.0164401 4.927046e-05 0)
(1.3122218 7.7765661e-05 0)
(1.6051687 9.9354865e-05 0)
(1.8463206 8.8213594e-05 0)
(1.9838997 3.5451611e-05 0)
(1.9838997 -3.544501e-05 0)
(1.8463206 -8.8207304e-05 0)
(1.6051687 -9.9349986e-05 0)
(1.3122218 -7.7763365e-05 0)
(1.0164401 -4.927026e-05 0)
(0.75101176 -2.728567e-05 0)
(0.5312993 -1.3645355e-05 0)
(0.35941542 -6.1938336e-06 0)
(0.23017438 -2.4954915e-06 0)
(0.13565695 -8.3118728e-07 0)
(0.067858982 -1.9182096e-07 0)
(0.019876742 -2.6922988e-08 0)
(0.019875206 2.7409381e-08 0)
(0.067853808 1.8745502e-07 0)
(0.13564678 7.8409765e-07 0)
(0.23015755 2.3226323e-06 0)
(0.35939015 5.7385123e-06 0)
(0.53126423 1.2628653e-05 0)
(0.75096734 2.5262683e-05 0)
(1.0163913 4.5679375e-05 0)
(1.3121823 7.2306143e-05 0)
(1.6051598 9.2970928e-05 0)
(1.8463554 8.3349456e-05 0)
(1.9839651 3.3690603e-05 0)
(1.9839651 -3.3685875e-05 0)
(1.8463554 -8.3344823e-05 0)
(1.6051598 -9.2967243e-05 0)
(1.3121823 -7.2303963e-05 0)
(1.0163913 -4.5678161e-05 0)
(0.75096734 -2.5260387e-05 0)
(0.53126423 -1.2622304e-05 0)
(0.35939015 -5.7257072e-06 0)
(0.23015755 -2.3046893e-06 0)
(0.13564677 -7.6603367e-07 0)
(0.067853806 -1.7585412e-07 0)
(0.019875205 -2.4523965e-08 0)
(0.019873784 2.433034e-08 0)
(0.067849017 1.6940826e-07 0)
(0.13563736 7.2006114e-07 0)
(0.23014197 2.1466229e-06 0)
(0.35936673 5.3167224e-06 0)
(0.53123171 1.1712647e-05 0)
(0.75092608 2.3448506e-05 0)
(1.0163459 4.2451263e-05 0)
(1.3121451 6.7365854e-05 0)
(1.6051508 8.7104683e-05 0)
(1.8463877 7.8782459e-05 0)
(1.984027 3.2023623e-05 0)
(1.984027 -3.2020939e-05 0)
(1.8463878 -7.8779571e-05 0)
(1.6051508 -8.7101927e-05 0)
(1.3121451 -6.7363305e-05 0)
(1.0163459 -4.2448426e-05 0)
(0.75092608 -2.3444501e-05 0)
(0.53123171 -1.1707076e-05 0)
(0.35936673 -5.3098493e-06 0)
(0.23014196 -2.1394861e-06 0)
(0.13563735 -7.1398924e-07 0)
(0.067849014 -1.657816e-07 0)
(0.019873782 -2.3459946e-08 0)
(0.019872464 2.146977e-08 0)
(0.06784457 1.527936e-07 0)
(0.13562862 6.6181529e-07 0)
(0.2301275 1.9875042e-06 0)
(0.35934499 4.9363758e-06 0)
(0.53120149 1.088719e-05 0)
(0.75088767 2.1812523e-05 0)
(1.0163034 3.9533381e-05 0)
(1.3121099 6.2874935e-05 0)
(1.6051417 8.1698392e-05 0)
(1.8464178 7.448905e-05 0)
(1.9840856 3.0443443e-05 0)
(1.9840856 -3.0442792e-05 0)
(1.8464178 -7.4488025e-05 0)
(1.6051417 -8.1696599e-05 0)
(1.3121099 -6.2872285e-05 0)
(1.0163034 -3.952938e-05 0)
(0.75088768 -2.1807562e-05 0)
(0.53120149 -1.0883036e-05 0)
(0.35934499 -4.9347736e-06 0)
(0.2301275 -1.9884565e-06 0)
(0.13562861 -6.6384865e-07 0)
(0.067844568 -1.5429707e-07 0)
(0.019872463 -2.1845581e-08 0)
(0.019871236 1.9050722e-08 0)
(0.067840433 1.3843636e-07 0)
(0.13562048 6.101338e-07 0)
(0.23011404 1.8444207e-06 0)
(0.35932475 4.592559e-06 0)
(0.53117334 1.01397e-05 0)
(0.75085185 2.0329507e-05 0)
(1.0162637 3.6882889e-05 0)
(1.3120767 5.877551e-05 0)
(1.6051326 7.6703473e-05 0)
(1.8464457 7.0447179e-05 0)
(1.9841411 2.8943275e-05 0)
(1.9841411 -2.8944176e-05 0)
(1.8464457 -7.0447589e-05 0)
(1.6051326 -7.6702744e-05 0)
(1.3120767 -5.8772846e-05 0)
(1.0162637 -3.6878076e-05 0)
(0.75085186 -2.0324043e-05 0)
(0.53117334 -1.0137077e-05 0)
(0.35932475 -4.595963e-06 0)
(0.23011404 -1.8533596e-06 0)
(0.13562048 -6.206376e-07 0)
(0.067840432 -1.4548934e-07 0)
(0.019871236 -2.0823321e-08 0)
(0.019870092 1.7221553e-08 0)
(0.067836578 1.2687743e-07 0)
(0.1356129 5.6546031e-07 0)
(0.23010149 1.7165453e-06 0)
(0.35930588 4.2812865e-06 0)
(0.53114708 9.4600805e-06 0)
(0.75081839 1.897904e-05 0)
(1.0162265 3.4464728e-05 0)
(1.3120454 5.5019388e-05 0)
(1.6051236 7.2077022e-05 0)
(1.8464717 6.6639737e-05 0)
(1.9841937 2.7517829e-05 0)
(1.9841937 -2.7519748e-05 0)
(1.8464717 -6.664118e-05 0)
(1.6051236 -7.2076977e-05 0)
(1.3120454 -5.5016996e-05 0)
(1.0162265 -3.4459884e-05 0)
(0.7508184 -1.8973721e-05 0)
(0.53114708 -9.4583076e-06 0)
(0.35930588 -4.2866369e-06 0)
(0.23010149 -1.7283304e-06 0)
(0.1356129 -5.789009e-07 0)
(0.067836578 -1.3584276e-07 0)
(0.019870092 -1.9472498e-08 0)
(0.019869024 1.6049713e-08 0)
(0.06783298 1.1834172e-07 0)
(0.13560583 5.2782558e-07 0)
(0.23008977 1.6028995e-06 0)
(0.35928825 3.9991526e-06 0)
(0.53112254 8.8401202e-06 0)
(0.75078709 1.7744557e-05 0)
(1.0161916 3.2250157e-05 0)
(1.3120158 5.1566315e-05 0)
(1.6051148 6.7783486e-05 0)
(1.8464959 6.3049026e-05 0)
(1.9842436 2.6161667e-05 0)
(1.9842436 -2.6164053e-05 0)
(1.8464959 -6.3050932e-05 0)
(1.6051148 -6.7783971e-05 0)
(1.3120158 -5.156453e-05 0)
(1.0161916 -3.2246347e-05 0)
(0.7507871 -1.7741125e-05 0)
(0.53112254 -8.8413181e-06 0)
(0.35928825 -4.0083777e-06 0)
(0.23008977 -1.618731e-06 0)
(0.13560583 -5.4464014e-07 0)
(0.067832979 -1.2927777e-07 0)
(0.019869024 -1.8759048e-08 0)
(0.019868026 1.5525493e-08 0)
(0.067829615 1.1275153e-07 0)
(0.13559921 4.9684988e-07 0)
(0.23007881 1.50229e-06 0)
(0.35927176 3.7431031e-06 0)
(0.53109957 8.2729433e-06 0)
(0.75075777 1.6612301e-05 0)
(1.0161588 3.0215196e-05 0)
(1.3119879 4.8382268e-05 0)
(1.6051062 6.3790417e-05 0)
(1.8465185 5.9661754e-05 0)
(1.9842908 2.4870953e-05 0)
(1.9842908 -2.4873335e-05 0)
(1.8465185 -5.9663695e-05 0)
(1.6051062 -6.3790997e-05 0)
(1.3119879 -4.8380776e-05 0)
(1.0161588 -3.0212024e-05 0)
(0.75075777 -1.6609817e-05 0)
(0.53109957 -8.2751984e-06 0)
(0.35927176 -3.7535729e-06 0)
(0.23007881 -1.5197697e-06 0)
(0.13559921 -5.1551703e-07 0)
(0.067829617 -1.249765e-07 0)
(0.019868026 -1.8585689e-08 0)
(0.019867091 1.5524473e-08 0)
(0.067826466 1.0957486e-07 0)
(0.13559302 4.7150139e-07 0)
(0.23006855 1.4130548e-06 0)
(0.35925632 3.5102143e-06 0)
(0.53107805 7.7527937e-06 0)
(0.75073028 1.557099e-05 0)
(1.016128 2.8340017e-05 0)
(1.3119615 4.5438687e-05 0)
(1.6050978 6.0071159e-05 0)
(1.8465397 5.6463737e-05 0)
(1.9843355 2.3641502e-05 0)
(1.9843355 -2.3643517e-05 0)
(1.8465397 -5.6465524e-05 0)
(1.6050978 -6.0072069e-05 0)
(1.3119615 -4.5438183e-05 0)
(1.016128 -2.8338324e-05 0)
(0.75073028 -1.5569492e-05 0)
(0.53107805 -7.7535024e-06 0)
(0.35925632 -3.5145504e-06 0)
(0.23006855 -1.4203047e-06 0)
(0.13559302 -4.7917143e-07 0)
(0.067826468 -1.1458045e-07 0)
(0.019867092 -1.6771736e-08 0)
(0.019866216 1.5778402e-08 0)
(0.067823514 1.0769759e-07 0)
(0.13558721 4.4985896e-07 0)
(0.23005893 1.3327238e-06 0)
(0.35924184 3.2972363e-06 0)
(0.53105787 7.2744016e-06 0)
(0.75070446 1.4610891e-05 0)
(1.0160991 2.660763e-05 0)
(1.3119366 4.2710819e-05 0)
(1.6050896 5.6600802e-05 0)
(1.8465595 5.3443219e-05 0)
(1.9843779 2.247019e-05 0)
(1.9843779 -2.2471492e-05 0)
(1.8465595 -5.3444533e-05 0)
(1.6050896 -5.6601915e-05 0)
(1.3119366 -4.2711422e-05 0)
(1.0160991 -2.6607875e-05 0)
(0.75070446 -1.461131e-05 0)
(0.53105787 -7.2753387e-06 0)
(0.35924184 -3.2986273e-06 0)
(0.23005893 -1.3342608e-06 0)
(0.13558721 -4.512402e-07 0)
(0.067823516 -1.0855588e-07 0)
(0.019866216 -1.5987787e-08 0)
(0.019865395 1.5988326e-08 0)
(0.067820745 1.0587991e-07 0)
(0.13558177 4.298128e-07 0)
(0.23004991 1.2586777e-06 0)
(0.35922825 3.1009815e-06 0)
(0.53103891 6.8330622e-06 0)
(0.75068021 1.3723745e-05 0)
(1.0160718 2.5003824e-05 0)
(1.3119131 4.0178012e-05 0)
(1.6050817 5.3358608e-05 0)
(1.846578 5.0590072e-05 0)
(1.9844181 2.1354024e-05 0)
(1.9844181 -2.1354648e-05 0)
(1.846578 -5.0590887e-05 0)
(1.6050817 -5.3359659e-05 0)
(1.3119131 -4.0179134e-05 0)
(1.0160718 -2.5004954e-05 0)
(0.75068021 -1.3724664e-05 0)
(0.53103891 -6.8329928e-06 0)
(0.35922825 -3.099227e-06 0)
(0.23004991 -1.2556252e-06 0)
(0.13558177 -4.266744e-07 0)
(0.067820747 -1.0389525e-07 0)
(0.019865395 -1.5513839e-08 0)
(0.019864623 1.591703e-08 0)
(0.067818145 1.0313019e-07 0)
(0.13557665 4.096398e-07 0)
(0.23004143 1.1886815e-06 0)
(0.35921548 2.918573e-06 0)
(0.5310211 6.4244252e-06 0)
(0.75065741 1.2902024e-05 0)
(1.0160462 2.3515823e-05 0)
(1.3118908 3.7821515e-05 0)
(1.6050741 5.0325723e-05 0)
(1.8465954 4.7891603e-05 0)
(1.9844562 2.0289703e-05 0)
(1.9844562 -2.0289868e-05 0)
(1.8465954 -4.7892264e-05 0)
(1.6050741 -5.0327132e-05 0)
(1.3118908 -3.782353e-05 0)
(1.0160462 -2.3517779e-05 0)
(0.75065741 -1.2902351e-05 0)
(0.5310211 -6.4200467e-06 0)
(0.35921548 -2.9066807e-06 0)
(0.23004143 -1.1707038e-06 0)
(0.13557665 -3.9116592e-07 0)
(0.067818147 -9.1232532e-08 0)
(0.019864624 -1.2973776e-08 0)
(0.019863898 1.5444447e-08 0)
(0.067815701 9.8938592e-08 0)
(0.13557184 3.8839599e-07 0)
(0.23003346 1.1213425e-06 0)
(0.35920348 2.7478824e-06 0)
(0.53100435 6.0448685e-06 0)
(0.75063594 1.2139272e-05 0)
(1.016022 2.2132836e-05 0)
(1.3118698 3.5626014e-05 0)
(1.6050668 4.7484976e-05 0)
(1.8466117 4.534366e-05 0)
(1.9844923 1.9276199e-05 0)
(1.9844923 -1.9276028e-05 0)
(1.8466117 -4.5344229e-05 0)
(1.6050668 -4.7486901e-05 0)
(1.3118698 -3.5629031e-05 0)
(1.016022 -2.2135971e-05 0)
(0.75063594 -1.2140028e-05 0)
(0.53100435 -6.0387224e-06 0)
(0.35920348 -2.7308834e-06 0)
(0.23003346 -1.0956271e-06 0)
(0.13557184 -3.6197933e-07 0)
(0.0678157 -8.1908472e-08 0)
(0.019863898 -1.1220816e-08 0)
(0.019863217 1.4540696e-08 0)
(0.067813402 9.3162401e-08 0)
(0.13556732 3.6572388e-07 0)
(0.23002596 1.0558891e-06 0)
(0.35919218 2.5873186e-06 0)
(0.53098859 5.6912666e-06 0)
(0.75061574 1.142969e-05 0)
(1.0159992 2.0844902e-05 0)
(1.3118499 3.3576608e-05 0)
(1.6050598 4.4822623e-05 0)
(1.846627 4.2929482e-05 0)
(1.9845265 1.8308875e-05 0)
(1.9845265 -1.8308696e-05 0)
(1.846627 -4.2930092e-05 0)
(1.6050598 -4.4824596e-05 0)
(1.3118499 -3.3579763e-05 0)
(1.0159992 -2.0848109e-05 0)
(0.75061573 -1.1430463e-05 0)
(0.53098859 -5.6856976e-06 0)
(0.35919218 -2.5723691e-06 0)
(0.23002596 -1.0336823e-06 0)
(0.13556732 -3.4309493e-07 0)
(0.067813401 -7.8603685e-08 0)
(0.019863216 -1.093654e-08 0)
(0.019862575 1.3264201e-08 0)
(0.067811238 8.6020825e-08 0)
(0.13556306 3.4185362e-07 0)
(0.2300189 9.9219466e-07 0)
(0.35918155 2.43588e-06 0)
(0.53097374 5.3610631e-06 0)
(0.75059669 1.0768291e-05 0)
(1.0159777 1.9643763e-05 0)
(1.311831 3.1662027e-05 0)
(1.605053 4.2323587e-05 0)
(1.8466414 4.065338e-05 0)
(1.9845589 1.7389323e-05 0)
(1.9845589 -1.7389636e-05 0)
(1.8466414 -4.0654471e-05 0)
(1.605053 -4.2325944e-05 0)
(1.311831 -3.1665092e-05 0)
(1.0159777 -1.9645817e-05 0)
(0.75059669 -1.0766368e-05 0)
(0.53097374 -5.3511975e-06 0)
(0.35918155 -2.4153394e-06 0)
(0.2300189 -9.6397944e-07 0)
(0.13556306 -3.1400082e-07 0)
(0.067811236 -6.8326696e-08 0)
(0.019862574 -8.9138945e-09 0)
(0.01986197 1.1727842e-08 0)
(0.067809199 7.7953944e-08 0)
(0.13555905 3.1736788e-07 0)
(0.23001225 9.3051353e-07 0)
(0.35917153 2.2929306e-06 0)
(0.53095975 5.052125e-06 0)
(0.75057874 1.0150674e-05 0)
(1.0159574 1.8521498e-05 0)
(1.3118132 2.9869667e-05 0)
(1.6050466 3.9978004e-05 0)
(1.8466549 3.8491241e-05 0)
(1.9845897 1.651055e-05 0)
(1.9845896 -1.6511487e-05 0)
(1.8466549 -3.8493002e-05 0)
(1.6050466 -3.9980877e-05 0)
(1.3118132 -2.9873007e-05 0)
(1.0159574 -1.8523242e-05 0)
(0.75057874 -1.014782e-05 0)
(0.53095975 -5.040991e-06 0)
(0.35917152 -2.2708279e-06 0)
(0.23001224 -9.0035944e-07 0)
(0.13555904 -2.8750131e-07 0)
(0.067809194 -5.890665e-08 0)
(0.019861968 -7.0121617e-09 0)
(0.0198614 1.0068375e-08 0)
(0.067807277 6.950398e-08 0)
(0.13555526 2.9303638e-07 0)
(0.23000598 8.7135587e-07 0)
(0.35916208 2.1581407e-06 0)
(0.53094656 4.7626683e-06 0)
(0.75056182 9.5730154e-06 0)
(1.0159383 1.747199e-05 0)
(1.3117964 2.8192012e-05 0)
(1.6050404 3.7772849e-05 0)
(1.8466676 3.645862e-05 0)
(1.9846187 1.56779e-05 0)
(1.9846187 -1.5679571e-05 0)
(1.8466676 -3.6460788e-05 0)
(1.6050404 -3.7775621e-05 0)
(1.3117964 -2.8194274e-05 0)
(1.0159383 -1.7472004e-05 0)
(0.75056181 -9.5695113e-06 0)
(0.53094656 -4.7557121e-06 0)
(0.35916208 -2.148866e-06 0)
(0.23000598 -8.6166834e-07 0)
(0.13555526 -2.848731e-07 0)
(0.067807272 -6.4645023e-08 0)
(0.019861398 -8.9053273e-09 0)
(0.019860863 8.4092054e-09 0)
(0.067805464 6.1158663e-08 0)
(0.1355517 2.6954229e-07 0)
(0.23000007 8.1515941e-07 0)
(0.35915317 2.0312099e-06 0)
(0.53093412 4.4911594e-06 0)
(0.75054584 9.0318709e-06 0)
(1.0159202 1.6488437e-05 0)
(1.3117804 2.6616923e-05 0)
(1.6050345 3.5699665e-05 0)
(1.8466796 3.452006e-05 0)
(1.9846464 1.4879979e-05 0)
(1.9846464 -1.4882848e-05 0)
(1.8466796 -3.4523129e-05 0)
(1.6050345 -3.5702185e-05 0)
(1.3117804 -2.6617367e-05 0)
(1.0159202 -1.6484951e-05 0)
(0.75054583 -9.0247682e-06 0)
(0.53093411 -4.4837987e-06 0)
(0.35915317 -2.0277635e-06 0)
(0.23000007 -8.1690376e-07 0)
(0.13555169 -2.7412018e-07 0)
(0.067805461 -6.4770922e-08 0)
(0.019860861 -9.3818251e-09 0)
(0.019860356 6.8190447e-09 0)
(0.067803755 5.3190179e-08 0)
(0.13554833 2.4727396e-07 0)
(0.22999449 7.6217625e-07 0)
(0.35914477 1.9118988e-06 0)
(0.53092238 4.2363859e-06 0)
(0.75053076 8.5246172e-06 0)
(1.0159031 1.5567164e-05 0)
(1.3117654 2.5141711e-05 0)
(1.6050288 3.3749939e-05 0)
(1.8466909 3.2706489e-05 0)
(1.9846724 1.4127803e-05 0)
(1.9846724 -1.4131851e-05 0)
(1.8466909 -3.2710521e-05 0)
(1.6050288 -3.3752881e-05 0)
(1.3117654 -2.5141266e-05 0)
(1.0159031 -1.556171e-05 0)
(0.75053076 -8.5158762e-06 0)
(0.53092237 -4.2294849e-06 0)
(0.35914477 -1.9116929e-06 0)
(0.22999449 -7.6885018e-07 0)
(0.13554833 -2.5663833e-07 0)
(0.067803751 -5.9783361e-08 0)
(0.019860354 -8.4973372e-09 0)
(0.019859877 5.396428e-09 0)
(0.06780214 4.5978329e-08 0)
(0.13554516 2.2672274e-07 0)
(0.22998923 7.126145e-07 0)
(0.35913683 1.7997363e-06 0)
(0.53091129 3.996849e-06 0)
(0.75051651 8.0480431e-06 0)
(1.0158869 1.4701108e-05 0)
(1.3117511 2.3751831e-05 0)
(1.6050235 3.1911909e-05 0)
(1.8467016 3.0966093e-05 0)
(1.9846974 1.3403732e-05 0)
(1.9846974 -1.340883e-05 0)
(1.8467016 -3.0970791e-05 0)
(1.6050235 -3.1914655e-05 0)
(1.3117511 -2.3749916e-05 0)
(1.0158869 -1.4693986e-05 0)
(0.7505165 -8.039905e-06 0)
(0.53091128 -3.9962751e-06 0)
(0.35913683 -1.8145793e-06 0)
(0.22998922 -7.4152751e-07 0)
(0.13554515 -2.5903906e-07 0)
(0.067802136 -6.7454773e-08 0)
(0.019859875 -1.0792972e-08 0)
(0.019859425 4.2662912e-09 0)
(0.067800617 4.0034964e-08 0)
(0.13554216 2.0872415e-07 0)
(0.22998426 6.6736663e-07 0)
(0.35912935 1.6953449e-06 0)
(0.53090083 3.7725317e-06 0)
(0.75050308 7.6014912e-06 0)
(1.0158717 1.3890658e-05 0)
(1.3117376 2.2452938e-05 0)
(1.6050183 3.0187687e-05 0)
(1.8467115 2.9351325e-05 0)
(1.9847207 1.2726646e-05 0)
(1.9847207 -1.2733102e-05 0)
(1.8467115 -2.9357003e-05 0)
(1.6050183 -3.0190248e-05 0)
(1.3117376 -2.2449617e-05 0)
(1.0158717 -1.3881949e-05 0)
(0.75050307 -7.5935338e-06 0)
(0.53090082 -3.7761335e-06 0)
(0.35912934 -1.7198945e-06 0)
(0.22998426 -7.100807e-07 0)
(0.13554216 -2.5482747e-07 0)
(0.067800616 -7.0322905e-08 0)
(0.019859424 -1.1845108e-08 0)
(0.019858997 3.5972361e-09 0)
(0.067799175 3.6014489e-08 0)
(0.13553932 1.9413812e-07 0)
(0.22997956 6.2686072e-07 0)
(0.35912226 1.5981564e-06 0)
(0.53089092 3.5615334e-06 0)
(0.75049034 7.1809113e-06 0)
(1.0158573 1.312614e-05 0)
(1.3117247 2.1223316e-05 0)
(1.6050134 2.8554578e-05 0)
(1.8467211 2.7787176e-05 0)
(1.9847432 1.206965e-05 0)
(1.9847432 -1.2077581e-05 0)
(1.8467211 -2.7794072e-05 0)
(1.6050134 -2.8557724e-05 0)
(1.3117247 -2.1220277e-05 0)
(1.0158572 -1.3118494e-05 0)
(0.75049032 -7.1753884e-06 0)
(0.53089091 -3.5680294e-06 0)
(0.35912225 -1.6241321e-06 0)
(0.22997955 -6.6852773e-07 0)
(0.13553932 -2.376619e-07 0)
(0.067799175 -6.42545e-08 0)
(0.019858997 -1.0612341e-08 0)
(0.019858594 3.54415e-09 0)
(0.067797817 3.4596175e-08 0)
(0.13553665 1.842904e-07 0)
(0.22997513 5.9306915e-07 0)
(0.35911558 1.5107077e-06 0)
(0.53088159 3.3667452e-06 0)
(0.75047836 6.7901796e-06 0)
(1.0158437 1.2416528e-05 0)
(1.3117127 2.008519e-05 0)
(1.6050088 2.703785e-05 0)
(1.8467299 2.6358895e-05 0)
(1.984764 1.1464882e-05 0)
(1.984764 -1.1474127e-05 0)
(1.8467299 -2.6366656e-05 0)
(1.6050088 -2.7041586e-05 0)
(1.3117127 -2.0083338e-05 0)
(1.0158436 -1.2412104e-05 0)
(0.75047834 -6.7898527e-06 0)
(0.53088158 -3.378617e-06 0)