/*--------------------------------*- C++ -*----------------------------------*\
  =========                 |
  \\      /  F ield         | OpenFOAM: The Open Source CFD Toolbox
   \\    /   O peration     | Website:  https://openfoam.org
    \\  /    A nd           | Version:  10
     \\/     M anipulation  |
\*---------------------------------------------------------------------------*/
FoamFile
{
    format      ascii;
    class       volScalarField;
    location    "9";
    object      T;
}
// * * * * * * * * * * * * * * * * * * * * * * * * * * * * * * * * * * * * * //

dimensions      [0 0 -1 0 0 0 0];

internalField   nonuniform List<scalar> 
100
(
0.00750366
0.022245
0.0361983
0.0488692
0.059809
0.0686299
0.0750196
0.0787517
0.079694
0.0778131
0.0731756
0.0659458
0.0563799
0.0448167
0.0316658
0.0173931
0.0025043
-0.0124733
-0.0270089
-0.0405878
-0.0527289
-0.0630019
-0.0710432
-0.0765677
-0.0793797
-0.0793797
-0.0765676
-0.0710431
-0.0630018
-0.0527287
-0.0405876
-0.0270086
-0.0124729
0.00250468
0.0173935
0.0316662
0.0448172
0.0563804
0.0659464
0.0731761
0.0778136
0.0796945
0.0787522
0.07502
0.0686302
0.0598092
0.0488694
0.0361983
0.022245
0.00750354
-0.00750369
-0.0222451
-0.0361985
-0.0488695
-0.0598093
-0.0686303
-0.07502
-0.0787522
-0.0796945
-0.0778135
-0.073176
-0.0659462
-0.0563803
-0.044817
-0.0316661
-0.0173934
-0.00250449
0.0124731
0.0270088
0.0405877
0.0527288
0.0630019
0.0710432
0.0765677
0.0793797
0.0793797
0.0765676
0.0710431
0.0630019
0.0527288
0.0405877
0.0270088
0.0124731
-0.00250444
-0.0173933
-0.0316659
-0.0448168
-0.05638
-0.0659459
-0.0731757
-0.0778131
-0.079694
-0.0787517
-0.0750196
-0.0686298
-0.0598088
-0.0488691
-0.0361981
-0.0222448
-0.00750349
)
;

boundaryField
{
    inlet
    {
        type            cyclic;
    }
    outlet
    {
        type            cyclic;
    }
    bottom
    {
        type            slip;
    }
    top
    {
        type            slip;
    }
    frontAndBack
    {
        type            empty;
    }
}


// ************************************************************************* //
