/*--------------------------------*- C++ -*----------------------------------*\
  =========                 |
  \\      /  F ield         | OpenFOAM: The Open Source CFD Toolbox
   \\    /   O peration     | Website:  https://openfoam.org
    \\  /    A nd           | Version:  10
     \\/     M anipulation  |
\*---------------------------------------------------------------------------*/
FoamFile
{
    format      ascii;
    class       volScalarField;
    location    "9";
    object      T_0;
}
// * * * * * * * * * * * * * * * * * * * * * * * * * * * * * * * * * * * * * //

dimensions      [0 0 -1 0 0 0 0];

internalField   nonuniform List<scalar> 
100
(
0.00803516
0.0238206
0.0387623
0.0523307
0.0640453
0.0734911
0.0803334
0.0843298
0.0853389
0.0833247
0.0783587
0.0706169
0.0603734
0.0479911
0.0339087
0.0186251
0.00268169
-0.0133567
-0.028922
-0.0434627
-0.0564637
-0.0674644
-0.0760752
-0.081991
-0.0850023
-0.0850022
-0.081991
-0.0760751
-0.0674643
-0.0564635
-0.0434624
-0.0289217
-0.0133564
0.00268208
0.0186255
0.0339092
0.0479916
0.0603739
0.0706174
0.0783592
0.0833252
0.0853393
0.0843302
0.0803337
0.0734913
0.0640455
0.0523308
0.0387623
0.0238206
0.00803502
-0.00803518
-0.0238207
-0.0387624
-0.0523309
-0.0640456
-0.0734914
-0.0803338
-0.0843302
-0.0853393
-0.0833251
-0.0783591
-0.0706173
-0.0603737
-0.0479914
-0.033909
-0.0186253
-0.00268188
0.0133566
0.0289219
0.0434626
0.0564636
0.0674644
0.0760752
0.081991
0.0850023
0.0850023
0.081991
0.0760752
0.0674644
0.0564636
0.0434626
0.0289219
0.0133566
-0.00268184
-0.0186253
-0.0339089
-0.0479912
-0.0603735
-0.070617
-0.0783588
-0.0833247
-0.0853388
-0.0843298
-0.0803333
-0.073491
-0.0640452
-0.0523305
-0.0387621
-0.0238204
-0.00803497
)
;

boundaryField
{
    inlet
    {
        type            cyclic;
    }
    outlet
    {
        type            cyclic;
    }
    bottom
    {
        type            slip;
    }
    top
    {
        type            slip;
    }
    frontAndBack
    {
        type            empty;
    }
}


// ************************************************************************* //
