/*--------------------------------*- C++ -*----------------------------------*\
| =========                 |                                                 |
| \\      /  F ield         | OpenFOAM: The Open Source CFD Toolbox           |
|  \\    /   O peration     | Version:  2406                                  |
|   \\  /    A nd           | Website:  www.openfoam.com                      |
|    \\/     M anipulation  |                                                 |
\*---------------------------------------------------------------------------*/
FoamFile
{
    version     2.0;
    format      ascii;
    arch        "LSB;label=32;scalar=64";
    class       volScalarField;
    location    "4.25";
    object      p;
}
// * * * * * * * * * * * * * * * * * * * * * * * * * * * * * * * * * * * * * //

dimensions      [0 2 -2 0 0 0 0];

internalField   nonuniform List<scalar> 
34560
(
-23.328477
-23.331453
-23.337071
-23.347001
-23.361704
-23.381237
-23.404189
-23.429454
-23.455391
-23.325774
-23.330035
-23.337793
-23.351062
-23.370154
-23.394644
-23.422553
-23.452187
-23.482138
-23.322456
-23.328256
-23.338487
-23.355358
-23.37886
-23.407859
-23.439765
-23.472345
-23.504238
-23.317111
-23.324492
-23.337333
-23.358048
-23.386166
-23.419641
-23.455266
-23.490313
-23.523608
-23.310317
-23.319367
-23.33491
-23.359534
-23.392254
-23.430068
-23.469238
-23.506576
-23.540929
-23.303063
-23.313689
-23.331822
-23.360203
-23.397295
-23.439139
-23.481551
-23.520944
-23.556112
-23.29589
-23.307952
-23.328471
-23.360323
-23.401413
-23.446864
-23.492135
-23.533307
-23.569114
-23.289038
-23.302395
-23.325056
-23.359996
-23.404601
-23.453177
-23.500891
-23.543571
-23.5799
-23.282846
-23.297314
-23.321805
-23.359358
-23.406909
-23.458076
-23.507796
-23.551702
-23.588459
-23.277844
-23.293176
-23.319094
-23.358678
-23.408502
-23.461657
-23.512903
-23.55773
-23.59482
-23.274489
-23.290398
-23.31728
-23.358224
-23.409556
-23.464033
-23.51629
-23.561719
-23.599034
-23.272511
-23.288756
-23.316169
-23.357837
-23.409959
-23.465125
-23.517908
-23.563654
-23.601096
-23.272511
-23.288756
-23.316169
-23.357837
-23.40996
-23.465125
-23.517908
-23.563654
-23.601096
-23.27449
-23.290399
-23.31728
-23.358224
-23.409557
-23.464034
-23.51629
-23.56172
-23.599034
-23.277846
-23.293177
-23.319095
-23.358679
-23.408503
-23.461658
-23.512904
-23.557731
-23.59482
-23.282847
-23.297315
-23.321806
-23.35936
-23.40691
-23.458077
-23.507797
-23.551703
-23.58846
-23.289039
-23.302397
-23.325058
-23.359998
-23.404603
-23.453178
-23.500892
-23.543572
-23.5799
-23.295892
-23.307954
-23.328474
-23.360325
-23.401415
-23.446866
-23.492137
-23.533308
-23.569114
-23.303066
-23.313693
-23.331825
-23.360206
-23.397299
-23.439142
-23.481554
-23.520945
-23.556111
-23.31032
-23.319371
-23.334914
-23.359539
-23.392259
-23.430072
-23.469241
-23.506577
-23.540929
-23.317117
-23.324498
-23.337339
-23.358054
-23.386172
-23.419645
-23.45527
-23.490314
-23.523609
-23.322462
-23.328262
-23.338494
-23.355365
-23.378866
-23.407865
-23.43977
-23.472347
-23.504239
-23.325781
-23.330042
-23.3378
-23.35107
-23.370162
-23.394651
-23.422559
-23.452192
-23.482142
-23.328485
-23.331461
-23.33708
-23.347009
-23.361711
-23.381244
-23.404196
-23.429463
-23.455399
-22.302382
-22.300476
-22.298298
-22.295458
-22.290808
-22.283036
-22.271878
-22.258064
-22.243521
-22.320721
-22.318203
-22.315009
-22.310375
-22.302807
-22.290966
-22.275237
-22.257786
-22.241265
-22.341149
-22.338031
-22.333984
-22.32784
-22.317691
-22.302086
-22.281959
-22.260815
-22.241876
-22.361477
-22.357726
-22.352802
-22.345183
-22.33263
-22.313624
-22.28949
-22.264791
-22.243161
-22.381353
-22.377018
-22.371232
-22.362097
-22.347148
-22.324927
-22.29705
-22.268982
-22.24478
-22.39995
-22.395141
-22.388602
-22.378027
-22.360824
-22.335725
-22.304479
-22.27328
-22.24671
-22.416897
-22.411663
-22.404426
-22.392493
-22.373202
-22.345553
-22.311406
-22.277465
-22.248758
-22.431767
-22.426183
-22.418349
-22.405207
-22.384044
-22.354142
-22.317584
-22.281349
-22.250709
-22.444149
-22.438296
-22.429982
-22.41584
-22.393102
-22.361303
-22.322775
-22.284684
-22.252402
-22.45369
-22.44765
-22.438983
-22.424086
-22.400133
-22.366838
-22.326753
-22.287259
-22.253745
-22.460198
-22.454023
-22.445105
-22.42969
-22.404903
-22.370571
-22.329416
-22.288975
-22.254637
-22.463497
-22.457263
-22.448226
-22.432554
-22.407346
-22.372483
-22.330776
-22.289847
-22.255087
-22.463497
-22.457263
-22.448226
-22.432554
-22.407346
-22.372483
-22.330776
-22.289848
-22.255087
-22.460199
-22.454024
-22.445106
-22.429691
-22.404903
-22.370572
-22.329416
-22.288975
-22.254637
-22.453691
-22.447651
-22.438984
-22.424087
-22.400134
-22.366839
-22.326753
-22.287259
-22.253745
-22.44415
-22.438298
-22.429984
-22.415841
-22.393103
-22.361304
-22.322775
-22.284684
-22.252402
-22.431769
-22.426185
-22.418351
-22.405209
-22.384046
-22.354144
-22.317585
-22.281349
-22.250709
-22.4169
-22.411665
-22.404429
-22.392496
-22.373204
-22.345556
-22.311408
-22.277466
-22.248758
-22.399953
-22.395145
-22.388606
-22.37803
-22.360827
-22.335729
-22.304481
-22.273282
-22.24671
-22.381357
-22.377022
-22.371236
-22.362102
-22.347153
-22.324931
-22.297053
-22.268984
-22.244781
-22.361482
-22.357732
-22.352808
-22.345189
-22.332635
-22.31363
-22.289495
-22.264794
-22.243162
-22.341155
-22.338038
-22.333991
-22.327848
-22.317698
-22.302093
-22.281965
-22.260819
-22.241878
-22.320729
-22.318211
-22.315018
-22.310384
-22.302815
-22.290974
-22.275244
-22.257793
-22.241269
-22.302391
-22.300485
-22.298307
-22.295467
-22.290817
-22.283045
-22.271887
-22.258072
-22.243528
-21.172758
-21.172231
-21.17172
-21.171535
-21.17203
-21.17331
-21.174208
-21.172882
-21.169764
-21.176109
-21.175458
-21.174733
-21.174249
-21.174397
-21.175365
-21.176002
-21.174372
-21.171062
-21.179391
-21.178629
-21.177761
-21.17715
-21.17727
-21.178368
-21.179189
-21.177674
-21.174371
-21.182015
-21.18113
-21.18012
-21.179422
-21.179622
-21.180969
-21.182031
-21.180606
-21.177133
-21.18435
-21.183347
-21.182197
-21.181405
-21.181658
-21.183179
-21.184365
-21.182964
-21.179363
-21.18663
-21.185502
-21.184228
-21.183389
-21.18369
-21.185239
-21.1864
-21.184999
-21.181318
-21.188739
-21.187491
-21.18611
-21.185267
-21.18565
-21.18719
-21.188222
-21.186766
-21.183051
-21.190648
-21.189295
-21.187828
-21.187002
-21.187496
-21.189052
-21.189873
-21.188269
-21.184583
-21.192287
-21.19085
-21.189316
-21.188512
-21.189123
-21.190722
-21.191347
-21.189568
-21.185909
-21.193604
-21.1921
-21.190519
-21.189734
-21.190442
-21.192098
-21.192607
-21.190669
-21.186968
-21.194522
-21.19297
-21.191357
-21.190588
-21.191368
-21.193074
-21.193519
-21.191476
-21.187722
-21.194982
-21.193409
-21.191782
-21.191023
-21.191842
-21.193577
-21.193996
-21.191902
-21.18811
-21.194982
-21.193409
-21.191783
-21.191023
-21.191842
-21.193577
-21.193996
-21.191902
-21.18811
-21.194523
-21.19297
-21.191357
-21.190588
-21.191368
-21.193074
-21.193519
-21.191477
-21.187722
-21.193605
-21.192101
-21.19052
-21.189735
-21.190443
-21.192099
-21.192608
-21.190669
-21.186968
-21.192289
-21.190851
-21.189317
-21.188514
-21.189124
-21.190723
-21.191347
-21.189569
-21.18591
-21.19065
-21.189297
-21.18783
-21.187003
-21.187497
-21.189053
-21.189874
-21.18827
-21.184583
-21.188741
-21.187493
-21.186113
-21.18527
-21.185653
-21.187192
-21.188224
-21.186767
-21.183051
-21.186633
-21.185505
-21.184231
-21.183393
-21.183694
-21.185242
-21.186402
-21.185001
-21.181319
-21.184355
-21.183351
-21.182202
-21.18141
-21.181663
-21.183184
-21.184369
-21.182967
-21.179364
-21.18202
-21.181136
-21.180126
-21.179428
-21.179629
-21.180975
-21.182037
-21.18061
-21.177135
-21.179398
-21.178636
-21.177768
-21.177157
-21.177278
-21.178375
-21.179196
-21.177679
-21.174374
-21.176117
-21.175466
-21.174742
-21.174258
-21.174405
-21.175374
-21.17601
-21.174378
-21.171066
-21.172767
-21.172241
-21.171729
-21.171544
-21.172039
-21.173319
-21.174217
-21.17289
-21.169769
-20.205028
-20.205175
-20.205367
-20.205536
-20.205523
-20.20505
-20.204212
-20.203558
-20.202581
-20.209568
-20.209656
-20.209727
-20.209667
-20.209246
-20.208061
-20.20615
-20.204255
-20.202651
-20.214497
-20.214531
-20.214518
-20.214307
-20.213603
-20.21194
-20.209334
-20.206609
-20.204438
-20.219145
-20.219118
-20.219026
-20.218688
-20.217737
-20.215707
-20.212624
-20.209332
-20.20663
-20.223479
-20.223396
-20.223236
-20.222784
-20.221565
-20.219128
-20.215631
-20.211903
-20.208776
-20.22733
-20.22722
-20.227016
-20.226444
-20.224982
-20.222172
-20.218274
-20.214148
-20.210626
-20.230512
-20.230397
-20.23017
-20.229505
-20.227818
-20.224681
-20.220435
-20.215956
-20.212077
-20.233069
-20.232963
-20.23272
-20.231971
-20.230087
-20.226665
-20.22212
-20.217359
-20.213187
-20.235
-20.234914
-20.234674
-20.233869
-20.231827
-20.228168
-20.22338
-20.218408
-20.214009
-20.236384
-20.236315
-20.236079
-20.235233
-20.233074
-20.229235
-20.224266
-20.219143
-20.214576
-20.237275
-20.237219
-20.236987
-20.23611
-20.233867
-20.229905
-20.224818
-20.219599
-20.214927
-20.237698
-20.237651
-20.237424
-20.236532
-20.234248
-20.230224
-20.22508
-20.219816
-20.215093
-20.237698
-20.237651
-20.237424
-20.236533
-20.234248
-20.230224
-20.22508
-20.219816
-20.215093
-20.237275
-20.23722
-20.236988
-20.23611
-20.233868
-20.229906
-20.224818
-20.219599
-20.214927
-20.236385
-20.236316
-20.23608
-20.235234
-20.233075
-20.229236
-20.224267
-20.219143
-20.214576
-20.235001
-20.234915
-20.234675
-20.23387
-20.231829
-20.22817
-20.223381
-20.218409
-20.214009
-20.23307
-20.232964
-20.232722
-20.231973
-20.230089
-20.226667
-20.222122
-20.21736
-20.213187
-20.230514
-20.230399
-20.230173
-20.229508
-20.227821
-20.224684
-20.220438
-20.215958
-20.212078
-20.227333
-20.227224
-20.22702
-20.226448
-20.224986
-20.222175
-20.218277
-20.21415
-20.210627
-20.223483
-20.223401
-20.223241
-20.222789
-20.22157
-20.219133
-20.215635
-20.211906
-20.208777
-20.21915
-20.219124
-20.219032
-20.218694
-20.217743
-20.215713
-20.212629
-20.209336
-20.206632
-20.214504
-20.214538
-20.214526
-20.214314
-20.213611
-20.211947
-20.209341
-20.206614
-20.204441
-20.209576
-20.209665
-20.209735
-20.209676
-20.209254
-20.20807
-20.206158
-20.204261
-20.202656
-20.205037
-20.205184
-20.205376
-20.205546
-20.205533
-20.205059
-20.204221
-20.203567
-20.202587
-19.171377
-19.171388
-19.171432
-19.171545
-19.171766
-19.172125
-19.172616
-19.173123
-19.173312
-19.173368
-19.173341
-19.173319
-19.173327
-19.173395
-19.173561
-19.173815
-19.174024
-19.174034
-19.175478
-19.175418
-19.175358
-19.175325
-19.175342
-19.175445
-19.175584
-19.175649
-19.175588
-19.177248
-19.177165
-19.177084
-19.177042
-19.177064
-19.177151
-19.177229
-19.177166
-19.176938
-19.178558
-19.178476
-19.178385
-19.178318
-19.178329
-19.178415
-19.178452
-19.178276
-19.177891
-19.179548
-19.179468
-19.179369
-19.179292
-19.179279
-19.179346
-19.179358
-19.179104
-19.178602
-19.180353
-19.180273
-19.180166
-19.180075
-19.180058
-19.18011
-19.180097
-19.179792
-19.179197
-19.180999
-19.180917
-19.180813
-19.180723
-19.180705
-19.180756
-19.180726
-19.180376
-19.179693
-19.181512
-19.181425
-19.181315
-19.181226
-19.181214
-19.181273
-19.181239
-19.180851
-19.18009
-19.181893
-19.181804
-19.18169
-19.181599
-19.181592
-19.181661
-19.181629
-19.181213
-19.180392
-19.182149
-19.182056
-19.181938
-19.181846
-19.181844
-19.181922
-19.181893
-19.18146
-19.180598
-19.182268
-19.182175
-19.182057
-19.181965
-19.181967
-19.182052
-19.182026
-19.181587
-19.180704
-19.182268
-19.182175
-19.182057
-19.181965
-19.181967
-19.182052
-19.182026
-19.181587
-19.180704
-19.182149
-19.182057
-19.181939
-19.181847
-19.181844
-19.181922
-19.181894
-19.18146
-19.180597
-19.181894
-19.181804
-19.18169
-19.181599
-19.181593
-19.181662
-19.18163
-19.181214
-19.180391
-19.181513
-19.181426
-19.181316
-19.181227
-19.181216
-19.181275
-19.18124
-19.180851
-19.18009
-19.181001
-19.180919
-19.180814
-19.180724
-19.180707
-19.180758
-19.180728
-19.180377
-19.179693
-19.180355
-19.180275
-19.180168
-19.180078
-19.18006
-19.180113
-19.1801
-19.179793
-19.179197
-19.17955
-19.179471
-19.179372
-19.179295
-19.179283
-19.17935
-19.179361
-19.179106
-19.178603
-19.178562
-19.17848
-19.178389
-19.178323
-19.178334
-19.17842
-19.178456
-19.178279
-19.177892
-19.177253
-19.17717
-19.17709
-19.177048
-19.17707
-19.177157
-19.177234
-19.17717
-19.176941
-19.175485
-19.175425
-19.175365
-19.175333
-19.17535
-19.175453
-19.175591
-19.175654
-19.175592
-19.173376
-19.173349
-19.173328
-19.173336
-19.173404
-19.17357
-19.173824
-19.174032
-19.17404
-19.171387
-19.171397
-19.171441
-19.171555
-19.171776
-19.172135
-19.172626
-19.173133
-19.173322
-18.188571
-18.188622
-18.188687
-18.188759
-18.188827
-18.188876
-18.188885
-18.188851
-18.188651
-18.189257
-18.189304
-18.189352
-18.189377
-18.189351
-18.189242
-18.189046
-18.188794
-18.188475
-18.190093
-18.190136
-18.190169
-18.190152
-18.190042
-18.189815
-18.18951
-18.189183
-18.188876
-18.190947
-18.19098
-18.190994
-18.19094
-18.190772
-18.190478
-18.190116
-18.18974
-18.189411
-18.191876
-18.191895
-18.191888
-18.191806
-18.191605
-18.191275
-18.19085
-18.190403
-18.19002
-18.192849
-18.192853
-18.192828
-18.192733
-18.192526
-18.192175
-18.191693
-18.191167
-18.190711
-18.193781
-18.193769
-18.193732
-18.193632
-18.193426
-18.193066
-18.192547
-18.191954
-18.191423
-18.194624
-18.194603
-18.194555
-18.194452
-18.194247
-18.193883
-18.193338
-18.192689
-18.192082
-18.195336
-18.195307
-18.195253
-18.195146
-18.194943
-18.194579
-18.194015
-18.193321
-18.192646
-18.19589
-18.195856
-18.195798
-18.195689
-18.195489
-18.195127
-18.194549
-18.193819
-18.193088
-18.196271
-18.196234
-18.196173
-18.196063
-18.195866
-18.195505
-18.194918
-18.194163
-18.193392
-18.196462
-18.196424
-18.196361
-18.196252
-18.196056
-18.195697
-18.195106
-18.194339
-18.193548
-18.196462
-18.196424
-18.196361
-18.196252
-18.196056
-18.195697
-18.195106
-18.194339
-18.193547
-18.196271
-18.196234
-18.196173
-18.196063
-18.195866
-18.195505
-18.194918
-18.194163
-18.193391
-18.19589
-18.195856
-18.195798
-18.195689
-18.195489
-18.195128
-18.19455
-18.193819
-18.193086
-18.195336
-18.195307
-18.195254
-18.195147
-18.194944
-18.19458
-18.194016
-18.193321
-18.192644
-18.194625
-18.194603
-18.194556
-18.194453
-18.194248
-18.193885
-18.193339
-18.192689
-18.192081
-18.193782
-18.193771
-18.193734
-18.193634
-18.193428
-18.193069
-18.192549
-18.191954
-18.191421
-18.192852
-18.192855
-18.192831
-18.192737
-18.192529
-18.192178
-18.191696
-18.191168
-18.19071
-18.191879
-18.191899
-18.191893
-18.191811
-18.19161
-18.19128
-18.190854
-18.190405
-18.19002
-18.190952
-18.190986
-18.191
-18.190947
-18.190779
-18.190485
-18.190121
-18.189744
-18.189412
-18.190101
-18.190144
-18.190177
-18.19016
-18.19005
-18.189823
-18.189518
-18.189188
-18.188879
-18.189267
-18.189314
-18.189362
-18.189387
-18.189361
-18.189252
-18.189055
-18.188802
-18.188479
-18.188582
-18.188633
-18.188698
-18.18877
-18.188838
-18.188887
-18.188896
-18.188862
-18.188659
-17.196848
-17.196858
-17.196878
-17.196916
-17.196983
-17.197091
-17.197241
-17.197416
-17.197519
-17.197435
-17.197436
-17.19744
-17.197452
-17.197482
-17.197539
-17.197615
-17.197683
-17.197705
-17.198038
-17.198034
-17.19803
-17.198032
-17.198049
-17.198083
-17.198116
-17.198132
-17.198132
-17.198564
-17.198555
-17.198548
-17.198548
-17.198563
-17.198583
-17.198584
-17.198558
-17.198517
-17.199002
-17.198992
-17.198983
-17.198982
-17.198989
-17.198986
-17.198952
-17.198883
-17.198798
-17.199348
-17.199339
-17.19933
-17.199324
-17.199315
-17.199285
-17.199217
-17.199108
-17.198976
-17.199595
-17.199587
-17.199578
-17.199563
-17.199537
-17.199483
-17.199386
-17.19924
-17.199066
-17.199774
-17.199767
-17.199755
-17.199731
-17.19969
-17.199615
-17.199489
-17.199309
-17.1991
-17.199906
-17.199899
-17.199883
-17.199854
-17.199799
-17.199704
-17.199552
-17.199343
-17.199105
-17.200003
-17.199995
-17.199977
-17.199941
-17.199875
-17.199763
-17.19959
-17.199359
-17.199099
-17.200067
-17.200057
-17.200037
-17.199997
-17.199923
-17.199799
-17.199613
-17.199367
-17.199091
-17.200097
-17.200086
-17.200065
-17.200023
-17.199945
-17.199816
-17.199623
-17.199369
-17.199087
-17.200096
-17.200086
-17.200065
-17.200023
-17.199945
-17.199816
-17.199623
-17.199369
-17.199086
-17.200067
-17.200057
-17.200037
-17.199997
-17.199923
-17.199799
-17.199612
-17.199366
-17.19909
-17.200003
-17.199994
-17.199976
-17.199941
-17.199875
-17.199763
-17.19959
-17.199358
-17.199097
-17.199906
-17.199898
-17.199883
-17.199854
-17.199799
-17.199704
-17.199552
-17.199342
-17.199103
-17.199774
-17.199767
-17.199755
-17.199732
-17.199691
-17.199616
-17.19949
-17.199308
-17.199098
-17.199595
-17.199588
-17.199579
-17.199565
-17.199539
-17.199485
-17.199387
-17.199239
-17.199064
-17.19935
-17.199341
-17.199332
-17.199328
-17.199319
-17.199288
-17.199219
-17.199108
-17.198973
-17.199006
-17.198996
-17.198988
-17.198987
-17.198994
-17.198991
-17.198955
-17.198884
-17.198796
-17.19857
-17.198562
-17.198554
-17.198555
-17.19857
-17.19859
-17.19859
-17.19856
-17.198516
-17.198046
-17.198043
-17.198039
-17.198041
-17.198058
-17.198092
-17.198124
-17.198137
-17.198132
-17.197445
-17.197447
-17.197451
-17.197463
-17.197494
-17.197551
-17.197625
-17.197691
-17.197707
-17.19686
-17.196871
-17.196891
-17.196928
-17.196995
-17.197103
-17.197252
-17.197426
-17.197526
-16.215123
-16.215134
-16.215149
-16.215168
-16.215192
-16.215219
-16.215249
-16.215286
-16.215289
-16.215321
-16.215329
-16.215339
-16.215345
-16.215346
-16.215337
-16.215321
-16.215306
-16.21528
-16.215555
-16.215562
-16.215567
-16.215565
-16.215549
-16.215518
-16.215481
-16.215451
-16.215433
-16.215785
-16.215789
-16.21579
-16.21578
-16.215755
-16.215715
-16.215672
-16.215635
-16.215615
-16.216021
-16.216022
-16.216018
-16.216002
-16.215971
-16.215927
-16.215876
-16.215831
-16.215803
-16.216272
-16.216269
-16.216261
-16.216242
-16.216208
-16.216161
-16.216103
-16.216048
-16.216007
-16.216521
-16.216516
-16.216505
-16.216485
-16.216452
-16.216403
-16.216341
-16.216276
-16.216222
-16.216754
-16.216746
-16.216734
-16.216714
-16.216683
-16.216636
-16.216572
-16.216498
-16.216429
-16.216955
-16.216946
-16.216932
-16.216913
-16.216885
-16.216841
-16.216777
-16.216696
-16.216613
-16.217115
-16.217104
-16.21709
-16.217072
-16.217047
-16.217006
-16.216942
-16.216856
-16.21676
-16.217226
-16.217215
-16.2172
-16.217183
-16.21716
-16.217121
-16.217058
-16.216967
-16.216862
-16.217283
-16.217271
-16.217256
-16.217239
-16.217217
-16.21718
-16.217117
-16.217025
-16.216914
-16.217283
-16.217271
-16.217256
-16.217239
-16.217217
-16.21718
-16.217117
-16.217024
-16.216914
-16.217226
-16.217214
-16.2172
-16.217183
-16.217159
-16.217121
-16.217058
-16.216967
-16.216861
-16.217114
-16.217104
-16.21709
-16.217072
-16.217046
-16.217006
-16.216942
-16.216855
-16.216758
-16.216954
-16.216945
-16.216932
-16.216913
-16.216885
-16.216841
-16.216777
-16.216695
-16.21661
-16.216753
-16.216745
-16.216734
-16.216714
-16.216683
-16.216636
-16.216572
-16.216497
-16.216426
-16.216521
-16.216516
-16.216506
-16.216486
-16.216453
-16.216405
-16.216342
-16.216275
-16.216218
-16.216273
-16.216271
-16.216263
-16.216244
-16.216211
-16.216164
-16.216105
-16.216047
-16.216004
-16.216024
-16.216025
-16.216022
-16.216006
-16.215975
-16.215931
-16.215879
-16.215831
-16.2158
-16.21579
-16.215795
-16.215796
-16.215787
-16.215761
-16.215721
-16.215676
-16.215637
-16.215614
-16.215563
-16.21557
-16.215575
-16.215573
-16.215557
-16.215526
-16.215488
-16.215455
-16.215434
-16.215331
-16.215339
-16.215349
-16.215356
-16.215356
-16.215347
-16.21533
-16.215313
-16.215283
-16.215134
-16.215145
-16.21516
-16.215179
-16.215203
-16.21523
-16.215261
-16.215297
-16.215296
-15.230492
-15.230494
-15.230498
-15.230507
-15.230525
-15.230554
-15.230595
-15.230643
-15.230671
-15.230642
-15.230641
-15.230641
-15.230643
-15.230651
-15.230666
-15.230686
-15.230704
-15.230708
-15.230795
-15.230793
-15.230791
-15.230791
-15.230794
-15.230802
-15.230809
-15.230811
-15.230812
-15.230929
-15.230926
-15.230923
-15.230922
-15.230924
-15.230927
-15.230925
-15.230917
-15.23091
-15.23104
-15.231036
-15.231033
-15.231032
-15.231032
-15.231028
-15.231018
-15.231001
-15.230984
-15.231129
-15.231126
-15.231122
-15.231119
-15.231115
-15.231106
-15.231088
-15.231062
-15.231035
-15.231196
-15.231193
-15.231189
-15.231184
-15.231176
-15.231162
-15.231137
-15.231102
-15.231064
-15.231247
-15.231243
-15.231238
-15.231232
-15.231221
-15.231201
-15.231169
-15.231125
-15.231077
-15.231285
-15.231281
-15.231276
-15.231267
-15.231253
-15.231229
-15.23119
-15.231137
-15.23108
-15.231313
-15.231309
-15.231303
-15.231293
-15.231276
-15.231248
-15.231203
-15.231144
-15.23108
-15.231331
-15.231327
-15.23132
-15.23131
-15.231291
-15.23126
-15.231211
-15.231147
-15.231078
-15.23134
-15.231336
-15.231329
-15.231318
-15.231298
-15.231265
-15.231215
-15.231148
-15.231076
-15.23134
-15.231335
-15.231328
-15.231317
-15.231298
-15.231265
-15.231215
-15.231148
-15.231076
-15.231331
-15.231326
-15.23132
-15.231309
-15.231291
-15.23126
-15.231211
-15.231146
-15.231076
-15.231312
-15.231308
-15.231302
-15.231293
-15.231276
-15.231248
-15.231203
-15.231143
-15.231077
-15.231284
-15.23128
-15.231275
-15.231267
-15.231253
-15.231229
-15.23119
-15.231136
-15.231077
-15.231245
-15.231242
-15.231238
-15.231232
-15.231221
-15.231202
-15.231169
-15.231123
-15.231073
-15.231195
-15.231192
-15.231189
-15.231184
-15.231177
-15.231163
-15.231137
-15.2311
-15.23106
-15.231129
-15.231126
-15.231123
-15.231121
-15.231117
-15.231108
-15.231089
-15.231061
-15.231031
-15.231042
-15.231039
-15.231036
-15.231035
-15.231035
-15.231032
-15.23102
-15.231001
-15.230981
-15.230933
-15.23093
-15.230928
-15.230927
-15.23093
-15.230932
-15.230928
-15.230919
-15.230908
-15.230801
-15.230799
-15.230798
-15.230798
-15.230802
-15.230809
-15.230814
-15.230815
-15.230812
-15.23065
-15.230649
-15.230649
-15.230652
-15.23066
-15.230675
-15.230693
-15.230709
-15.230711
-15.230501
-15.230503
-15.230507
-15.230516
-15.230534
-15.230563
-15.230604
-15.230651
-15.230677
-14.24817
-14.248172
-14.248175
-14.248179
-14.248185
-14.248193
-14.248204
-14.248218
-14.248225
-14.248227
-14.248228
-14.248229
-14.24823
-14.248229
-14.248228
-14.248228
-14.24823
-14.248228
-14.24829
-14.248291
-14.248291
-14.248289
-14.248285
-14.24828
-14.248275
-14.248273
-14.248274
-14.248353
-14.248353
-14.248352
-14.248349
-14.248343
-14.248336
-14.248329
-14.248324
-14.248324
-14.248416
-14.248415
-14.248413
-14.248409
-14.248402
-14.248393
-14.248383
-14.248375
-14.248372
-14.248479
-14.248477
-14.248475
-14.24847
-14.248462
-14.248451
-14.248438
-14.248427
-14.248419
-14.248537
-14.248535
-14.248532
-14.248527
-14.248519
-14.248507
-14.248492
-14.248477
-14.248465
-14.248589
-14.248587
-14.248584
-14.248579
-14.248571
-14.248558
-14.248542
-14.248523
-14.248508
-14.248632
-14.24863
-14.248627
-14.248622
-14.248614
-14.248602
-14.248584
-14.248564
-14.248546
-14.248666
-14.248664
-14.248661
-14.248656
-14.248649
-14.248637
-14.248618
-14.248596
-14.248575
-14.24869
-14.248687
-14.248684
-14.24868
-14.248672
-14.24866
-14.248642
-14.248619
-14.248595
-14.248701
-14.248699
-14.248696
-14.248691
-14.248684
-14.248672
-14.248654
-14.24863
-14.248605
-14.248701
-14.248699
-14.248696
-14.248691
-14.248684
-14.248672
-14.248653
-14.24863
-14.248605
-14.248689
-14.248687
-14.248684
-14.248679
-14.248672
-14.24866
-14.248641
-14.248618
-14.248594
-14.248665
-14.248663
-14.24866
-14.248656
-14.248648
-14.248636
-14.248618
-14.248595
-14.248572
-14.248631
-14.248629
-14.248626
-14.248622
-14.248614
-14.248602
-14.248584
-14.248562
-14.248542
-14.248587
-14.248586
-14.248583
-14.248578
-14.248571
-14.248558
-14.248541
-14.248522
-14.248505
-14.248536
-14.248535
-14.248532
-14.248528
-14.24852
-14.248508
-14.248492
-14.248475
-14.248461
-14.248479
-14.248478
-14.248476
-14.248472
-14.248464
-14.248453
-14.248439
-14.248425
-14.248416
-14.248418
-14.248417
-14.248416
-14.248412
-14.248406
-14.248396
-14.248385
-14.248375
-14.248369
-14.248357
-14.248357
-14.248356
-14.248354
-14.248348
-14.248341
-14.248332
-14.248325
-14.248322
-14.248296
-14.248297
-14.248297
-14.248296
-14.248292
-14.248286
-14.24828
-14.248276
-14.248273
-14.248234
-14.248235
-14.248237
-14.248238
-14.248237
-14.248236
-14.248235
-14.248235
-14.24823
-14.248178
-14.24818
-14.248184
-14.248188
-14.248194
-14.248202
-14.248212
-14.248226
-14.24823
-13.265245
-13.265245
-13.265246
-13.265249
-13.265253
-13.26526
-13.26527
-13.265281
-13.265288
-13.265282
-13.265282
-13.265282
-13.265282
-13.265284
-13.265287
-13.265291
-13.265295
-13.265296
-13.26532
-13.26532
-13.265319
-13.265319
-13.26532
-13.26532
-13.265321
-13.265321
-13.265322
-13.265355
-13.265354
-13.265353
-13.265352
-13.265352
-13.265352
-13.26535
-13.265348
-13.265348
-13.265384
-13.265383
-13.265382
-13.265381
-13.26538
-13.265378
-13.265375
-13.265372
-13.265369
-13.265409
-13.265408
-13.265407
-13.265405
-13.265403
-13.265401
-13.265397
-13.265391
-13.265387
-13.26543
-13.265429
-13.265427
-13.265425
-13.265423
-13.26542
-13.265415
-13.265408
-13.265401
-13.265448
-13.265446
-13.265445
-13.265442
-13.26544
-13.265436
-13.26543
-13.265421
-13.265411
-13.265462
-13.26546
-13.265458
-13.265456
-13.265453
-13.265449
-13.265442
-13.265431
-13.26542
-13.265473
-13.265471
-13.265469
-13.265466
-13.265463
-13.265458
-13.265451
-13.265439
-13.265425
-13.26548
-13.265478
-13.265476
-13.265473
-13.26547
-13.265465
-13.265457
-13.265444
-13.265429
-13.265483
-13.265481
-13.265479
-13.265477
-13.265473
-13.265468
-13.26546
-13.265446
-13.265431
-13.265483
-13.265481
-13.265479
-13.265476
-13.265473
-13.265468
-13.265459
-13.265446
-13.26543
-13.265479
-13.265477
-13.265475
-13.265473
-13.26547
-13.265465
-13.265456
-13.265443
-13.265428
-13.265471
-13.26547
-13.265468
-13.265466
-13.265463
-13.265458
-13.26545
-13.265438
-13.265423
-13.265461
-13.265459
-13.265458
-13.265456
-13.265453
-13.265449
-13.265441
-13.26543
-13.265417
-13.265447
-13.265445
-13.265444
-13.265442
-13.26544
-13.265436
-13.265429
-13.265419
-13.265408
-13.26543
-13.265429
-13.265427
-13.265426
-13.265424
-13.265421
-13.265415
-13.265406
-13.265397
-13.265409
-13.265409
-13.265408
-13.265407
-13.265405
-13.265403
-13.265398
-13.26539
-13.265383
-13.265386
-13.265385
-13.265384
-13.265384
-13.265383
-13.265381
-13.265377
-13.265371
-13.265366
-13.265358
-13.265358
-13.265357
-13.265357
-13.265357
-13.265356
-13.265353
-13.265349
-13.265346
-13.265326
-13.265326
-13.265325
-13.265326
-13.265326
-13.265326
-13.265326
-13.265324
-13.265322
-13.265289
-13.265289
-13.265289
-13.26529
-13.265292
-13.265295
-13.265298
-13.2653
-13.265298
-13.265253
-13.265254
-13.265255
-13.265257
-13.265262
-13.265269
-13.265278
-13.265289
-13.265293
-12.282669
-12.282669
-12.28267
-12.282671
-12.282672
-12.282675
-12.282679
-12.282684
-12.282686
-12.282686
-12.282686
-12.282685
-12.282685
-12.282685
-12.282686
-12.282687
-12.282689
-12.28269
-12.282703
-12.282703
-12.282703
-12.282702
-12.282701
-12.282701
-12.2827
-12.282701
-12.282702
-12.28272
-12.28272
-12.282719
-12.282718
-12.282717
-12.282716
-12.282715
-12.282715
-12.282715
-12.282736
-12.282735
-12.282735
-12.282734
-12.282732
-12.282731
-12.282728
-12.282727
-12.282726
-12.28275
-12.28275
-12.282749
-12.282748
-12.282746
-12.282744
-12.282741
-12.282738
-12.282736
-12.282763
-12.282763
-12.282762
-12.282761
-12.282759
-12.282756
-12.282752
-12.282748
-12.282744
-12.282774
-12.282774
-12.282773
-12.282772
-12.28277
-12.282766
-12.282761
-12.282756
-12.282751
-12.282783
-12.282783
-12.282782
-12.282781
-12.282779
-12.282775
-12.282769
-12.282763
-12.282757
-12.28279
-12.28279
-12.282789
-12.282788
-12.282786
-12.282782
-12.282775
-12.282768
-12.282761
-12.282795
-12.282795
-12.282794
-12.282793
-12.282791
-12.282786
-12.282779
-12.282771
-12.282764
-12.282797
-12.282797
-12.282796
-12.282795
-12.282793
-12.282788
-12.282781
-12.282773
-12.282765
-12.282797
-12.282797
-12.282796
-12.282795
-12.282793
-12.282788
-12.282781
-12.282773
-12.282765
-12.282795
-12.282794
-12.282794
-12.282793
-12.28279
-12.282786
-12.282779
-12.282771
-12.282763
-12.28279
-12.282789
-12.282789
-12.282788
-12.282786
-12.282782
-12.282775
-12.282767
-12.282759
-12.282783
-12.282782
-12.282782
-12.282781
-12.282779
-12.282775
-12.282769
-12.282762
-12.282755
-12.282774
-12.282773
-12.282773
-12.282772
-12.28277
-12.282767
-12.282761
-12.282755
-12.282749
-12.282763
-12.282763
-12.282762
-12.282762
-12.28276
-12.282757
-12.282752
-12.282747
-12.282742
-12.282751
-12.282751
-12.28275
-12.28275
-12.282748
-12.282746
-12.282742
-12.282737
-12.282734
-12.282737
-12.282737
-12.282737
-12.282737
-12.282735
-12.282733
-12.28273
-12.282727
-12.282724
-12.282723
-12.282723
-12.282723
-12.282723
-12.282722
-12.28272
-12.282718
-12.282716
-12.282714
-12.282708
-12.282708
-12.282708
-12.282708
-12.282707
-12.282706
-12.282705
-12.282704
-12.282703
-12.282692
-12.282692
-12.282692
-12.282692
-12.282693
-12.282693
-12.282693
-12.282694
-12.282692
-12.282677
-12.282677
-12.282677
-12.282678
-12.28268
-12.282683
-12.282686
-12.282691
-12.282691
-11.30006
-11.30006
-11.30006
-11.30006
-11.300061
-11.300063
-11.300065
-11.300068
-11.300069
-11.300069
-11.300068
-11.300068
-11.300068
-11.300069
-11.300069
-11.30007
-11.300071
-11.300072
-11.300078
-11.300078
-11.300078
-11.300077
-11.300077
-11.300077
-11.300077
-11.300077
-11.300078
-11.300087
-11.300087
-11.300086
-11.300086
-11.300086
-11.300085
-11.300085
-11.300085
-11.300085
-11.300095
-11.300095
-11.300095
-11.300094
-11.300094
-11.300093
-11.300092
-11.300092
-11.300092
-11.300104
-11.300103
-11.300103
-11.300102
-11.300101
-11.300101
-11.3001
-11.300099
-11.300098
-11.300111
-11.30011
-11.30011
-11.300109
-11.300109
-11.300108
-11.300107
-11.300106
-11.300105
-11.300117
-11.300117
-11.300116
-11.300116
-11.300115
-11.300114
-11.300113
-11.300112
-11.30011
-11.300123
-11.300122
-11.300122
-11.300121
-11.30012
-11.30012
-11.300119