/*--------------------------------*- C++ -*----------------------------------*\
| =========                 |                                                 |
| \\      /  F ield         | OpenFOAM: The Open Source CFD Toolbox           |
|  \\    /   O peration     | Version:  2406                                  |
|   \\  /    A nd           | Website:  www.openfoam.com                      |
|    \\/     M anipulation  |                                                 |
\*---------------------------------------------------------------------------*/
FoamFile
{
    version     2.0;
    format      ascii;
    arch        "LSB;label=32;scalar=64";
    class       volVectorField;
    location    "4.25";
    object      U;
}
// * * * * * * * * * * * * * * * * * * * * * * * * * * * * * * * * * * * * * //

dimensions      [0 1 -1 0 0 0 0];

internalField   nonuniform List<vector> 
34560
(
(0.045959278 0.0014129607 -0.010811942)
(0.15153145 0.0052245964 -0.035901422)
(0.28703772 0.009517871 -0.066545868)
(0.44923228 0.014877989 -0.1011744)
(0.62763806 0.020103005 -0.13456999)
(0.80484016 0.024100855 -0.16034726)
(0.95856787 0.02630183 -0.17338135)
(1.0736214 0.026832191 -0.17267295)
(1.1519075 0.027437571 -0.16209656)
(0.056849902 0.0012386426 -0.013026592)
(0.18451631 0.0049457233 -0.042891021)
(0.34382508 0.0091550797 -0.07832099)
(0.52767507 0.014600216 -0.11681333)
(0.72106505 0.019930013 -0.15175386)
(0.90355172 0.023986582 -0.17569666)
(1.0525805 0.0263133 -0.18393774)
(1.1564526 0.027329132 -0.17719677)
(1.2233534 0.028107041 -0.15982057)
(0.068023305 0.0012920245 -0.014828256)
(0.21764118 0.0052459743 -0.048680436)
(0.39953432 0.0096193908 -0.088005412)
(0.60241251 0.01511225 -0.12952093)
(0.80717392 0.020216999 -0.16559731)
(0.9916347 0.023762514 -0.18796457)
(1.1342806 0.025481701 -0.1926173)
(1.2274196 0.026120211 -0.18173933)
(1.284298 0.026256969 -0.16131099)
(0.07963911 0.0012163238 -0.016577517)
(0.25133693 0.0051960117 -0.054219717)
(0.45494559 0.0096058881 -0.097051551)
(0.67486283 0.015083482 -0.14102765)
(0.88840933 0.019954728 -0.17773072)
(1.0727913 0.023054044 -0.19830991)
(1.2083749 0.024296709 -0.1997518)
(1.2914999 0.024679348 -0.18574418)
(1.3391216 0.024614358 -0.16316587)
(0.09105383 0.0011879278 -0.018116246)
(0.28402196 0.0052077378 -0.059135456)
(0.50797088 0.0096229145 -0.10499702)
(0.7430853 0.014984225 -0.15098232)
(0.9636518 0.01952772 -0.18807815)
(1.1469452 0.022181199 -0.20694118)
(1.275487 0.023051599 -0.20559411)
(1.3494712 0.02326566 -0.18909614)
(1.3885978 0.023077146 -0.16499003)
(0.10201431 0.0011314025 -0.019442686)
(0.31501555 0.0050387555 -0.063412098)
(0.55762125 0.0093141684 -0.11187141)
(0.80606225 0.014405804 -0.15951186)
(1.0322212 0.01854888 -0.19686138)
(1.2138926 0.020796275 -0.21415035)
(1.3356983 0.021405926 -0.21038138)
(1.4015044 0.021498318 -0.19188707)
(1.432962 0.021262966 -0.16661934)
(0.11231772 0.001034032 -0.020607251)
(0.3437652 0.0046810897 -0.067151976)
(0.60308483 0.0086708297 -0.117816)
(0.86294031 0.0133514 -0.16678775)
(1.0934783 0.017025871 -0.20424468)
(1.2732776 0.018887609 -0.22008502)
(1.3889115 0.019295154 -0.21422837)
(1.4474465 0.019293929 -0.19410304)
(1.4720901 0.019063618 -0.16791125)
(0.12140832 0.0008910665 -0.021584916)
(0.36894645 0.0041173458 -0.070305967)
(0.64262989 0.00765665 -0.12279713)
(0.91205162 0.011764302 -0.17283414)
(1.1461247 0.014894836 -0.21031581)
(1.3242293 0.016389984 -0.22487823)
(1.4345942 0.016650392 -0.21725472)
(1.4868535 0.016599864 -0.19578047)
(1.5056108 0.016419442 -0.16881786)
(0.12896418 0.00072516723 -0.022364343)
(0.38977203 0.0034014599 -0.072841705)
(0.67519015 0.0063401804 -0.12679059)
(0.95231438 0.0097166827 -0.17766174)
(1.1892396 0.012223677 -0.21511952)
(1.3660086 0.013359281 -0.2286016)
(1.4721448 0.013511061 -0.21952331)
(1.5192044 0.013444586 -0.19695103)
(1.5330936 0.013329555 -0.16935491)
(0.13480936 0.00053886776 -0.022943395)
(0.40582434 0.0025372399 -0.074743279)
(0.70019777 0.0047295852 -0.12978534)
(0.98312076 0.0072285261 -0.18127754)
(1.2222189 0.0090484226 -0.21867976)
(1.3980041 0.0098436181 -0.23129998)
(1.5009544 0.0099312578 -0.22108771)
(1.5439779 0.0098816236 -0.19767293)
(1.5541231 0.0098309195 -0.16959884)
(0.13899645 0.00030847313 -0.023359505)
(0.41714516 0.0015059565 -0.076077534)
(0.71759142 0.0028407484 -0.13184799)
(1.004274 0.0043735685 -0.18372938)
(1.2447068 0.0054890618 -0.22102604)
(1.4197198 0.005978583 -0.23301226)
(1.5204629 0.0060409098 -0.22200917)
(1.5607026 0.0060253028 -0.19802898)
(1.5683071 0.0060204404 -0.1696494)
(0.14093817 0.00011421152 -0.023550901)
(0.42249112 0.00055507664 -0.076716257)
(0.72593136 0.0010360022 -0.13284334)
(1.0145537 0.0015740447 -0.18491838)
(1.2557608 0.0019471811 -0.22216629)
(1.4304963 0.0020914119 -0.23383707)
(1.5302092 0.0020867399 -0.22243599)
(1.5690805 0.0020601405 -0.19817381)
(1.5754272 0.002044776 -0.16964787)
(0.14093817 -0.00011420851 -0.023550907)
(0.42249112 -0.00055509898 -0.076716276)
(0.72593137 -0.0010360676 -0.13284338)
(1.0145537 -0.001574116 -0.18491841)
(1.2557607 -0.0019473201 -0.22216629)
(1.4304963 -0.002091595 -0.23383708)
(1.5302092 -0.0020869644 -0.22243599)
(1.5690805 -0.002060449 -0.19817377)
(1.5754272 -0.0020451489 -0.16964781)
(0.13899645 -0.00030845936 -0.023359519)
(0.41714515 -0.001505964 -0.076077514)
(0.71759142 -0.0028407991 -0.13184805)
(1.004274 -0.0043736227 -0.1837294)
(1.2447067 -0.0054891739 -0.22102603)
(1.4197197 -0.005978765 -0.23301227)
(1.5204629 -0.0060411756 -0.22200913)
(1.5607025 -0.0060256241 -0.19802889)
(1.568307 -0.0060207846 -0.16964931)
(0.13480935 -0.00053887488 -0.022943423)
(0.4058243 -0.0025372413 -0.074743201)
(0.70019773 -0.0047296018 -0.12978543)
(0.98312069 -0.0072285448 -0.18127759)
(1.2222189 -0.0090484859 -0.21867977)
(1.3980041 -0.0098437762 -0.23129997)
(1.5009544 -0.0099315234 -0.22108763)
(1.5439778 -0.0098819155 -0.19767281)
(1.554123 -0.009831218 -0.16959881)
(0.12896418 -0.00072516873 -0.022364388)
(0.38977201 -0.0034014121 -0.072841736)
(0.67519015 -0.0063401009 -0.12679075)
(0.95231438 -0.0097166577 -0.17766181)
(1.1892396 -0.012223716 -0.21511952)
(1.3660086 -0.013359407 -0.22860152)
(1.4721447 -0.01351124 -0.2195232)
(1.5192043 -0.013444796 -0.1969509)
(1.5330936 -0.013329812 -0.16935491)
(0.12140832 -0.00089107434 -0.021584904)
(0.36894645 -0.0041173654 -0.070306007)
(0.6426299 -0.0076566182 -0.12279708)
(0.91205159 -0.011764351 -0.17283395)
(1.1461247 -0.014894929 -0.21031571)
(1.3242293 -0.016390086 -0.22487813)
(1.4345942 -0.016650451 -0.21725464)
(1.4868535 -0.016599986 -0.19578032)
(1.5056108 -0.016419649 -0.16881776)
(0.11231771 -0.0010340192 -0.02060719)
(0.34376519 -0.0046811798 -0.067152057)
(0.60308481 -0.0086708979 -0.11781584)
(0.86294021 -0.013351461 -0.16678755)
(1.0934783 -0.017025959 -0.20424473)
(1.2732775 -0.018887669 -0.22008507)
(1.3889115 -0.019295174 -0.21422833)
(1.4474465 -0.019294003 -0.19410284)
(1.47209 -0.019063751 -0.16791105)
(0.1020143 -0.0011313717 -0.019442686)
(0.31501552 -0.0050387319 -0.063412086)
(0.5576212 -0.009314159 -0.11187138)
(0.80606216 -0.014405705 -0.15951198)
(1.0322212 -0.018548883 -0.19686157)
(1.2138926 -0.020796251 -0.21415043)
(1.3356984 -0.021405969 -0.21038127)
(1.4015044 -0.021498375 -0.19188683)
(1.4329619 -0.021263059 -0.16661917)
(0.091053823 -0.0011878976 -0.01811624)
(0.28402193 -0.0052077505 -0.059135543)
(0.50797084 -0.0096229797 -0.10499726)
(0.74308527 -0.014984206 -0.15098247)
(0.96365172 -0.019527745 -0.18807816)
(1.1469451 -0.022181283 -0.20694114)
(1.275487 -0.023051633 -0.20559388)
(1.3494712 -0.023265741 -0.18909584)
(1.3885977 -0.023077262 -0.16498977)
(0.079639107 -0.0012162961 -0.016577522)
(0.25133692 -0.0051960135 -0.054219801)
(0.45494556 -0.0096059103 -0.097051639)
(0.67486279 -0.015083564 -0.14102767)
(0.88840924 -0.019954759 -0.17773073)
(1.0727913 -0.023054131 -0.1983099)
(1.2083749 -0.024296643 -0.19975163)
(1.2915 -0.024679536 -0.1857437)
(1.3391216 -0.02461462 -0.16316549)
(0.068023309 -0.0012920153 -0.01482828)
(0.21764119 -0.0052459658 -0.048680499)
(0.39953435 -0.0096193861 -0.088005498)
(0.60241256 -0.015112303 -0.12952107)
(0.80717402 -0.02021703 -0.16559743)
(0.9916348 -0.023762515 -0.1879646)
(1.1342806 -0.025481648 -0.19261677)
(1.2274197 -0.026120017 -0.18173862)
(1.2842979 -0.026256911 -0.16131115)
(0.056849917 -0.0012386472 -0.013026598)
(0.18451635 -0.0049457517 -0.042891026)
(0.34382516 -0.0091551056 -0.078320969)
(0.52767518 -0.014600251 -0.1168133)
(0.72106518 -0.01993012 -0.15175373)
(0.90355185 -0.023986713 -0.17569623)
(1.0525806 -0.026313373 -0.18393718)
(1.1564528 -0.027328463 -0.17719676)
(1.2233534 -0.028106403 -0.15982074)
(0.045959299 -0.0014129788 -0.010811916)
(0.15153152 -0.0052246634 -0.035901342)
(0.28703784 -0.0095179639 -0.066545727)
(0.44923246 -0.014878051 -0.10117412)
(0.62763825 -0.020103046 -0.13456946)
(0.80484038 -0.024101005 -0.16034679)
(0.95856817 -0.026301986 -0.17338156)
(1.0736215 -0.026831861 -0.17267304)
(1.1519075 -0.027437126 -0.16209659)
(0.018585227 0.0018102233 0.0014257599)
(0.0753856 0.0047982307 0.0029330071)
(0.17046581 0.0068983993 0.00088439777)
(0.31417117 0.0063234895 -0.0075166175)
(0.50493376 0.0014728677 -0.023658276)
(0.72086464 -0.007720072 -0.04530036)
(0.92682381 -0.019167817 -0.065838469)
(1.094133 -0.029788515 -0.079682176)
(1.2044353 -0.037001823 -0.085184108)
(0.021991889 0.0018538506 0.0011978302)
(0.089442726 0.0045637937 0.0018970676)
(0.20180904 0.0058500625 -0.0019818168)
(0.36864584 0.0037614171 -0.013479095)
(0.58242496 -0.0029983796 -0.033216804)
(0.81150278 -0.013694012 -0.057310662)
(1.0158039 -0.025466499 -0.077462298)
(1.1712605 -0.035197899 -0.088553604)
(1.2696581 -0.040820466 -0.090167323)
(0.025241135 0.0021479812 0.0011163655)
(0.10290965 0.0050945494 0.0013101805)
(0.23182683 0.0061691028 -0.004036217)
(0.42036991 0.0032939911 -0.018024247)
(0.65434784 -0.0044190979 -0.040294292)
(0.89234955 -0.015484747 -0.065588694)
(1.0913515 -0.026650313 -0.084606547)
(1.233758 -0.035241564 -0.093181278)
(1.3217233 -0.039822179 -0.092175836)
(0.028834867 0.0023034311 0.00090758864)
(0.11718693 0.0053281575 0.00041609564)
(0.26270645 0.0062100384 -0.0064964387)
(0.47219302 0.0028460692 -0.022836957)
(0.72446857 -0.0052446527 -0.047067131)
(0.9689213 -0.016036199 -0.072819374)
(1.1611659 -0.026171657 -0.090296171)
(1.2905076 -0.033533098 -0.096609338)
(1.3682907 -0.03737462 -0.093672719)
(0.032447459 0.002370539 0.00065869542)
(0.13135122 0.0053910012 -0.00053316713)
(0.2930013 0.0061241857 -0.0089072858)
(0.52243564 0.0025321687 -0.027312036)
(0.79139181 -0.0054902264 -0.053006924)
(1.0409384 -0.015592386 -0.078873843)
(1.226333 -0.024521013 -0.094870149)
(1.3433722 -0.03066237 -0.09938914)
(1.4111932 -0.033808467 -0.095176654)
(0.036043292 0.0023472273 0.0003703424)
(0.14520691 0.005283702 -0.0015301713)
(0.32222319 0.0059048046 -0.011217245)
(0.57023806 0.0023266902 -0.031320931)
(0.85397524 -0.0052440265 -0.057939377)
(1.1075595 -0.014351973 -0.083626862)
(1.2867725 -0.021971286 -0.098497271)
(1.392738 -0.026968453 -0.10167309)
(1.451196 -0.029507053 -0.096784669)
(0.039672778 0.0022080167 6.9737643e-05)
(0.15875845 0.0049249111 -0.0025179438)
(0.35013674 0.0054271412 -0.013377798)
(0.61501452 0.0020539121 -0.034883552)
(0.9115028 -0.0047709934 -0.062092879)
(1.16811 -0.01268247 -0.087430803)
(1.3418114 -0.018968918 -0.10137181)
(1.4382438 -0.022929269 -0.10355998)
(1.4883479 -0.024971242 -0.098373118)
(0.042981936 0.0019653324 -0.00021887735)
(0.17099741 0.004352953 -0.003427579)
(0.37514305 0.0047451606 -0.01527213)
(0.6548234 0.001745456 -0.037872106)
(0.96216388 -0.0041157544 -0.065418481)
(1.2211786 -0.010723925 -0.09034878)
(1.3901757 -0.015779075 -0.10338865)
(1.4789336 -0.018845189 -0.10497837)
(1.5219824 -0.020474835 -0.099577553)
(0.045789149 0.0016267094 -0.0004769555)
(0.18134729 0.0035834598 -0.0042146255)
(0.39623224 0.0038723746 -0.016842078)
(0.68830808 0.0013868773 -0.040243061)
(1.0045629 -0.0033455821 -0.067934071)
(1.2655169 -0.0085846632 -0.092422624)
(1.4307565 -0.012509148 -0.10466473)
(1.5136002 -0.014814925 -0.10581484)
(1.5509341 -0.016035687 -0.1000366)
(0.048005832 0.0012185849 -0.00068584958)
(0.18951449 0.0026748799 -0.0048355767)
(0.41283877 0.0028711182 -0.018036771)
(0.71456814 0.0010084466 -0.04196168)
(1.0376629 -0.002472326 -0.069681802)
(1.3000412 -0.0062865921 -0.093738705)
(1.4624113 -0.00912369 -0.10526656)
(1.5408779 -0.010760563 -0.10587934)
(1.573844 -0.011572941 -0.099651562)
(0.049809849 0.00075853708 -0.00083487806)
(0.19582837 0.0016620231 -0.0052731177)
(0.42517526 0.0017753629 -0.018859455)
(0.73344813 0.00062155258 -0.043088491)
(1.0608594 -0.0015066298 -0.070770245)
(1.3238711 -0.0038272458 -0.094455323)
(1.4841234 -0.0055550416 -0.10544023)
(1.5596074 -0.0065458129 -0.10556843)
(1.5895872 -0.0070059839 -0.098982468)
(0.050542253 0.00024101904 -0.00090765547)
(0.19858746 0.00051627864 -0.0054824067)
(0.43085332 0.00053377945 -0.019243759)
(0.74247581 0.00013353858 -0.043606137)
(1.0722256 -0.00058139073 -0.071252955)
(1.3357143 -0.0013483549 -0.094737592)
(1.4950015 -0.0019088674 -0.10543431)
(1.5690413 -0.0022193675 -0.10529278)
(1.5975345 -0.0023516708 -0.098533326)
(0.050542251 -0.000241004 -0.00090765571)
(0.19858745 -0.00051625143 -0.0054824201)
(0.43085331 -0.00053375933 -0.019243779)
(0.74247579 -0.00013355762 -0.043606157)
(1.0722255 0.00058128739 -0.071252972)
(1.3357142 0.0013481681 -0.094737601)
(1.4950015 0.0019086157 -0.1054343)
(1.5690413 0.0022190523 -0.10529274)
(1.5975344 0.0023513345 -0.098533281)
(0.049809842 -0.00075850946 -0.00083487967)
(0.19582834 -0.001661977 -0.0052731358)
(0.42517522 -0.0017753216 -0.0188595)
(0.73344805 -0.00062154469 -0.043088531)
(1.0608593 0.0015065507 -0.070770275)
(1.323871 0.00382706 -0.094455329)
(1.4841233 0.0055547764 -0.10544018)
(1.5596072 0.0065455013 -0.10556834)
(1.589587 0.0070056774 -0.098982369)
(0.048005821 -0.0012185572 -0.00068585598)
(0.18951445 -0.0026748287 -0.0048355784)
(0.41283871 -0.0028710645 -0.018036833)
(0.71456804 -0.0010084177 -0.041961735)
(1.0376628 0.002472274 -0.069681831)
(1.300041 0.0062864171 -0.093738682)
(1.4624112 0.0091234314 -0.10526649)
(1.5408776 0.01076028 -0.10587921)
(1.5738437 0.011572674 -0.099651483)
(0.045789142 -0.0016266865 -0.00047697454)
(0.18134727 -0.0035834008 -0.0042146521)
(0.39623219 -0.0038722934 -0.016842174)
(0.688308 -0.0013868286 -0.040243127)
(1.0045628 0.0033455493 -0.067934083)
(1.2655167 0.008584519 -0.092422562)
(1.4307563 0.012508941 -0.10466462)
(1.5135999 0.014814696 -0.10581469)
(1.5509338 0.016035437 -0.10003657)
(0.042981928 -0.0019653103 -0.00021889385)
(0.17099738 -0.0043529072 -0.0034276496)
(0.375143 -0.0047450835 -0.0152722)
(0.6548233 -0.0017454237 -0.037872104)
(0.96216377 0.0041157187 -0.065418453)
(1.2211785 0.01072383 -0.090348707)
(1.3901755 0.015778949 -0.10338855)
(1.4789334 0.018845022 -0.10497819)
(1.5219822 0.020474591 -0.099577486)
(0.039672771 -0.0022079879 6.9733061e-05)
(0.15875842 -0.0049248905 -0.002518036)
(0.35013667 -0.0054270989 -0.013377816)
(0.61501438 -0.0020538837 -0.034883543)
(0.91150267 0.0047709742 -0.062092921)
(1.1681099 0.012682432 -0.087430789)
(1.3418113 0.018968852 -0.10137169)
(1.4382437 0.022929152 -0.10355973)
(1.4883477 0.024971036 -0.098372952)
(0.036043284 -0.0023471944 0.00037033477)
(0.14520688 -0.0052836665 -0.0015302328)
(0.32222313 -0.0059047507 -0.011217304)
(0.57023795 -0.0023266015 -0.031321059)
(0.85397514 0.0052440579 -0.057939501)
(1.1075594 0.014351987 -0.083626847)
(1.2867724 0.021971249 -0.098497075)
(1.392738 0.026968369 -0.10167275)
(1.4511958 0.029506918 -0.096784438)
(0.032447455 -0.0023704944 0.0006586714)
(0.1313512 -0.0053909511 -0.00053330514)
(0.29300127 -0.0061241308 -0.0089075216)
(0.52243558 -0.0025320833 -0.027312249)
(0.79139172 0.0054902771 -0.053007001)
(1.0409383 0.015592416 -0.078873757)
(1.226333 0.024521032 -0.094869854)
(1.3433722 0.030662318 -0.099388714)
(1.4111931 0.033808402 -0.095176349)
(0.02883487 -0.0023033819 0.00090755164)
(0.11718693 -0.0053280908 0.00041594854)
(0.26270645 -0.0062099533 -0.006496624)
(0.47219301 -0.0028460052 -0.022837097)
(0.72446852 0.0052447187 -0.047067179)
(0.96892126 0.016036272 -0.072819272)
(1.1611659 0.026171818 -0.090295835)
(1.2905076 0.033533198 -0.096608837)
(1.3682907 0.037374603 -0.09367233)
(0.025241145 -0.0021479401 0.0011163325)
(0.10290968 -0.0050944915 0.0013100698)
(0.23182688 -0.0061690156 -0.0040363453)
(0.42036998 -0.0032939242 -0.018024391)
(0.65434792 0.0044191694 -0.04029437)
(0.89234963 0.015484872 -0.06558864)
(1.0913516 0.026650629 -0.084606218)
(1.2337581 0.035242099 -0.09318072)
(1.3217233 0.039822297 -0.092175324)
(0.021991907 -0.0018538199 0.0011978041)
(0.089442778 -0.0045637563 0.0018969884)
(0.20180913 -0.0058500039 -0.0019819059)
(0.36864597 -0.0037613713 -0.013479192)
(0.58242511 0.0029983778 -0.033216841)
(0.81150292 0.013694017 -0.057310606)
(1.0158041 0.025466712 -0.077462092)
(1.1712607 0.035198628 -0.088552821)
(1.2696582 0.040821039 -0.090166485)
(0.018585249 -0.0018102213 0.0014257581)
(0.075385668 -0.0047982451 0.0029329989)
(0.17046593 -0.0068984357 0.00088438915)
(0.31417133 -0.0063235513 -0.0075165755)
(0.50493393 -0.0014729685 -0.023658117)
(0.72086481 0.0077199594 -0.045300189)
(0.92682401 0.019167933 -0.065838265)
(1.0941331 0.029789127 -0.079681264)
(1.2044354 0.037002347 -0.08518324)
(0.01096487 0.00035815532 0.00027525824)
(0.05061483 0.00087780176 0.00045250175)
(0.12558947 0.0010173683 -0.00042552068)
(0.25033108 -4.6597629e-05 -0.0034809139)
(0.43132267 -0.0037677566 -0.010063277)
(0.65497649 -0.011601861 -0.020831467)
(0.88283722 -0.023188708 -0.034388601)
(1.0717257 -0.035043681 -0.046035578)
(1.1960981 -0.043665863 -0.052287599)
(0.0114653 3.36286e-05 -3.6027032e-05)
(0.055413591 -0.0001550718 -0.00053350636)
(0.14058543 -0.00085706496 -0.00230665)
(0.28253928 -0.0028869204 -0.0065709829)
(0.48517199 -0.0077601699 -0.014712928)
(0.7272443 -0.016862374 -0.027104633)
(0.96183264 -0.02925832 -0.041402988)
(1.1445771 -0.040744247 -0.052279258)
(1.2595575 -0.047927929 -0.056772965)
(0.011524937 -0.00015066564 -0.00018124448)
(0.05867066 -0.00077783539 -0.0010363945)
(0.1524845 -0.0020230824 -0.003372082)
(0.30947654 -0.0046634986 -0.00846977)
(0.53079473 -0.010167602 -0.017685502)
(0.78752701 -0.019711483 -0.031052361)
(1.0253132 -0.031906101 -0.045419685)
(1.2010375 -0.042414502 -0.055133034)
(1.3083191 -0.048324811 -0.057818259)
(0.011788152 -0.00032564068 -0.00028800509)
(0.062318414 -0.0013416929 -0.0014046718)
(0.16457013 -0.0030268831 -0.0041916229)
(0.3357549 -0.0061099333 -0.0099947783)
(0.57415746 -0.012000203 -0.020096535)
(0.8435243 -0.021664521 -0.034189175)
(1.0826584 -0.033292166 -0.048241759)
(1.2509335 -0.042676007 -0.056542552)
(1.3507242 -0.047488814 -0.057594361)
(0.012137201 -0.00042130035 -0.00032346387)
(0.066057631 -0.0016705726 -0.001554008)
(0.17646633 -0.0036314743 -0.0046346305)
(0.36118341 -0.0069860015 -0.010991754)
(0.61567866 -0.013064446 -0.021835339)
(0.89659436 -0.022613114 -0.036448452)
(1.136257 -0.033448057 -0.049958259)
(1.297075 -0.041629861 -0.056869357)
(1.389269 -0.045396217 -0.056551086)
(0.012660424 -0.00045747571 -0.00031798989)
(0.070110304 -0.0018057347 -0.0015731098)
(0.18847855 -0.0038825848 -0.0048499415)
(0.38613278 -0.0073251496 -0.011646618)
(0.65600449 -0.01334691 -0.023147696)
(0.94727266 -0.022449201 -0.038008047)
(1.1868223 -0.032285052 -0.050649701)
(1.3404468 -0.039234632 -0.056275755)
(1.4250848 -0.042077294 -0.054827332)
(0.013461679 -0.00046172548 -0.00029874016)
(0.074695421 -0.0018190858 -0.0015378666)
(0.20079331 -0.0038875828 -0.0049421135)
(0.41055184 -0.0072442097 -0.012056825)
(0.69461178 -0.012941351 -0.024016392)
(0.99498163 -0.021247902 -0.038862781)
(1.2340184 -0.029871621 -0.050482391)
(1.3809091 -0.035601556 -0.054928664)
(1.4582689 -0.037649582 -0.052562667)
(0.014307439 -0.00043045957 -0.00026837381)
(0.079135458 -0.0017015599 -0.0014572046)
(0.2122998 -0.0036334466 -0.0049205411)
(0.4329824 -0.0067260427 -0.012233437)
(0.72976509 -0.011836551 -0.024456702)
(1.0381424 -0.019040969 -0.039089809)
(1.2767148 -0.026249568 -0.049784048)
(1.4175539 -0.030816082 -0.053073747)
(1.48824 -0.032215125 -0.05007804)
(0.015089639 -0.00036785019 -0.00023425376)
(0.083074951 -0.0014634319 -0.0013551136)
(0.22234209 -0.003132673 -0.0048258075)
(0.45246788 -0.0057822996 -0.012244124)
(0.76008072 -0.010060644 -0.0245699)
(1.0752369 -0.015910007 -0.038890368)
(1.3134255 -0.021562463 -0.048743591)
(1.44917 -0.025014206 -0.051064233)
(1.5141287 -0.025934529 -0.047809488)
(0.015762357 -0.00027947275 -0.00020250467)
(0.086346695 -0.0011212625 -0.0012542668)
(0.23054426 -0.0024115324 -0.0047029473)
(0.46827097 -0.0044495014 -0.012167882)
(0.78442674 -0.0076799942 -0.024486776)
(1.1048449 -0.01198247 -0.03848396)
(1.342667 -0.016013008 -0.047675147)
(1.4744568 -0.018397731 -0.049420965)
(1.5348767 -0.018982737 -0.046123638)
(0.01644785 -0.00017574248 -0.00017987406)
(0.089195465 -0.00070719503 -0.0011801909)
(0.23706693 -0.0015252135 -0.0046053013)
(0.48013841 -0.002811933 -0.012085371)
(0.80202289 -0.0048226421 -0.024357254)
(1.1257507 -0.0074485983 -0.038085095)
(1.3630527 -0.0098529557 -0.046797835)
(1.4920499 -0.011244295 -0.048229886)
(1.5493153 -0.011569054 -0.04495996)
(0.016666597 -6.2981583e-05 -0.00016781883)
(0.090303238 -0.00024995506 -0.0011388962)
(0.23989881 -0.00053166248 -0.0045433895)
(0.48567306 -0.00096955864 -0.012018477)
(0.81058272 -0.0016499416 -0.0242535)
(1.1361499 -0.0025322665 -0.037837258)
(1.3733099 -0.0033312652 -0.046308998)
(1.5009674 -0.0037865179 -0.047596296)
(1.5566582 -0.0038876699 -0.044336967)
(0.016666595 6.299758e-05 -0.00016781928)
(0.090303232 0.00024998518 -0.0011389054)
(0.2398988 0.00053169607 -0.0045433996)
(0.48567304 0.00096955506 -0.012018486)
(0.81058269 0.0016498548 -0.024253504)
(1.1361499 0.0025320732 -0.037837248)
(1.3733099 0.0033309896 -0.046308971)
(1.5009673 0.0037862027 -0.04759625)
(1.5566581 0.0038873634 -0.044336919)
(0.016447844 0.00017576381 -0.00017987522)
(0.089195446 0.00070723718 -0.0011802124)
(0.23706689 0.0015252641 -0.0046053261)
(0.48013834 0.0028119465 -0.012085392)
(0.8020228 0.0048225666 -0.02435726)
(1.1257505 0.00744841 -0.03808506)
(1.3630525 0.0098526834 -0.046797754)
(1.4920497 0.01124399 -0.048229754)
(1.5493151 0.011568768 -0.044959824)
(0.015762347 0.00027950003 -0.00020250805)
(0.086346666 0.0011213179 -0.0012543046)
(0.23054421 0.0024116034 -0.0047029862)
(0.46827088 0.0044495393 -0.012167913)
(0.78442662 0.0076799409 -0.024486778)
(1.1048447 0.011982301 -0.038483895)
(1.3426667 0.016012755 -0.047675012)
(1.4744565 0.018397453 -0.049420755)
(1.5348763 0.018982482 -0.046123429)
(0.015089631 0.00036788139 -0.00023426191)
(0.083074925 0.0014634933 -0.0013551696)
(0.22234204 0.0031327571 -0.0048258638)
(0.45246779 0.0057823601 -0.012244172)
(0.7600806 0.01006062 -0.024569899)
(1.0752367 0.015909875 -0.038890275)
(1.3134253 0.021562256 -0.048743407)
(1.4491697 0.02501398 -0.051063945)
(1.5141283 0.025934314 -0.047809207)
(0.01430743 0.00043049144 -0.0002683866)
(0.079135431 0.0017016179 -0.0014572772)
(0.21229975 0.0036335313 -0.004920621)
(0.43298232 0.006726117 -0.012233508)
(0.72976497 0.011836557 -0.024456706)
(1.0381422 0.019040891 -0.039089703)
(1.2767146 0.026249432 -0.049783827)
(1.4175536 0.030815935 -0.053073386)
(1.4882396 0.032214968 -0.050077686)
(0.01346167 0.0004617621 -0.00029876187)
(0.074695391 0.0018191486 -0.0015379624)
(0.20079326 0.0038876754 -0.0049422314)
(0.41055175 0.007244298 -0.012056943)
(0.69461167 0.012941383 -0.024016426)
(0.9949815 0.021247874 -0.038862682)
(1.2340182 0.029871557 -0.050482142)
(1.3809089 0.035601508 -0.054928234)
(1.4582686 0.037649507 -0.052562253)
(0.012660418 0.00045752046 -0.00031800905)
(0.070110282 0.0018058029 -0.0015732157)
(0.18847851 0.0038826857 -0.0048500789)
(0.38613272 0.0073252452 -0.011646764)
(0.65600441 0.013346956 -0.023147752)
(0.94727255 0.022449199 -0.038007954)
(1.1868222 0.032285039 -0.050649435)
(1.3404466 0.039234674 -0.056275265)
(1.4250845 0.042077312 -0.054826891)
(0.012137198 0.00042135266 -0.00032349274)
(0.06605762 0.0016706494 -0.0015541383)
(0.1764663 0.0036315881 -0.0046347991)
(0.36118336 0.0069861033 -0.010991936)
(0.61567859 0.013064499 -0.021835425)
(0.89659427 0.022613133 -0.036448373)
(1.1362569 0.033448078 -0.049957988)
(1.2970749 0.04162995 -0.056868808)
(1.3892688 0.045396303 -0.056550607)
(0.011788148 0.00032569839 -0.00028804055)
(0.062318403 0.0013417792 -0.0014048089)
(0.16457011 0.0030270079 -0.0041918015)
(0.33575487 0.0061100446 -0.0099949724)
(0.57415741 0.01200027 -0.020096642)
(0.84352423 0.021664569 -0.034189114)
(1.0826584 0.033292223 -0.048241449)
(1.2509334 0.042676105 -0.056541888)
(1.3507241 0.047488944 -0.057593778)
(0.011524932 0.00015071365 -0.0001812758)
(0.058670648 0.00077789895 -0.001036512)
(0.15248448 0.0020231759 -0.0033722354)
(0.30947651 0.0046635735 -0.0084699506)
(0.53079468 0.01016764 -0.017685608)
(0.78752694 0.019711538 -0.031052273)
(1.0253131 0.031906248 -0.045419279)
(1.2010375 0.042414702 -0.055132239)
(1.308319 0.048324959 -0.057817514)
(0.011465296 -3.3607031e-05 -3.604397e-05)
(0.055413577 0.00015507841 -0.00053357316)
(0.14058541 0.00085707144 -0.0023067345)
(0.28253925 0.0028868921 -0.0065710749)
(0.48517193 0.0077600966 -0.014712942)
(0.7272442 0.016862331 -0.027104465)
(0.96183255 0.029258488 -0.041402474)
(1.1445771 0.040744703 -0.052278297)
(1.2595575 0.04792836 -0.056772199)
(0.010964867 -0.00035815711 0.00027526085)
(0.050614821 -0.00087781999 0.00045250784)
(0.12558945 -0.0010174044 -0.00042551042)
(0.25033104 4.6532067e-05 -0.0034808712)
(0.43132261 0.0037676532 -0.010063152)
(0.65497641 0.011601791 -0.020831192)
(0.88283715 0.023188814 -0.034388037)
(1.0717257 0.035044106 -0.046034502)
(1.1960983 0.043666259 -0.052286975)
(0.015087178 0.00021847555 0.00021645544)
(0.063388405 0.00036504062 0.00044967355)
(0.14763102 -0.00013984916 0.00031155018)
(0.27999643 -0.0019488806 -0.00066240848)
(0.4644976 -0.0058470752 -0.0032184819)
(0.6874552 -0.012345018 -0.0081294782)
(0.91387962 -0.020821249 -0.014734421)
(1.1041403 -0.029566139 -0.021329593)
(1.229812 -0.036666333 -0.026205369)
(0.015754147 0.00017518215 0.00015593739)
(0.068383691 0.00014023123 0.00024039978)
(0.16214769 -0.00073833718 -0.00014913212)
(0.30976474 -0.0032392982 -0.0015808545)
(0.51257485 -0.0082459522 -0.0049407353)
(0.75051008 -0.016145608 -0.010995539)
(0.98149834 -0.025747985 -0.018638002)
(1.1650751 -0.03466356 -0.025503077)
(1.2822217 -0.040955717 -0.029942292)
(0.015906262 0.00019190009 0.0001438249)
(0.071542036 9.5157932e-05 0.00017145131)
(0.17290648 -0.0010149485 -0.00036784013)
(0.33310963 -0.0040091219 -0.0021223338)
(0.5509118 -0.0097821655 -0.0060769503)
(0.8001721 -0.018534115 -0.012997559)
(1.0327636 -0.028543185 -0.02127725)
(1.2091873 -0.037068857 -0.028194283)
(1.3193817 -0.042491323 -0.03201955)
(0.016212315 0.0001558604 9.5182614e-05)
(0.074888666 -7.4979362e-05 1.0566561e-05)
(0.18340726 -0.0014368987 -0.00071651102)
(0.35505208 -0.0048557584 -0.0027938777)
(0.5860853 -0.011206929 -0.0073048079)
(0.84474913 -0.020446004 -0.014864583)
(1.0779153 -0.030405963 -0.023419719)
(1.2475195 -0.038285636 -0.03010331)
(1.3511758 -0.04281413 -0.03316899)
(0.016545178 8.386651e-05 3.5844425e-05)
(0.078134237 -0.00033146041 -0.00017207733)
(0.19336605 -0.00195967 -0.0010775514)
(0.3756699 -0.00575024 -0.0034342572)
(0.6190313 -0.012536256 -0.0084571905)
(0.88623906 -0.021856746 -0.016240047)
(1.119831 -0.031404114 -0.024744563)
(1.2831187 -0.038436174 -0.030920032)
(1.3802118 -0.041959352 -0.033080467)
(0.017001713 -3.0518679e-05 -2.7961905e-05)
(0.081536289 -0.00068470648 -0.00034848136)
(0.20317006 -0.0025822387 -0.0013738485)
(0.39545393 -0.0066360151 -0.0038890526)
(0.65022592 -0.013477919 -0.0089732687)
(0.92538336 -0.022485843 -0.01668664)
(1.1593707 -0.031293074 -0.024836827)
(1.3167597 -0.037288085 -0.030260315)
(1.4072281 -0.039835305 -0.031572257)
(0.017700043 -0.00015865315 -7.4462609e-05)
(0.085371238 -0.0010492834 -0.00045447465)
(0.2131541 -0.0031500017 -0.0014893512)
(0.41467578 -0.0072687482 -0.0039419601)
(0.67964247 -0.013852271 -0.0088223479)
(0.96194508 -0.022172384 -0.016213058)
(1.1962483 -0.029939359 -0.023771089)
(1.3482345 -0.034806726 -0.02839883)
(1.4322382 -0.036459345 -0.029030355)
(0.018410354 -0.00025898142 -9.1430948e-05)
(0.088996096 -0.0013047179 -0.00046085255)
(0.22230643 -0.0034684392 -0.001402565)
(0.43202888 -0.0073947439 -0.0036080326)
(0.70604601 -0.013392229 -0.0081061517)
(0.99476668 -0.020690163 -0.014997157)
(1.2294677 -0.027189022 -0.021862005)
(1.3767304 -0.030908427 -0.025757045)
(1.4547411 -0.031810661 -0.025961223)
(0.019031805 -0.00030229131 -8.0555206e-05)
(0.092088474 -0.0013583752 -0.00037678712)
(0.23004197 -0.0033723696 -0.0011325177)
(0.44661646 -0.0068363659 -0.0029962036)
(0.72841708 -0.011927952 -0.0070254227)
(1.0227217 -0.017913545 -0.013343004)
(1.2578931 -0.023000526 -0.019528537)
(1.4012161 -0.025645589 -0.022843741)
(1.4739905 -0.02601687 -0.022912985)
(0.019543167 -0.00027883889 -5.2915758e-05)
(0.094576168 -0.0011849548 -0.00024638258)
(0.23619713 -0.0028271471 -0.00078904922)
(0.45815928 -0.0055506328 -0.0022971974)
(0.74611153 -0.0094384582 -0.0058570011)
(1.0448405 -0.013877925 -0.011629506)
(1.2803942 -0.017493822 -0.017253169)
(1.4206167 -0.019210774 -0.020200527)
(1.4891767 -0.019286498 -0.020342529)
(0.020097318 -0.00019691304 -2.3478726e-05)
(0.096806327 -0.00080999607 -0.00012093824)
(0.24114412 -0.0018866645 -0.00048366005)
(0.46681793 -0.0036294996 -0.0017041111)
(0.75884604 -0.0060678064 -0.0048929053)
(1.0603838 -0.0087938229 -0.010246208)
(1.2960043 -0.010942809 -0.015470226)
(1.4339854 -0.011892161 -0.018232222)
(1.4995912 -0.011860753 -0.018500372)
(0.02024288 -7.1042064e-05 -5.8931678e-06)
(0.097586344 -0.00028831514 -4.7939326e-05)
(0.24315675 -0.00066464057 -0.0003083112)
(0.47068835 -0.0012669514 -0.0013668433)