/*--------------------------------*- C++ -*----------------------------------*\
| =========                 |                                                 |
| \\      /  F ield         | OpenFOAM: The Open Source CFD Toolbox           |
|  \\    /   O peration     | Version:  2406                                  |
|   \\  /    A nd           | Website:  www.openfoam.com                      |
|    \\/     M anipulation  |                                                 |
\*---------------------------------------------------------------------------*/
FoamFile
{
    version     2.0;
    format      ascii;
    arch        "LSB;label=32;scalar=64";
    class       volScalarField;
    location    "5";
    object      p;
}
// * * * * * * * * * * * * * * * * * * * * * * * * * * * * * * * * * * * * * //

dimensions      [0 2 -2 0 0 0 0];

internalField   nonuniform List<scalar> 
1176
(
0.79683138
0.79685425
0.79687792
0.79688558
0.79685405
0.79675935
0.79660211
0.79641594
0.79623671
0.79606952
0.79591483
0.79581914
0.79581904
0.79591456
0.79606911
0.79623622
0.79641539
0.79660154
0.79675876
0.79685345
0.79688498
0.79687731
0.79685365
0.79683078
0.77368295
0.77363599
0.77358823
0.77357133
0.77363383
0.77383618
0.7742015
0.77466589
0.77509672
0.77538278
0.77550211
0.77553629
0.7755362
0.77550185
0.77538238
0.77509623
0.77466534
0.77420091
0.77383557
0.77363321
0.7735707
0.77358759
0.77363535
0.77368231
0.75659818
0.75662019
0.75663999
0.75663808
0.75657901
0.75641783
0.75614605
0.75581809
0.75551185
0.75529901
0.75518815
0.75513925
0.75513917
0.7551879
0.75529863
0.75551137
0.75581755
0.75614547
0.75641723
0.75657839
0.75663745
0.75663936
0.75661957
0.75659755
0.73992623
0.73993536
0.73994742
0.73996382
0.73998636
0.74000393
0.73997168
0.73983826
0.73960612
0.73933352
0.73910926
0.73898869
0.73898861
0.73910904
0.73933318
0.7396057
0.73983778
0.73997117
0.7400034
0.73998582
0.73996327
0.73994686
0.73993481
0.73992568
0.72350713
0.72351109
0.72351608
0.72352214
0.72353184
0.72355211
0.72358828
0.72362978
0.72365143
0.72362753
0.72356537
0.72351267
0.72351261
0.72356518
0.72362724
0.72365108
0.72362939
0.72358787
0.72355168
0.72353141
0.72352171
0.72351565
0.72351065
0.7235067
0.70704541
0.70704782
0.70705106
0.70705511
0.70706002
0.70706685
0.70708101
0.70711232
0.70716229
0.70721952
0.70726219
0.7072788
0.70727875
0.70726205
0.70721931
0.70716203
0.70711202
0.7070807
0.70706653
0.70705969
0.70705478
0.70705073
0.70704749
0.70704507
0.69063954
0.69064168
0.69064449
0.69064792
0.69065182
0.69065533
0.69065739
0.69065956
0.6906681
0.69068532
0.69070319
0.69071488
0.69071484
0.69070309
0.69068518
0.69066794
0.69065939
0.69065722
0.69065516
0.69065166
0.69064776
0.69064434
0.69064153
0.69063939
0.67425964
0.6742614
0.67426372
0.67426664
0.67427032
0.67427469
0.67427914
0.67428229
0.67428352
0.67428513
0.67428216
0.67427963
0.6742796
0.67428209
0.67428503
0.67428341
0.67428218
0.67427902
0.67427458
0.67427021
0.67426655
0.67426363
0.6742613
0.67425954
0.65790535
0.6579068
0.65790873
0.65791114
0.65791416
0.65791794
0.65792299
0.65793004
0.65793872
0.65794874
0.65795649
0.65796006
0.65796004
0.65795643
0.65794866
0.65793863
0.65792994
0.65792289
0.65791784
0.65791405
0.65791102
0.65790861
0.65790668
0.65790523
0.64156768
0.64156888
0.64157049
0.64157252
0.64157509
0.64157826
0.64158243
0.64158881
0.64159897
0.64161209
0.64162641
0.64163568
0.64163565
0.64162632
0.64161198
0.64159884
0.64158869
0.64158231
0.64157816
0.64157498
0.64157242
0.64157039
0.64156878
0.64156758
0.62524334
0.62524437
0.62524574
0.62524749
0.6252497
0.62525242
0.62525582
0.62526066
0.62526851
0.62527916
0.62529169
0.62530079
0.62530075
0.62529157
0.62527897
0.62526827
0.62526037
0.6252555
0.62525208
0.62524934
0.62524711
0.62524536
0.62524398
0.62524295
0.60892992
0.60893081
0.60893201
0.60893353
0.60893547
0.60893787
0.60894082
0.60894482
0.60895103
0.60895966
0.60897019
0.60897759
0.60897753
0.60897003
0.60895942
0.60895073
0.60894449
0.60894047
0.60893749
0.60893508
0.60893314
0.60893161
0.60893041
0.60892951
0.59262576
0.59262655
0.59262761
0.59262895
0.59263067
0.5926328
0.59263542
0.59263895
0.59264433
0.59265204
0.59266168
0.5926683
0.59266823
0.59266148
0.59265173
0.59264392
0.59263848
0.59263491
0.59263226
0.59263012
0.5926284
0.59262705
0.59262599
0.5926252
0.57632956
0.57633026
0.5763312
0.5763324
0.57633393
0.57633583
0.57633817
0.57634129
0.57634604
0.57635297
0.57636159
0.57636761
0.57636754
0.57636139
0.57635266
0.57634563
0.57634082
0.57633766
0.5763353
0.57633339
0.57633184
0.57633064
0.5763297
0.576329
0.56004026
0.56004089
0.56004174
0.56004282
0.5600442
0.56004591
0.560048
0.56005075
0.56005488
0.56006097
0.56006845
0.56007379
0.56007373
0.56006827
0.5600607
0.56005454
0.56005036
0.56004758
0.56004547
0.56004376
0.56004237
0.56004129
0.56004044
0.56003982
0.54375708
0.54375765
0.54375841
0.54375939
0.54376064
0.54376219
0.54376408
0.54376652
0.54377014
0.54377548
0.54378198
0.54378673
0.54378669
0.54378185
0.54377528
0.54376988
0.54376624
0.54376378
0.54376189
0.54376034
0.54375908
0.5437581
0.54375734
0.54375677
0.52747937
0.52747988
0.52748058
0.52748147
0.52748261
0.52748403
0.52748575
0.52748794
0.52749115
0.5274959
0.5275016
0.52750587
0.52750584
0.52750153
0.5274958
0.52749102
0.5274878
0.52748559
0.52748387
0.52748246
0.52748131
0.52748042
0.52747972
0.52747921
0.5112066
0.51120708
0.51120771
0.51120853
0.51120958
0.51121087
0.51121244
0.51121443
0.5112173
0.51122155
0.5112266
0.51123046
0.51123045
0.51122659
0.51122154
0.51121729
0.51121442
0.51121242
0.51121085
0.51120955
0.5112085
0.51120769
0.51120705
0.51120658
0.49493834
0.49493878
0.49493936
0.49494011
0.49494107
0.49494227
0.49494371
0.49494552
0.4949481
0.49495192
0.49495642
0.49495992
0.49495993
0.49495645
0.49495196
0.49494816
0.49494558
0.49494378
0.49494234
0.49494114
0.49494018
0.49493943
0.49493884
0.49493841
0.47867419
0.47867459
0.47867513
0.47867582
0.47867671
0.47867781
0.47867914
0.47868079
0.47868313
0.47868656
0.47869061
0.47869379
0.47869381
0.47869067
0.47868664
0.47868323
0.47868091
0.47867927
0.47867795
0.47867685
0.47867597
0.47867528
0.47867474
0.47867434
0.4624138
0.46241417
0.46241467
0.46241531
0.46241613
0.46241715
0.46241838
0.46241989
0.462422
0.46242511
0.46242878
0.46243167
0.4624317
0.46242886
0.46242523
0.46242215
0.46242006
0.46241856
0.46241734
0.46241632
0.4624155
0.46241486
0.46241437
0.462414
0.44615685
0.44615719
0.44615765
0.44615825
0.44615901
0.44615995
0.44616109
0.44616248
0.4461644
0.44616723
0.44617057
0.44617321
0.44617324
0.44617067
0.44616739
0.44616461
0.44616272
0.44616136
0.44616024
0.44615931
0.44615855
0.44615796
0.4461575
0.44615716
0.42990305
0.42990337
0.4299038
0.42990435
0.42990506
0.42990594
0.42990699
0.42990827
0.42991003
0.42991261
0.42991568
0.4299181
0.42991815
0.42991581
0.42991282
0.42991029
0.42990857
0.42990731
0.42990627
0.4299054
0.42990469
0.42990415
0.42990372
0.4299034
0.41365216
0.41365246
0.41365286
0.41365337
0.41365404
0.41365485
0.41365583
0.41365702
0.41365864
0.41366102
0.41366385
0.41366609
0.41366615
0.41366402
0.41366129
0.41365898
0.4136574
0.41365623
0.41365526
0.41365444
0.41365378
0.41365327
0.41365287
0.41365257
0.397404
0.39740428
0.39740465
0.39740513
0.39740575
0.39740651
0.39740743
0.39740854
0.39741003
0.39741223
0.39741486
0.39741694
0.39741701
0.39741507
0.39741255
0.39741042
0.39740897
0.39740789
0.39740699
0.39740623
0.39740562
0.39740514
0.39740477
0.39740449
0.3811584
0.38115865
0.381159
0.38115945
0.38116003
0.38116074
0.3811616
0.38116263
0.38116402
0.38116606
0.38116852
0.38117046
0.38117054
0.38116875
0.38116641
0.38116444
0.38116309
0.38116209
0.38116125
0.38116056
0.38116
0.38115956
0.38115921
0.38115895
0.36491519
0.36491543
0.36491576
0.36491617
0.36491671
0.36491738
0.36491818
0.36491915
0.36492044
0.36492234
0.36492464
0.36492644
0.36492653
0.36492488
0.36492271
0.36492088
0.36491963
0.36491869
0.3649179
0.36491724
0.36491671
0.36491629
0.36491597
0.36491573
0.34867423
0.34867445
0.34867476
0.34867515
0.34867565
0.34867628
0.34867702
0.34867792
0.34867913
0.34868091
0.34868305
0.34868473
0.34868481
0.34868329
0.34868127
0.34867958
0.34867841
0.34867754
0.3486768
0.34867618
0.34867568
0.34867528
0.34867498
0.34867475
0.33243535
0.33243556
0.33243584
0.33243621
0.33243668
0.33243726
0.33243796
0.33243881
0.33243994
0.33244159
0.33244358
0.33244514
0.33244522
0.33244382
0.33244193
0.33244035
0.33243925
0.33243841
0.33243771
0.33243712
0.33243664
0.33243628
0.33243599
0.33243578
0.31619841
0.3161986
0.31619887
0.31619921
0.31619965
0.3162002
0.31620086
0.31620166
0.31620272
0.31620425
0.31620608
0.3162075
0.31620758
0.3162063
0.31620458
0.31620312
0.3162021
0.31620131
0.31620066
0.31620012
0.31619969
0.31619935
0.31619909
0.31619889
0.29996325
0.29996343
0.29996368
0.29996399
0.29996441
0.29996493
0.29996556
0.29996633
0.29996733
0.29996873
0.29997039
0.29997165
0.29997171
0.29997058
0.29996902
0.29996769
0.29996673
0.29996599
0.2999654
0.29996492
0.29996454
0.29996424
0.29996401
0.29996383
0.28372969
0.28372986
0.28373009
0.28373039
0.28373078
0.28373128
0.28373189
0.28373264
0.28373358
0.28373484
0.2837363
0.28373739
0.28373745
0.28373647
0.2837351
0.28373391
0.28373301
0.28373229
0.28373169
0.28373121
0.28373083
0.28373054
0.28373032
0.28373015
0.26749753
0.26749769
0.26749791
0.26749819
0.26749857
0.26749906
0.26749966
0.26750039
0.26750127
0.26750238
0.26750362
0.26750451
0.26750457
0.26750377
0.26750261
0.26750158
0.26750076
0.26750007
0.26749948
0.26749899
0.26749861
0.26749831
0.26749809
0.26749793
0.25126649
0.25126664
0.25126685
0.25126712
0.25126749
0.25126798
0.25126859
0.25126932
0.25127015
0.25127111
0.25127211
0.25127282
0.25127287
0.25127225
0.25127131
0.2512704
0.25126962
0.25126895
0.25126836
0.25126788
0.2512675
0.25126722
0.25126701
0.25126685
0.23503629
0.23503643
0.23503664
0.23503691
0.23503728
0.23503778
0.23503841
0.23503914
0.23503993
0.23504076
0.23504155
0.2350421
0.23504215
0.23504168
0.23504097
0.23504017
0.2350394
0.23503869
0.23503807
0.23503758
0.2350372
0.23503693
0.23503673
0.23503659
0.21880667
0.21880682
0.21880702
0.2188073
0.21880769
0.21880821
0.21880886
0.21880962
0.21881039
0.2188111
0.21881173
0.21881215
0.21881218
0.21881183
0.21881128
0.2188106
0.21880985
0.2188091
0.21880843
0.2188079
0.2188075
0.21880722
0.21880702
0.21880687
0.20257736
0.20257751
0.20257773
0.20257802
0.20257843
0.20257898
0.20257967
0.20258046
0.20258122
0.20258187
0.20258243
0.20258276
0.2025828
0.20258252
0.20258202
0.20258142
0.20258069
0.20257992
0.20257923
0.20257868
0.20257827
0.20257798
0.20257776
0.2025776
0.18634833
0.18634849
0.18634872
0.18634903
0.18634946
0.18635003
0.18635074
0.18635153
0.18635227
0.1863529
0.18635352
0.18635387
0.1863539
0.18635362
0.18635307
0.18635248
0.18635177
0.18635098
0.18635027
0.1863497
0.18634926
0.18634895
0.18634871
0.18634855
0.17011962
0.17011979
0.17012004
0.17012037
0.17012083
0.17012142
0.17012213
0.17012287
0.17012356
0.17012426
0.17012508
0.17012557
0.1701256
0.17012518
0.17012441
0.17012375
0.17012309
0.17012235
0.17012163
0.17012104
0.17012059
0.17012026
0.17012002
0.17011984
0.15389146
0.15389165
0.15389192
0.15389227
0.15389274
0.15389332
0.15389397
0.15389461
0.15389522
0.1538961
0.15389738
0.15389822
0.15389825
0.15389746
0.15389623
0.15389538
0.15389482
0.15389423
0.1538936
0.15389303
0.15389258
0.15389224
0.15389199
0.15389181
0.13766459
0.1376648
0.13766508
0.13766545
0.13766591
0.13766643
0.13766694
0.13766736
0.13766779
0.1376689
0.13767089
0.13767242
0.13767246
0.13767099
0.13766904
0.13766796
0.13766753
0.13766714
0.13766665
0.13766612
0.13766566
0.13766529
0.13766501
0.1376648
0.12143966
0.12143988
0.12144018
0.12144055
0.12144097
0.1214414
0.1214417
0.1214418
0.12144209
0.12144357
0.12144663
0.12144939
0.12144943
0.12144674
0.12144372
0.12144228
0.12144197
0.12144186
0.12144156
0.12144114
0.12144073
0.12144037
0.12144009
0.12143987
0.10521799
0.10521823
0.10521853
0.10521887
0.10521922
0.10521946
0.10521939
0.10521904
0.10521922
0.10522112
0.10522551
0.10522996
0.10523
0.10522561
0.10522124
0.10521937
0.10521922
0.1052196
0.10521969
0.10521946
0.1052191
0.10521875
0.10521844
0.1052182
0.089000738
0.089000963
0.089001241
0.089001528
0.089001749
0.089001729
0.089001232
0.089000447
0.089000341
0.089002632
0.089008642
0.089014757
0.089014792
0.089008735
0.089002754
0.089000498
0.089000624
0.089001407
0.089001902
0.089001915
0.089001687
0.089001395
0.089001113
0.089000883
0.072790848
0.07279109
0.07279136
0.072791568
0.072791577
0.072791163
0.072790149
0.072788365
0.072787313
0.072789987
0.072797595
0.07280569
0.072805725
0.072797688
0.07279011
0.072787475
0.072788573
0.072790368
0.072791405
0.072791831
0.072791823
0.072791613
0.072791343
0.072791102
0.05658807
0.056588213
0.056588347
0.05658838
0.056588153
0.056587348
0.056585624
0.056583154
0.056581982
0.056585998
0.056596806
0.056608265
0.056608295
0.056596878
0.056586076
0.056582063
0.056583264
0.056585753
0.056587479
0.05658828
0.056588505
0.056588477
0.056588349
0.05658821
0.040405425
0.040405628
0.040405782
0.040405664
0.040404901
0.040402892
0.040399152
0.040394107
0.040390762
0.040394376
0.040406103
0.040416677
0.0404167
0.040406167
0.040394461
0.04039086
0.040394266
0.040399383
0.040403138
0.040405127
0.040405887
0.040406022
0.040405888
0.040405697
0.024217959
0.024217815
0.024217515
0.024216946
0.024215994
0.024214425
0.024211829
0.024208505
0.024207793
0.024216766
0.02423582
0.024250823
0.024250829
0.024235838
0.024216782
0.024207804
0.024208543
0.024211895
0.024214492
0.02421606
0.024217018
0.024217591
0.024217891
0.024218034
0.008095803
0.008095269
0.0080944826
0.0080932154
0.0080911203
0.0080878169
0.0080831872
0.0080774361
0.008070843
0.0080647036
0.0080613633
0.0080607753
0.0080607841
0.0080613791
0.0080647217
0.0080708726
0.0080774649
0.0080832017
0.0080878383
0.0080911619
0.008093267
0.0080945333
0.0080953138
0.0080958405
)
;

boundaryField
{
    INLET
    {
        type            zeroGradient;
    }
    OUTLET
    {
        type            fixedValue;
        value           uniform 0;
    }
    WALL
    {
        type            zeroGradient;
    }
    frontAndBackPlanes
    {
        type            empty;
    }
}


// ************************************************************************* //
