/*--------------------------------*- C++ -*----------------------------------*\
| =========                 |                                                 |
| \\      /  F ield         | OpenFOAM: The Open Source CFD Toolbox           |
|  \\    /   O peration     | Version:  2406                                  |
|   \\  /    A nd           | Website:  www.openfoam.com                      |
|    \\/     M anipulation  |                                                 |
\*---------------------------------------------------------------------------*/
FoamFile
{
    version     2.0;
    format      ascii;
    arch        "LSB;label=32;scalar=64";
    class       surfaceScalarField;
    location    "5";
    object      phi;
}
// * * * * * * * * * * * * * * * * * * * * * * * * * * * * * * * * * * * * * //

dimensions      [0 3 -1 0 0 0 0];

oriented        oriented;

internalField   nonuniform List<scalar> 
2279
(
2.3617257e-08
1.0148927e-05
2.0509716e-07
4.982375e-05
6.9331716e-07
0.00014252872
1.5784723e-06
0.00034353082
2.6788541e-06
0.0007537809
3.3473155e-06
0.0015415573
3.0435848e-06
0.0029497096
2.1518153e-06
0.005249171
1.4320136e-06
0.008582269
9.898709e-07
0.012685995
5.1299316e-07
0.016666385
3.5125657e-10
0.01918202
-5.1231756e-07
0.01918202
-9.8927068e-07
0.016666385
-1.4315432e-06
0.012685995
-2.1515065e-06
0.0085822691
-3.0434222e-06
0.0052491711
-3.3472497e-06
0.0029497096
-2.6788335e-06
0.0015415573
-1.5784679e-06
0.00075378089
-6.9331731e-07
0.00034353082
-2.0509798e-07
0.00014252872
-2.3617711e-08
4.9823748e-05
1.0148926e-05
-9.5248621e-08
1.0244175e-05
-5.3794009e-07
5.0266443e-05
-1.6229999e-06
0.00014361378
-3.5389469e-06
0.00034544678
-5.9201711e-06
0.00075616214
-7.4054692e-06
0.0015430426
-6.5846675e-06
0.0029488888
-3.9360651e-06
0.0052465224
-1.3882591e-06
0.0085797213
-6.49582e-08
0.012684671
2.4259183e-07
0.016666078
1.94243e-10
0.019182263
-2.422137e-07
0.019182263
6.5294417e-08
0.016666078
1.3885331e-06
0.012684671
3.9362639e-06
0.0085797213
6.584792e-06
0.0052465225
7.4055372e-06
0.0029488888
5.920201e-06
0.0015430426
3.5389566e-06
0.00075616211
1.6230017e-06
0.00034544676
5.3793982e-07
0.00014361377
9.5248264e-08
5.0266437e-05
1.0244174e-05
5.0139714e-08
1.0194036e-05
2.6334536e-07
5.0053238e-05
7.4910995e-07
0.00014312802
1.531468e-06
0.00034466443
2.3366805e-06
0.00075535695
2.5477128e-06
0.0015428317
1.8391787e-06
0.0029495974
9.7578687e-07
0.0052473859
6.7709492e-07
0.00858002
6.7194364e-07
0.012684677
4.8433438e-07
0.016666266
1.7387622e-10
0.019182747
-4.8400039e-07
0.019182747
-6.7164266e-07
0.016666266
-6.7683798e-07
0.012684677
-9.755708e-07
0.00858002
-1.8390088e-06
0.0052473859
-2.5475973e-06
0.0029495974
-2.3366165e-06
0.0015428316
-1.5314394e-06
0.0007553569
-7.4910007e-07
0.0003446644
-2.6334309e-07
0.00014312801
-5.0139731e-08
5.0053231e-05
1.0194034e-05
1.9586702e-08
1.0174449e-05
1.1184996e-07
4.9960976e-05
3.6128764e-07
0.00014287859
9.050582e-07
0.00034412067
1.8716853e-06
0.00075439034
3.0948731e-06
0.0015416085
3.8988042e-06
0.0029487935
3.7286665e-06
0.0052475561
2.9243525e-06
0.0085808244
1.9735404e-06
0.012685627
1.0129517e-06
0.016667226
1.8534461e-10
0.01918376
-1.012592e-06
0.01918376
-1.9732139e-06
0.016667226
-2.9240758e-06
0.012685627
-3.7284495e-06
0.0085808243
-3.8986445e-06
0.005247556
-3.0947677e-06
0.0029487935
-1.8716244e-06
0.0015416084
-9.0502961e-07
0.00075439028
-3.6127703e-07
0.00034412063
-1.1184698e-07
0.00014287857
-1.9586251e-08
4.9960968e-05
1.0174447e-05
8.0840671e-09
1.0166365e-05
4.7142733e-08
4.9921918e-05
1.5495146e-07
0.00014277078
3.9847537e-07
0.00034387715
8.7982145e-07
0.00075390901
1.7015669e-06
0.0015407868
2.7513567e-06
0.0029477438
3.4624723e-06
0.005246845
3.4709965e-06
0.0085808159
2.8008418e-06
0.012686298
1.5506861e-06
0.016668476
1.7750791e-10
0.01918531
-1.5503422e-06
0.01918531
-2.8005281e-06
0.016668476
-3.4707242e-06
0.012686298
-3.4622522e-06
0.0085808158
-2.7511958e-06
0.0052468449
-1.7014656e-06
0.0029477437
-8.7976698e-07
0.0015407867
-3.9845051e-07
0.00075390895
-1.5494226e-07
0.00034387712
-4.7140355e-08
0.00014277077
-8.0840306e-09
4.9921912e-05
1.0166363e-05
4.9360534e-09
1.0161429e-05
2.8700147e-08
4.9898155e-05
9.5125655e-08
0.00014270436
2.4922479e-07
0.00034372306
5.6363071e-07
0.0007535946
1.1214123e-06
0.001540229
1.9185167e-06
0.0029469467
2.6589072e-06
0.0052461046
2.8931719e-06
0.0085805816
2.4789008e-06
0.012686712
1.434576e-06
0.016669521
1.579618e-10
0.019186745
-1.4342697e-06
0.019186745
-2.4786182e-06
0.016669521
-2.8929199e-06
0.012686712
-2.6586939e-06
0.0085805815
-1.9183493e-06
0.0052461045
-1.1212901e-06
0.0029469466
-5.6355223e-07
0.0015402289
-2.4918207e-07
0.00075359455
-9.5106426e-08
0.00034372303
-2.8693394e-08
0.00014270435
-4.9346239e-09
4.989815e-05
1.0161428e-05
4.4124986e-09
1.0157016e-05
2.552669e-08
4.9877041e-05
8.3833411e-08
0.00014264605
2.1690223e-07
0.00034358999
4.8451768e-07
0.00075332699
9.5638881e-07
0.0015397571
1.6414135e-06
0.0029462617
2.3246375e-06
0.0052454214
2.5940297e-06
0.0085803122
2.2394636e-06
0.012687066
1.3067937e-06
0.016670453
1.3233806e-10
0.019188051
-1.3065394e-06
0.019188051
-2.2392388e-06
0.016670453
-2.5938505e-06
0.012687066
-2.3245088e-06
0.0085803122
-1.6413338e-06
0.0052454213
-9.5634349e-07
0.0029462616
-4.8449325e-07
0.0015397571
-2.168894e-07
0.00075332698
-8.3827386e-08
0.00034358999
-2.5524617e-08
0.00014264605
-4.4121964e-09
4.9877041e-05
1.0157016e-05
3.6256484e-09
1.0153391e-05
2.1037131e-08
4.9859629e-05
6.9439354e-08
0.00014259765
1.8114335e-07
0.00034347828
4.0971635e-07
0.00075309841
8.2390695e-07
0.0015393429
1.4540006e-06
0.0029456315
2.1430956e-06
0.0052447323
2.4675148e-06
0.0085799878
2.1884624e-06
0.012687345
1.2867369e-06
0.016671355
1.1363207e-10
0.019189338
-1.2865171e-06
0.019189338
-2.1882658e-06
0.016671355
-2.4673574e-06
0.012687346
-2.1429781e-06
0.0085799878
-1.4539291e-06
0.0052447323
-8.2387597e-07
0.0029456316
-4.0970643e-07
0.001539343
-1.8113958e-07
0.00075309843
-6.9437405e-08
0.0003434783
-2.1036637e-08
0.00014259766
-3.6259802e-09
4.9859633e-05
1.0153392e-05
2.9831729e-09
1.0150407e-05
1.7347192e-08
4.9845264e-05
5.7377471e-08
0.00014255762
1.5007296e-07
0.00034338558
3.4096644e-07
0.00075290751
6.9192165e-07
0.001538992
1.2440986e-06
0.0029450793
1.9041859e-06
0.0052440721
2.3016214e-06
0.0085795903
2.0975559e-06
0.01268755
1.2520865e-06
0.0166722
9.8505729e-11
0.01919059
-1.2518996e-06
0.01919059
-2.0973989e-06
0.016672201
-2.3015086e-06
0.01268755
-1.9041218e-06
0.0085795905
-1.2440592e-06
0.0052440723
-6.9188878e-07
0.0029450795
-3.4093586e-07
0.001538992
-1.5004956e-07
0.00075290754
-5.736405e-08
0.0003433856
-1.7341429e-08
0.00014255763
-2.9814155e-09
4.984527e-05
1.0150409e-05
2.4651524e-09
1.0147942e-05
1.4362043e-08
4.9833367e-05
4.7623585e-08
0.00014252435
1.2502222e-07
0.00034330818
2.8557663e-07
0.00075274695
5.8416079e-07
0.0015386934
1.0641658e-06
0.0029445993
1.664151e-06
0.0052434721
2.0898893e-06
0.0085791646
1.9529368e-06
0.012687686
1.1803178e-06
0.016672973
9.9358259e-11
0.01919177
-1.1801296e-06
0.01919177
-1.9527842e-06
0.016672973
-2.0897883e-06
0.012687687
-1.6641317e-06
0.0085791649
-1.0642192e-06
0.0052434724
-5.8424491e-07
0.0029445996
-2.8565e-07
0.0015386935
-1.2506811e-07
0.00075274704
-4.7645929e-08
0.00034330823
-1.4370667e-08
0.00014252438
-2.4675178e-09
4.9833375e-05
1.0147944e-05
2.1019868e-09
1.014584e-05
1.2256297e-08
4.9823212e-05
4.0683901e-08
0.00014249593
1.0698177e-07
0.00034324188
2.4506532e-07
0.00075260886
5.0383627e-07
0.0015384346
9.262198e-07
0.0029441769
1.4715096e-06
0.0052429269
1.8909297e-06
0.0085787452
1.8050713e-06
0.012687772
1.1037669e-06
0.016673674
1.008525e-10
0.019192874
-1.1035698e-06
0.019192874
-1.8048857e-06
0.016673675
-1.8907813e-06
0.012687773
-1.4713927e-06
0.0085787455
-9.2612181e-07
0.0052429271
-5.0375804e-07
0.0029441771
-2.4501356e-07
0.0015384346
-1.0695483e-07
0.00075260888
-4.0673041e-08
0.00034324189
-1.2253001e-08
0.00014249593
-2.1014108e-09
4.9823213e-05
1.014584e-05
1.8276904e-09
1.0144012e-05
1.0663683e-08
4.9814376e-05
3.5426422e-08
0.00014247117
9.3276758e-08
0.00034318403
2.1413219e-07
0.00075248801
4.4192401e-07
0.0015382068
8.1811838e-07
0.0029438008
1.3163994e-06
0.0052424286
1.7245321e-06
0.0085783371
1.678102e-06
0.012687819
1.0378822e-06
0.016674315
9.1244755e-11
0.019193912
-1.0377136e-06
0.019193912
-1.6779729e-06
0.016674315
-1.7244552e-06
0.012687819
-1.3163735e-06
0.0085783374
-8.1812393e-07
0.0052424289
-4.4194025e-07
0.002943801
-2.1414885e-07
0.0015382069
-9.3289798e-08
0.00075248805
-3.5434195e-08
0.00034318404
-1.0666794e-08
0.00014247117
-1.8281191e-09
4.9814376e-05
1.0144012e-05
1.6099769e-09
1.0142402e-05
9.3982035e-09
4.9806589e-05
3.1241862e-08
0.00014244932
8.2337592e-08
0.00034313295
1.8932099e-07
0.00075238105
3.9183313e-07
0.0015380043
7.2926778e-07
0.0029434634
1.1851873e-06
0.0052419728
1.5782271e-06
0.0085779441
1.5623987e-06
0.012687835
9.7676328e-07
0.0166749
6.9962134e-11
0.019194888
-9.7662761e-07
0.019194888
-1.5622778e-06
0.0166749
-1.5781105e-06
0.012687835
-1.185084e-06
0.0085779442
-7.2918695e-07
0.0052419728
-3.9178274e-07
0.0029434634
-1.8929783e-07
0.0015380043
-8.2331726e-08
0.00075238101
-3.1243013e-08
0.00034313292
-9.4003695e-09
0.00014244931
-1.6113852e-09
4.9806581e-05
1.01424e-05
1.432089e-09
1.014097e-05
8.3628384e-09
4.9799659e-05
2.7813542e-08
0.00014242988
7.3357405e-08
0.00034308741
1.6888166e-07
0.00075228555
3.5029454e-07
0.001537823
6.5462601e-07
0.0029431591
1.0721127e-06
0.0052415553
1.4464837e-06
0.0085775698
1.4549151e-06
0.012687826
9.1883479e-07
0.016675436
1.2842892e-11
0.019195807
-9.1880925e-07
0.019195807
-1.4548855e-06
0.016675437
-1.4464512e-06
0.012687826
-1.0720527e-06
0.0085775698
-6.545562e-07
0.0052415553
-3.5023984e-07
0.002943159
-1.6885051e-07
0.0015378228
-7.3344196e-08
0.00075228547
-2.7809425e-08
0.00034308736
-8.3619981e-09
0.00014242985
-1.4320478e-09
4.9799648e-05
1.0140967e-05
1.2851394e-09
1.0139685e-05
7.5063613e-09
4.979344e-05
2.4973466e-08
0.00014241242
6.5903243e-08
0.0003430465
1.5186316e-07
0.00075219961
3.1552633e-07
0.0015376593
5.9154883e-07
0.0029428832
9.7483737e-07
0.0052411721
1.3297359e-06
0.0085772149
1.3567886e-06
0.012687799
8.6522134e-07
0.016675928
-5.7594995e-11
0.019196672
-8.6532845e-07
0.019196672
-1.3568679e-06
0.016675928
-1.3297729e-06
0.012687799
-9.748196e-07
0.0085772148
-5.9149857e-07
0.0052411719
-3.1547278e-07
0.0029428829
-1.5182446e-07
0.0015376592
-6.588184e-08
0.00075219951
-2.4964113e-08
0.00034304644
-7.5033868e-09
0.00014241239
-1.2847926e-09
4.9793429e-05
1.0139682e-05
1.1618655e-09
1.0138523e-05
6.78728e-09
4.9787816e-05
2.2586722e-08
0.00014239662
5.9630147e-08
0.00034300946
1.3750952e-07
0.00075212175
2.8608993e-07
0.0015375108
5.3775876e-07
0.0029426315
8.907372e-07
0.0052408192
1.2263906e-06
0.0085768793
1.2674307e-06
0.012687758
8.158206e-07
0.01667638
-1.3914603e-10
0.019197488
-8.1607761e-07
0.019197488
-1.2676305e-06
0.01667638
-1.2264952e-06
0.012687758
-8.9076515e-07
0.008576879
-5.3774921e-07
0.0052408188
-2.8607694e-07
0.0029426313
-1.3750476e-07
0.0015375106
-5.9629837e-08
0.00075212165
-2.2587156e-08
0.00034300941
-6.7877866e-09
0.00014239659
-1.1623539e-09
4.9787806e-05
1.0138521e-05
1.0566042e-09
1.0137467e-05
6.1730391e-09
4.97827e-05
2.0546891e-08
0.00014238225
5.4264056e-08
0.00034297575
1.2521206e-07
0.00075205081
2.6079766e-07
0.0015373752
4.9127754e-07
0.0029424011
8.1722342e-07
0.0052404932
1.1341307e-06
0.0085765624
1.1856722e-06
0.012687707
7.7003556e-07
0.016676795
-2.1898344e-10
0.019198259
-7.7043814e-07
0.019198259
-1.1859742e-06
0.016676795
-1.1343019e-06
0.012687706
-8.1727781e-07
0.008576562
-4.9126359e-07
0.0052404928
-2.6076261e-07
0.0029424008
-1.2518255e-07
0.001537375
-5.4246412e-08
0.00075205071
-2.0538575e-08
0.0003429757
-6.1701067e-09
0.00014238223
-1.0560859e-09
4.9782691e-05
1.0137465e-05
9.6546866e-10
1.0136502e-05
5.6413641e-09
4.9778024e-05
1.8781038e-08
0.00014236911
4.961636e-08
0.00034294491
1.1454891e-07
0.00075198588
2.3881653e-07
0.0015372509
4.5069581e-07
0.0029421892
7.5243991e-07
0.0052401915
1.0513999e-06
0.0085762634
1.1106608e-06
0.012687647
7.2745229e-07
0.016677179
-2.7397654e-10
0.019198986
-7.2796064e-07
0.019198986
-1.1110578e-06
0.016677178
-1.0516549e-06
0.012687647
-7.5257214e-07
0.008576263
-4.5074789e-07
0.0052401911
-2.3882968e-07
0.0029421889
-1.1454923e-07
0.0015372508
-4.9614985e-08
0.00075198579
-1.8780259e-08
0.00034294487
-5.6408926e-09
0.00014236909
-9.6513894e-10
4.9778017e-05
1.01365e-05
8.857877e-10
1.0135616e-05
5.1768129e-09
4.9773733e-05
1.7238221e-08
0.00014235704
4.5554338e-08
0.00034291659
1.0522154e-07
0.0007519262
2.1955416e-07
0.0015371366
4.1499892e-07
0.0029419937
6.9500903e-07
0.0052399114
9.7695715e-07
0.0085759814
1.0416596e-06
0.012687583
6.8773555e-07
0.016677532
-3.0148563e-10
0.019199674
-6.8829498e-07
0.019199674
-1.0421039e-06
0.016677532
-9.7725551e-07
0.012687582
-6.951883e-07
0.0085759809
-4.1509255e-07
0.005239911
-2.1959264e-07
0.0029419934
-1.0523135e-07
0.0015371364
-4.5555241e-08
0.0007519261
-1.7238138e-08
0.00034291654
-5.1766946e-09
0.00014235702
-8.8563292e-10
4.9773724e-05
1.0135614e-05
8.1568025e-10
1.01348e-05
4.7681471e-09
4.9769779e-05
1.5880761e-08
0.00014234593
4.1978656e-08
0.00034289049
9.7003633e-08
0.00075187115
2.0255399e-07
0.001537031
3.8338708e-07
0.0029418128
6.4379981e-07
0.005239651
9.0969251e-07
0.0085757155
9.7801365e-07
0.012687514
6.505797e-07
0.01667786
-3.1708237e-10
0.019200325
-6.5117064e-07
0.019200325
-9.7849433e-07
0.016677859
-9.1004323e-07
0.012687514
-6.4403656e-07
0.0085757149
-3.83544e-07
0.0052396505
-2.0265712e-07
0.0029418125
-9.7066426e-08
0.0015370308
-4.2011071e-08
0.00075187106
-1.5894294e-08
0.00034289044
-4.772521e-09
0.00014234591
-8.1653837e-10
4.976977e-05
1.0134798e-05
7.5370766e-10
1.0134046e-05
4.4067007e-09
4.9766125e-05
1.4679432e-08
0.00014233565
3.8811739e-08
0.00034286635
8.9716717e-08
0.00075182024
1.8745145e-07
0.0015369333
3.5521086e-07
0.002941645
5.978697e-07
0.0052394083
8.4863929e-07
0.0085754648
9.1914021e-07
0.012687444
6.1571846e-07
0.016678163
-3.2394332e-10
0.019200941
-6.163245e-07
0.019200941
-9.1963639e-07
0.016678163
-8.49002e-07
0.012687443
-5.9811099e-07
0.008575464
-3.5535794e-07
0.0052394077
-1.8753539e-07
0.0029416447
-8.9762696e-08
0.001536933
-3.8834554e-08
0.00075182012
-1.4688474e-08
0.00034286629
-4.4093457e-09
0.00014233563
-7.5410806e-10
4.9766114e-05
1.0134043e-05
6.9873819e-10
1.0133347e-05
4.0854195e-09
4.9762738e-05
1.3610183e-08
0.00014232613
3.5989553e-08
0.00034284397
8.3213516e-08
0.00075177302
1.739461e-07
0.0015368425
3.2993485e-07
0.0029414891
5.564343e-07
0.0052391818
7.9296889e-07
0.0085752282
8.6452162e-07
0.012687372
5.8291805e-07
0.016678445
-3.3306278e-10
0.019201525
-5.8354393e-07
0.019201524
-8.6504827e-07
0.016678444
-7.9337347e-07
0.012687371
-5.5673183e-07
0.0085752274
-3.3015109e-07
0.0052391812
-1.7409413e-07
0.0029414887
-8.3303113e-08
0.0015368423
-3.6036556e-08
0.0007517729
-1.3630867e-08
0.00034284391
-4.0926996e-09
0.0001423261
-7.0042085e-10
4.9762727e-05
1.0133344e-05
6.4964787e-10
1.0132698e-05
3.7979247e-09
4.9759591e-05
1.2652168e-08
0.00014231728
3.3457945e-08
0.00034282317
7.7371421e-08
0.00075172911
1.6178987e-07
0.0015367581
3.0711746e-07
0.0029413437
5.1884189e-07
0.0052389701
7.4198115e-07
0.0085750051
8.1370704e-07
0.012687301
5.5197923e-07
0.016678707
-3.5210249e-10
0.019202077
-5.5263599e-07
0.019202077
-8.1423958e-07
0.016678706
-7.4236277e-07
0.0126873
-5.1909516e-07
0.0085750041
-3.0728606e-07
0.0052389694
-1.6189786e-07
0.0029413433
-7.7428615e-08
0.0015367579
-3.3483532e-08
0.00075172898
-1.2662911e-08
0.0003428231
-3.8019484e-09
0.00014231725
-6.5074679e-10
4.9759579e-05
1.0132695e-05
6.0525207e-10
1.0132093e-05
3.5377283e-09
4.9756659e-05
1.1784692e-08
0.00014230903
3.1164318e-08
0.00034280379
7.207474e-08
0.0007516882
1.5075711e-07
0.0015366794
2.8637087e-07
0.0029412081
4.8453194e-07
0.0052387719
6.9507519e-07
0.0085747945
7.6630836e-07
0.012687229
5.2274431e-07
0.01667895
-3.7334604e-10
0.0192026
-5.2343971e-07
0.0192026
-7.6687269e-07
0.016678949
-6.9548081e-07
0.012687228
-4.8478638e-07
0.0085747935
-2.8650381e-07
0.0052387712
-1.5080904e-07
0.0029412077
-7.2082921e-08
0.0015366792
-3.115883e-08
0.00075168806
-1.178002e-08
0.00034280372
-3.5353914e-09
0.000142309
-6.0411841e-10
4.9756647e-05
1.013209e-05
5.64609e-10
1.0131528e-05
3.2996985e-09
4.9753924e-05
1.0991314e-08
0.00014230134
2.9066584e-08
0.00034278571
6.7229789e-08
0.00075165003
1.4066198e-07
0.001536606
2.6737008e-07
0.0029410814
4.5302762e-07
0.0052385862
6.5173006e-07
0.0085745958
7.2198188e-07
0.012687159
4.9507944e-07
0.016679177
-3.8186152e-10
0.019203095
-4.9579089e-07
0.019203095
-7.2256411e-07
0.016679176
-6.5216403e-07
0.012687158
-4.5332013e-07
0.0085745947
-2.6753387e-07
0.0052385854
-1.4073885e-07
0.0029410809
-6.7262025e-08
0.0015366057
-2.9074631e-08
0.00075164989
-1.0989176e-08
0.00034278564
-3.2964989e-09
0.00014230131
-5.6300863e-10
4.9753913e-05
1.0131526e-05
5.2696146e-10
1.0131001e-05
3.0796675e-09
4.975137e-05
1.0258596e-08
0.00014229416
2.7130367e-08
0.00034276883
6.2760198e-08
0.00075161439
1.3135316e-07
0.0015365374
2.498495e-07
0.0029409628
4.239358e-07
0.0052384121
6.1151032e-07
0.0085744081
6.8043321e-07
0.01268709
4.6886319e-07
0.016679388
-3.7949636e-10
0.019203565
-4.6957097e-07
0.019203564
-6.8101443e-07
0.016679387
-6.1193851e-07
0.012687089
-4.2421647e-07
0.008574407
-2.5001037e-07
0.0052384112
-1.3144959e-07
0.0029409623
-6.2830642e-08
0.0015365371
-2.7175056e-08
0.00075161427
-1.0277657e-08
0.00034276878
-3.0850547e-09
0.00014229413
-5.2795399e-10
4.9751363e-05
1.0131e-05
4.9178836e-10
1.013051e-05
2.8745127e-09
4.9748987e-05
9.5760977e-09
0.00014228745
2.5328392e-08
0.00034275307
5.8604664e-08
0.00075158109
1.2270864e-07
0.0015364732
2.335952e-07
0.0029408519
3.9694018e-07
0.0052382487
5.740641e-07
0.008574231
6.4142736e-07
0.012687023
4.4401039e-07
0.016679586
-3.6457903e-10
0.019204009
-4.446964e-07
0.019204008
-6.419941e-07
0.016679585
-5.7447087e-07
0.012687021
-3.9719033e-07
0.0085742297
-2.3374101e-07
0.0052382478
-1.2279974e-07
0.0029408514
-5.8659496e-08
0.001536473
-2.5361649e-08
0.00075158098
-9.595745e-09
0.00034275302
-2.8839734e-09
0.00014228743
-4.9500824e-10
4.974898e-05
1.0130508e-05
4.5875589e-10
1.0130051e-05
2.6818558e-09
4.9746763e-05
8.935432e-09
0.0001422812
2.36385e-08
0.00034273836
5.471371e-08
0.00075155
1.1463196e-07
0.0015364133
2.1844341e-07
0.0029407481
3.7180589e-07
0.0052380953
5.3913302e-07
0.0085740636
6.0479253e-07
0.012686957
4.2046616e-07
0.01667977
-3.3319729e-10
0.01920443
-4.2109838e-07
0.019204429
-6.0533877e-07
0.016679769
-5.3955032e-07
0.012686956
-3.7208197e-07
0.0085740624
-2.1861319e-07
0.0052380944
-1.1472489e-07
0.0029407476
-5.4740176e-08
0.0015364131
-2.363574e-08
0.0007515499
-8.9330528e-09
0.00034273831
-2.6822117e-09
0.00014228118
-4.5894419e-10
4.9746756e-05
1.0130049e-05
4.275585e-10
1.0129623e-05
2.4997796e-09
4.974469e-05
8.3305767e-09
0.00014227536
2.204689e-08
0.00034272464
5.1061193e-08
0.00075152098
1.0707964e-07
0.0015363573
2.0432892e-07
0.0029406508
3.4844491e-07
0.0052379511
5.0662334e-07
0.0085739054
5.7048353e-07
0.012686893
3.9825235e-07
0.016679942
-2.8900434e-10
0.019204828
-3.987939e-07
0.019204828
-5.7093143e-07
0.016679941
-5.0694217e-07
0.012686892
-3.4861945e-07
0.0085739041
-2.0436361e-07
0.0052379502
-1.0701884e-07
0.0029406502
-5.0965455e-08
0.0015363569
-2.1963211e-08
0.00075152082
-8.2803187e-09
0.00034272457
-2.4768092e-09
0.00014227533
-4.1946997e-10
4.974468e-05
1.0129621e-05
3.9783153e-10
1.0129225e-05
2.3268508e-09
4.974276e-05
7.7584096e-09
0.00014226993
2.0549013e-08
0.00034271184
4.7645871e-08
0.00075149387
1.000685e-07
0.0015363048
1.9130951e-07
0.0029405595
3.2696488e-07
0.0052378154
4.7667184e-07
0.0085737556
5.3864429e-07
0.012686831
3.7749118e-07
0.016680104
-2.3635011e-10
0.019205206
-3.7794837e-07
0.019205206
-5.3904685e-07
0.016680102
-4.7699754e-07
0.01268683
-3.272062e-07
0.0085737544
-1.9143989e-07
0.0052378145
-1.0011838e-07
0.0029405589
-4.767218e-08
0.0015363045
-2.0558233e-08
0.0007514937
-7.7535118e-09
0.00034271177
-2.3196179e-09
0.0001422699
-3.9400769e-10
4.974275e-05
1.0129223e-05
3.6985351e-10
1.0128855e-05
2.1650455e-09
4.9740963e-05
7.2263528e-09
0.00014226486
1.9166347e-08
0.00034269989
4.4521109e-08
0.00075146849
9.3714733e-08
0.0015362556
1.7960116e-07
0.0029404736
3.0769134e-07
0.0052376873
4.4966179e-07
0.0085736136
5.0964598e-07
0.012686771
3.584361e-07
0.016680255
-1.6674373e-10
0.019205565
-3.587773e-07
0.019205564
-5.099975e-07
0.016680254
-4.4999819e-07
0.01268677
-3.079873e-07
0.0085736124
-1.7984593e-07
0.0052376863
-9.3945086e-08
0.0029404729
-4.4750287e-08
0.0015362552
-1.9338177e-08
0.00075146834
-7.3166903e-09
0.00034269983
-2.2006708e-09
0.00014226484
-3.8071442e-10
4.9740957e-05
1.0128854e-05
3.4478414e-10
1.012851e-05
2.0207518e-09
4.9739286e-05
6.7552943e-09
0.00014226012
1.7953945e-08
0.00034268868
4.1811631e-08
0.0007514446
8.826228e-08
0.0015362091
1.6960892e-07
0.0029403922
2.9118223e-07
0.0052375657
4.262218e-07
0.0085734786
4.8405386e-07
0.012686713
3.4137628e-07
0.016680398
-1.2077096e-10
0.019205906
-3.4162344e-07
0.019205906
-4.8432259e-07
0.016680396
-4.2649118e-07
0.012686712
-2.9139807e-07
0.0085734773
-1.6975756e-07
0.0052375647
-8.838418e-08
0.0029403915
-4.1930109e-08
0.0015362087
-1.8048422e-08
0.00075144443
-6.8113712e-09
0.00034268861
-2.0460103e-09
0.0001422601
-3.5295298e-10
4.9739279e-05
1.0128509e-05
3.2384292e-10
1.0128186e-05
1.9012609e-09
4.9737707e-05
6.3695864e-09
0.00014225565
1.6974852e-08
0.00034267807
3.9658191e-08
0.00075142191
8.3987925e-08
0.0015361647
1.6180045e-07
0.0029403143
2.780938e-07
0.0052374494
4.0710113e-07
0.0085733496
4.6252544e-07
0.012686658
3.2664603e-07
0.016680533
-1.1348811e-10
0.019206233
-3.2687113e-07
0.019206233
-4.6275035e-07
0.016680532
-4.0733488e-07
0.012686656
-2.7832216e-07
0.0085733483
-1.6197849e-07
0.0052374484
-8.4070613e-08
0.0029403138
-3.9653021e-08
0.0015361644
-1.6935027e-08
0.00075142176
-6.3387692e-09
0.00034267801
-1.8858289e-09
0.00014225563
-3.1690508e-10
4.9737701e-05
1.0128185e-05
3.0900842e-10
1.0127878e-05
1.8167833e-09
4.9736199e-05
6.1005008e-09
0.00014225136
1.6304855e-08
0.00034266785
3.8215595e-08
0.00075139999
8.1163887e-08
0.0015361218
1.5659142e-07
0.0029402389
2.6897512e-07
0.005237337
3.9289983e-07
0.0085732256
4.4555271e-07
0.012686605
3.1448333e-07
0.016680664
-1.1168474e-10
0.019206548
-3.1470331e-07
0.019206547
-4.4573358e-07
0.016680663
-3.9303226e-07
0.012686604
-2.6911897e-07
0.0085732242
-1.5676034e-07
0.005237336
-8.1269463e-08
0.0029402384
-3.8225574e-08
0.0015361215
-1.6265563e-08
0.00075139988
-6.0647736e-09
0.00034266781
-1.7981801e-09
0.00014225135
-3.0161834e-10
4.9736193e-05
1.0127877e-05
3.0258573e-10
1.0127577e-05
1.7795761e-09
4.9734723e-05
5.9853757e-09
0.00014224716
1.6031561e-08
0.00034265781
3.7652588e-08
0.00075137837
8.0056494e-08
0.0015360794
1.5433242e-07
0.0029401647
2.6421201e-07
0.0052372271
3.8395715e-07
0.0085731058
4.3327262e-07
0.012686556
3.0495067e-07
0.016680793
-1.232326e-10
0.019206853
-3.0520709e-07
0.019206852
-4.3349196e-07
0.016680792
-3.8406071e-07
0.012686554
-2.6424318e-07
0.0085731043
-1.5435694e-07
0.0052372261
-8.003717e-08
0.0029401641
-3.7607348e-08
0.0015360791
-1.5991012e-08
0.00075137827
-5.9612876e-09
0.00034265777
-1.7704459e-09
0.00014224714
-3.0161567e-10
4.9734719e-05
1.0127576e-05
3.054132e-10
1.0127274e-05
1.7957602e-09
4.9733236e-05
6.0438533e-09
0.00014224291
1.6197771e-08
0.00034264766
3.8041746e-08
0.00075135655
8.0760874e-08
0.0015360367
1.5508679e-07
0.0029400904
2.6379485e-07
0.0052371184
3.8012923e-07
0.0085729895
4.2539923e-07
0.01268651
2.9803254e-07
0.01668092
-1.5013064e-10
0.019207151
-2.9833505e-07
0.01920715
-4.256797e-07
0.016680919
-3.8027573e-07
0.012686509
-2.6382278e-07
0.0085729879
-1.5505084e-07
0.0052371174
-8.0647008e-08
0.0029400898
-3.7916606e-08
0.0015360364
-1.6103309e-08
0.00075135643
-5.9844838e-09
0.00034264761
-1.7679573e-09
0.0001422429
-2.9769122e-10
4.9733231e-05
1.0127273e-05
3.1905716e-10
1.0126958e-05
1.8719912e-09
4.9731685e-05
6.2925152e-09
0.00014223849
1.6834577e-08
0.00034263711
3.9416822e-08
0.00075133396
8.3252447e-08
0.0015359929
1.5863766e-07
0.002940015
2.6714336e-07
0.0052370099
3.8046846e-07
0.0085728761
4.2109703e-07
0.01268647
2.9340296e-07
0.016681048
-1.9811788e-10
0.019207444
-2.9378457e-07
0.019207444
-4.2143148e-07
0.016681046
-3.80678e-07
0.012686468
-2.6724793e-07
0.0085728745
-1.5866822e-07
0.0052370089
-8.3203607e-08
0.0029400145
-3.9356707e-08
0.0015359926
-1.6781286e-08
0.00075133387
-6.2477099e-09
0.00034263709
-1.8458667e-09
0.00014223849
-3.0938067e-10
4.9731683e-05
1.0126958e-05
3.4311756e-10
1.012662e-05
2.0060564e-09
4.9730026e-05
6.7217082e-09
0.00014223378
1.790562e-08
0.00034262593
4.1663216e-08
0.00075131021
8.7219184e-08
0.0015359473
1.6426777e-07
0.0029399379
2.727907e-07
0.0052369013
3.8284193e-07
0.008572766
4.1866068e-07
0.012686434
2.9013632e-07
0.016681176
-2.4017569e-10
0.019207735
-2.906014e-07
0.019207734
-4.1905343e-07
0.016681175
-3.8310075e-07
0.012686432
-2.729007e-07
0.0085727644
-1.6425188e-07
0.0052369003
-8.7128087e-08
0.0029399374
-4.1640004e-08
0.0015359471
-1.7939668e-08
0.00075131012
-6.7501743e-09
0.00034262591
-2.0195135e-09
0.00014223378
-3.4849631e-10
4.9730027e-05
1.012662e-05
3.7376997e-10
1.012625e-05
2.1784568e-09
4.9728224e-05
7.2666902e-09
0.00014222869
1.9229428e-08
0.00034261396
4.4334811e-08
0.0007512851
9.170059e-08
0.0015359
1.701666e-07
0.0029398595
2.7773713e-07
0.0052367937
3.8336176e-07
0.0085726604
4.1473325e-07
0.012686403
2.8637734e-07
0.016681305
-2.6745242e-10
0.019208021
-2.8689218e-07
0.019208021
-4.1517162e-07
0.016681303
-3.8369326e-07
0.012686401
-2.779242e-07
0.0085726586
-1.7024224e-07
0.0052367927
-9.1629229e-08
0.0029398589
-4.4296642e-08
0.0015358997
-1.9282381e-08
0.00075128498
-7.3237164e-09
0.00034261393
-2.2081502e-09
0.00014222869
-3.8455693e-10
4.9728225e-05
1.0126251e-05
4.085614e-10
1.0125845e-05
2.3709293e-09
4.972626e-05
7.8594524e-09
0.00014222319
2.061346e-08
0.00034260117
4.694148e-08
0.00075125871
9.5534942e-08
0.0015358513
1.7379808e-07
0.0029397811
2.777198e-07
0.0052366897
3.7647225e-07
0.0085725616
4.0344148e-07
0.012686376
2.779563e-07
0.01668143
-3.2531252e-10
0.0192083
-2.7856348e-07
0.019208299
-4.0393739e-07
0.016681428
-3.768565e-07
0.012686374
-2.7802603e-07
0.0085725597
-1.741099e-07
0.0052366886
-9.5666013e-08
0.0029397806
-4.6942926e-08
0.001535851
-2.0640875e-08
0.00075125865
-7.8967438e-09
0.00034260117
-2.3897468e-09
0.0001422232
-4.1238114e-10
4.9726266e-05
1.0125847e-05
4.4305956e-10
1.0125405e-05
2.5583705e-09
4.9724146e-05
8.4141319e-09
0.00014221733
2.1814274e-08
0.00034258777
4.8878349e-08
0.00075123164
9.7341639e-08
0.0015358028
1.7243093e-07
0.002939706
2.6806461e-07
0.0052365941
3.5599744e-07
0.0085724737
3.7747741e-07
0.012686354
2.5854798e-07
0.016681549
-4.0366711e-10
0.019208559
-2.5928274e-07
0.019208558
-3.7804584e-07
0.016681547
-3.5640992e-07
0.012686352
-2.6833502e-07
0.0085724718
-1.7271966e-07
0.0052365928
-9.7560304e-08
0.0029397054
-4.8956023e-08
0.0015358025
-2.1855608e-08
0.00075123155
-8.4444345e-09
0.00034258775
-2.5717432e-09
0.00014221733
-4.4452655e-10
4.9724147e-05
1.0125406e-05
4.6839198e-10
1.0124938e-05
2.6876212e-09
4.9721925e-05
8.7506538e-09
0.00014221126
2.2352514e-08
0.00034257415
4.9041323e-08
0.00075120495
9.4915277e-08
0.001535757
1.6224703e-07
0.0029396387
2.4302118e-07
0.0052365134
3.1485721e-07
0.008572402
3.2864647e-07
0.012686341
2.2116124e-07
0.016681657
-4.5952721e-10
0.01920878
-2.2200003e-07
0.019208779
-3.2930988e-07
0.016681655
-3.1542577e-07
0.012686338
-2.4338568e-07
0.0085724001
-1.6249818e-07
0.0052365119
-9.5146422e-08
0.0029396378
-4.9188139e-08
0.0015357565
-2.2441493e-08
0.00075120478
-8.7986914e-09
0.00034257411
-2.7058748e-09
0.00014221125
-4.7121452e-10
4.9721922e-05
1.0124938e-05
4.9159254e-10
1.0124446e-05
2.7941263e-09
4.9719621e-05
8.9630455e-09
0.00014220509
2.2387403e-08
0.00034256073
4.7530427e-08
0.00075117981
8.7860326e-08
0.0015357166
1.4145286e-07
0.0029395851
1.9937264e-07
0.0052364555
2.4711316e-07
0.0085723542
2.5181413e-07
0.012686336
1.6548939e-07
0.016681743
-4.9965771e-10
0.019208946
-1.6641912e-07
0.019208945
-2.5259809e-07
0.016681741
-2.4783478e-07
0.012686333
-1.9995186e-07
0.0085723521
-1.4194434e-07
0.0052364538
-8.8278206e-08
0.0029395841
-4.7712005e-08
0.0015357162
-2.2410732e-08
0.00075117962
-8.9520526e-09
0.00034256066
-2.786862e-09
0.00014220507
-4.8954625e-10
4.9719614e-05
1.0124445e-05
4.6500551e-10
1.0123979e-05
2.6093659e-09
4.9717477e-05
8.2118904e-09
0.0001421995
1.9940663e-08
0.00034254903
4.0545017e-08
0.00075115924
7.0161875e-08
0.001535687
1.0279225e-07
0.0029395524
1.2784698e-07
0.0052364303
1.4047878e-07
0.0085723416
1.3749272e-07
0.012686339
9.0727369e-08
0.01668179
-5.5639225e-10
0.019209037
-9.1791285e-08
0.019209036
-1.3845588e-07
0.016681788
-1.4137746e-07
0.012686336
-1.2856587e-07
0.0085723393
-1.0323909e-07
0.0052364285
-7.0475515e-08
0.0029395512
-4.0735192e-08
0.0015356863
-2.0046908e-08
0.00075115891
-8.2720821e-09
0.00034254888
-2.6374976e-09
0.00014219944
-4.7330359e-10
4.9717455e-05
1.0123974e-05
4.9117199e-10
1.012348e-05
2.7055724e-09
4.9715255e-05
8.2193023e-09
0.00014219398
1.8760751e-08
0.00034253849
3.4312369e-08
0.00075114368
4.9116481e-08
0.0015356721
4.9435598e-08
0.002939552
2.3686059e-08
0.0052364561
-1.297022e-08
0.0085723783
-2.3304629e-08
0.012686349
-9.1333869e-09
0.016681775
-6.0853975e-10
0.019209029
7.956106e-09
0.019209028
2.2196909e-08
0.016681773
1.1875984e-08
0.012686347
-2.4756157e-08
0.008572376
-5.0317186e-08
0.0052364542
-4.9736329e-08
0.0029395507
-3.4686347e-08
0.0015356713
-1.8940341e-08
0.00075114325
-8.2903032e-09
0.00034253828
-2.7305719e-09
0.00014219389
-4.987455e-10
4.9715221e-05
1.0123473e-05
2.685273e-10
1.0123195e-05
1.3927171e-09
4.9714119e-05
3.8578376e-09
0.00014219152