/*--------------------------------*- C++ -*----------------------------------*\
| =========                 |                                                 |
| \\      /  F ield         | OpenFOAM: The Open Source CFD Toolbox           |
|  \\    /   O peration     | Version:  2406                                  |
|   \\  /    A nd           | Website:  www.openfoam.com                      |
|    \\/     M anipulation  |                                                 |
\*---------------------------------------------------------------------------*/
FoamFile
{
    version     2.0;
    format      ascii;
    arch        "LSB;label=32;scalar=64";
    class       volVectorField;
    location    "5";
    object      U;
}
// * * * * * * * * * * * * * * * * * * * * * * * * * * * * * * * * * * * * * //

dimensions      [0 1 -1 0 0 0 0];

internalField   nonuniform List<vector> 
1176
(
(0.019493789 7.0785192e-07 0)
(0.066677318 8.169662e-06 0)
(0.13357994 3.9503096e-05 0)
(0.22724701 0.00010873574 0)
(0.35591523 0.00021176048 0)
(0.52772024 0.00030396413 0)
(0.74780387 0.00031818439 0)
(1.0136216 0.00024905548 0)
(1.3093323 0.00016668664 0)
(1.6017081 0.00011267043 0)
(1.8421723 7.0243012e-05 0)
(1.9793239 2.3973004e-05 0)
(1.9793239 -2.3907288e-05 0)
(1.8421723 -7.0181854e-05 0)
(1.6017081 -0.0001126185 0)
(1.3093323 -0.00016664827 0)
(1.0136216 -0.00024903212 0)
(0.74780387 -0.00031817343 0)
(0.52772024 -0.00030396046 0)
(0.35591522 -0.0002117597 0)
(0.227247 -0.00010873565 0)
(0.13357994 -3.9503347e-05 0)
(0.066677316 -8.1694537e-06 0)
(0.019493789 -7.0787874e-07 0)
(0.020187017 -3.7419296e-06 0)
(0.068813533 -2.4638602e-05 0)
(0.13732107 -9.6548541e-05 0)
(0.23247391 -0.00024839432 0)
(0.36204617 -0.00047268689 0)
(0.53373557 -0.00067420949 0)
(0.75267407 -0.00069486481 0)
(1.0170176 -0.00049686609 0)
(1.3116385 -0.00023344825 0)
(1.6034438 -4.9810363e-05 0)
(1.8436588 1.978081e-05 0)
(1.9807026 1.3445152e-05 0)
(1.9807026 -1.3409862e-05 0)
(1.8436588 -1.9747377e-05 0)
(1.6034438 4.984017e-05 0)
(1.3116385 0.00023347152 0)
(1.0170177 0.00049688206 0)
(0.75267408 0.00069487442 0)
(0.53373557 0.00067421418 0)
(0.36204617 0.00047268851 0)
(0.2324739 0.00024839469 0)
(0.13732106 9.6548471e-05 0)
(0.068813528 2.4638696e-05 0)
(0.020187016 3.7418798e-06 0)
(0.020018443 2.0918249e-06 0)
(0.068327408 1.2720833e-05 0)
(0.13655405 4.6877341e-05 0)
(0.23159545 0.00011389792 0)
(0.36138709 0.00019769423 0)
(0.53366969 0.00023903597 0)
(0.75344345 0.00020560488 0)
(1.0184881 0.00011362072 0)
(1.3134639 7.4325669e-05 0)
(1.6053464 7.9547063e-05 0)
(1.8455118 7.0531971e-05 0)
(1.9825245 2.7841709e-05 0)
(1.9825245 -2.7809724e-05 0)
(1.8455118 -7.0501791e-05 0)
(1.6053464 -7.9520033e-05 0)
(1.3134639 -7.4302862e-05 0)
(1.0184881 -0.00011360208 0)
(0.75344344 -0.00020559015 0)
(0.53366968 -0.00023902725 0)
(0.36138707 -0.00019768996 0)
(0.23159543 -0.00011389618 0)
(0.13655403 -4.6876946e-05 0)
(0.068327399 -1.2720582e-05 0)
(0.02001844 -2.091838e-06 0)
(0.019966548 7.0075752e-07 0)
(0.068159234 4.6871217e-06 0)
(0.13624021 1.935557e-05 0)
(0.23111941 5.6456765e-05 0)
(0.36078094 0.00013444729 0)
(0.53306294 0.00025829682 0)
(0.75295638 0.00035345375 0)
(1.0181104 0.00036912946 0)
(1.313184 0.00030760094 0)
(1.6051633 0.00022778706 0)
(1.8453995 0.00014557581 0)
(1.9824491 5.0014459e-05 0)
(1.9824491 -4.9980144e-05 0)
(1.8453996 -0.00014554345 0)
(1.6051633 -0.00022775835 0)
(1.313184 -0.00030757731 0)
(1.0181104 -0.00036911057 0)
(0.75295636 -0.00035344081 0)
(0.53306292 -0.00025828857 0)
(0.36078091 -0.00013444305 0)
(0.23111938 -5.6455021e-05 0)
(0.13624019 -1.9355027e-05 0)
(0.068159224 -4.6869351e-06 0)
(0.019966544 -7.0075795e-07 0)
(0.019942205 2.9076756e-07 0)
(0.068078706 1.9873016e-06 0)
(0.13608629 8.2363376e-06 0)
(0.230877 2.3700075e-05 0)
(0.36044745 5.6883423e-05 0)
(0.5326645 0.00012307259 0)
(0.75256879 0.00022682469 0)
(1.017808 0.00032273168 0)
(1.3129044 0.00034573629 0)
(1.604912 0.00030731357 0)
(1.8452029 0.00021096854 0)
(1.9822898 7.4630982e-05 0)
(1.9822898 -7.4598025e-05 0)
(1.8452029 -0.00021093751 0)
(1.604912 -0.00030728576 0)
(1.3129044 -0.00034571277 0)
(1.0178079 -0.0003227129 0)
(0.75256876 -0.00022681172 0)
(0.53266447 -0.00012306489 0)
(0.36044742 -5.6879604e-05 0)
(0.23087698 -2.3698475e-05 0)
(0.13608627 -8.2358569e-06 0)
(0.068078695 -1.9871857e-06 0)
(0.019942201 -2.9075727e-07 0)
(0.019933133 1.7181729e-07 0)
(0.068047758 1.1941693e-06 0)
(0.13602489 5.0654146e-06 0)
(0.23077536 1.4969532e-05 0)
(0.36029899 3.6221033e-05 0)
(0.53247921 7.6947071e-05 0)
(0.75239428 0.00014714242 0)
(1.0177222 0.00023749735 0)
(1.3129292 0.00028526573 0)
(1.6049746 0.00027442667 0)
(1.8452865 0.00019645963 0)
(1.9823834 7.1191514e-05 0)
(1.9823834 -7.116224e-05 0)
(1.8452865 -0.00019643195 0)
(1.6049746 -0.00027440123 0)
(1.3129292 -0.00028524314 0)
(1.0177222 -0.00023747858 0)
(0.75239426 -0.00014712813 0)
(0.53247918 -7.6937156e-05 0)
(0.36029897 -3.6215092e-05 0)
(0.23077534 -1.4966587e-05 0)
(0.13602488 -5.0642059e-06 0)
(0.068047749 -1.1938818e-06 0)
(0.01993313 -1.7176415e-07 0)
(0.0199234 1.5587911e-07 0)
(0.068015508 1.0701463e-06 0)
(0.13596286 4.49364e-06 0)
(0.23067607 1.3195992e-05 0)
(0.36015774 3.1858286e-05 0)
(0.53230178 6.6960385e-05 0)
(0.7522143 0.00012412221 0)
(1.0176105 0.00019917518 0)
(1.3129358 0.0002549149 0)
(1.6050904 0.00024596003 0)
(1.8454579 0.00018128949 0)
(1.9825798 6.6560442e-05 0)
(1.9825798 -6.653611e-05 0)
(1.8454579 -0.00018126697 0)
(1.6050904 -0.00024594105 0)
(1.3129358 -0.00025489962 0)
(1.0176105 -0.00019916478 0)
(0.75221428 -0.00012411603 0)
(0.53230177 -6.6957038e-05 0)
(0.36015772 -3.1856453e-05 0)
(0.23067606 -1.3195045e-05 0)
(0.13596286 -4.4932373e-06 0)
(0.068015506 -1.0700897e-06 0)
(0.0199234 -1.5585385e-07 0)
(0.019915697 1.2758994e-07 0)
(0.067989792 8.780605e-07 0)
(0.13591293 3.6960818e-06 0)
(0.23059503 1.0901768e-05 0)
(0.36003987 2.6613528e-05 0)
(0.53214753 5.7237329e-05 0)
(0.75204133 0.00010911099 0)
(1.0174723 0.00017936764 0)
(1.3128926 0.0002380277 0)
(1.6051414 0.00023747277 0)
(1.8455877 0.00017751451 0)
(1.9827514 6.5549155e-05 0)
(1.9827514 -6.552831e-05 0)
(1.8455877 -0.00017749498 0)
(1.6051414 -0.00023745579 0)
(1.3128926 -0.00023801408 0)
(1.0174723 -0.00017935805 0)
(0.75204133 -0.00010910591 0)
(0.53214753 -5.723547e-05 0)
(0.36003988 -2.6612956e-05 0)
(0.23059503 -1.0901486e-05 0)
(0.13591294 -3.6959923e-06 0)
(0.067989795 -8.7805168e-07 0)
(0.019915698 -1.2759426e-07 0)
(0.019909217 1.0465861e-07 0)
(0.06796814 7.2316707e-07 0)
(0.13587083 3.0521207e-06 0)
(0.23052654 9.0118221e-06 0)
(0.35993984 2.199962e-05 0)
(0.53201542 4.7472686e-05 0)
(0.75188901 9.2013028e-05 0)
(1.0173341 0.0001561813 0)
(1.3128278 0.00021699757 0)
(1.6051595 0.00022709951 0)
(1.8456699 0.00017233206 0)
(1.982868 6.4155834e-05 0)
(1.982868 -6.4137953e-05 0)
(1.8456699 -0.00017231588 0)
(1.6051595 -0.00022708635 0)
(1.3128278 -0.00021698844 0)
(1.0173342 -0.00015617603 0)
(0.75188903 -9.2009476e-05 0)
(0.53201543 -4.7469631e-05 0)
(0.35993986 -2.1997038e-05 0)
(0.23052655 -9.0100805e-06 0)
(0.13587085 -3.0513041e-06 0)
(0.067968149 -7.2274354e-07 0)
(0.019909219 -1.0462317e-07 0)
(0.019903971 8.611594e-08 0)
(0.067950551 5.969376e-07 0)
(0.13583649 2.5271879e-06 0)
(0.2304703 7.4911857e-06 0)
(0.35985692 1.8375379e-05 0)
(0.53190435 3.9834139e-05 0)
(0.75175836 7.7710316e-05 0)
(1.0172122 0.00013432311 0)
(1.3127613 0.00019323386 0)
(1.6051771 0.00021058616 0)
(1.8457533 0.00016273501 0)
(1.9829863 6.109231e-05 0)
(1.9829863 -6.1074196e-05 0)
(1.8457533 -0.00016271869 0)
(1.6051772 -0.00021057423 0)
(1.3127614 -0.00019322735 0)
(1.0172122 -0.00013432439 0)
(0.7517584 -7.7717197e-05 0)
(0.53190439 -3.9842307e-05 0)
(0.35985695 -1.8381521e-05 0)
(0.23047032 -7.4945083e-06 0)
(0.1358365 -2.5287288e-06 0)
(0.067950562 -5.9724828e-07 0)
(0.019903975 -8.6213262e-08 0)
(0.019899543 7.3337214e-08 0)
(0.067935688 5.0891014e-07 0)
(0.13580742 2.156589e-06 0)
(0.23042259 6.4021554e-06 0)
(0.35978626 1.57465e-05 0)
(0.53180889 3.4276317e-05 0)
(0.75164408 6.7203082e-05 0)
(1.017102 0.0001172292 0)
(1.3126976 0.00017262543 0)
(1.6051928 0.00019309232 0)
(1.8458371 0.0001522044 0)
(1.9831061 5.7553153e-05 0)
(1.9831061 -5.7534372e-05 0)
(1.8458371 -0.00015218686 0)
(1.6051929 -0.00019307416 0)
(1.3126977 -0.00017261381 0)
(1.0171021 -0.00011721863 0)
(0.75164413 -6.7194166e-05 0)
(0.53180893 -3.4269964e-05 0)
(0.35978629 -1.5742971e-05 0)
(0.2304226 -6.4005372e-06 0)
(0.13580743 -2.1561984e-06 0)
(0.067935694 -5.0847242e-07 0)
(0.019899545 -7.3364109e-08 0)
(0.019895722 6.3702163e-08 0)
(0.067922851 4.424755e-07 0)
(0.13578228 1.8764399e-06 0)
(0.23038125 5.5760256e-06 0)
(0.35972483 1.3737969e-05 0)
(0.53172535 2.999746e-05 0)
(0.75154263 5.9111715e-05 0)
(1.017001 0.00010388948 0)
(1.3126344 0.00015540545 0)
(1.6052015 0.00017849989 0)
(1.8459125 0.00014272174 0)
(1.9832185 5.4338585e-05 0)
(1.9832185 -5.4321778e-05 0)
(1.8459125 -0.00014270768 0)
(1.6052015 -0.00017849085 0)
(1.3126345 -0.00015540032 0)
(1.0170011 -0.00010388841 0)
(0.75154268 -5.911277e-05 0)
(0.53172538 -2.9999227e-05 0)
(0.35972485 -1.3739647e-05 0)
(0.23038126 -5.5771138e-06 0)
(0.13578229 -1.8770523e-06 0)
(0.067922853 -4.4244028e-07 0)
(0.019895722 -6.3751768e-08 0)
(0.019892372 5.6064597e-08 0)
(0.06791159 3.8975191e-07 0)
(0.13576021 1.653891e-06 0)
(0.23034491 4.9184777e-06 0)
(0.35967069 1.213181e-05 0)
(0.53165136 2.6542942e-05 0)
(0.7514519 5.2500707e-05 0)
(1.0169086 9.2879196e-05 0)
(1.3125728 0.00014061944 0)
(1.605205 0.00016530123 0)
(1.8459798 0.000133995 0)
(1.9833221 5.1393868e-05 0)
(1.9833221 -5.1380718e-05 0)
(1.8459798 -0.00013398291 0)
(1.605205 -0.00016529115 0)
(1.3125728 -0.0001406093 0)
(1.0169086 -9.28702e-05 0)
(0.75145192 -5.2493988e-05 0)
(0.53165137 -2.65393e-05 0)
(0.35967069 -1.2130596e-05 0)
(0.2303449 -4.9183603e-06 0)
(0.13576021 -1.6542185e-06 0)
(0.067911584 -3.8973074e-07 0)
(0.01989237 -5.6129147e-08 0)
(0.019889405 4.9832817e-08 0)
(0.067901612 3.4665103e-07 0)
(0.13574065 1.4717451e-06 0)
(0.23031265 4.3796178e-06 0)
(0.35962254 1.08131e-05 0)
(0.53158532 2.369338e-05 0)
(0.7513703 4.6987744e-05 0)
(1.016824 8.3551218e-05 0)
(1.3125139 0.0001277426 0)
(1.6052051 0.00015293722 0)
(1.8460415 0.00012582324 0)
(1.9834196 4.8618096e-05 0)
(1.9834196 -4.8616092e-05 0)
(1.8460415 -0.00012582103 0)
(1.6052051 -0.00015293591 0)
(1.3125139 -0.00012773897 0)
(1.016824 -8.3544878e-05 0)
(0.75137028 -4.6981176e-05 0)
(0.5315853 -2.3688893e-05 0)
(0.35962251 -1.0810919e-05 0)
(0.23031262 -4.3788101e-06 0)
(0.13574063 -1.4715513e-06 0)
(0.067901599 -3.4655813e-07 0)
(0.019889401 -4.9843835e-08 0)
(0.019886754 4.4696586e-08 0)
(0.067892692 3.1103902e-07 0)
(0.13572315 1.3210406e-06 0)
(0.23028377 3.9329712e-06 0)
(0.35957937 9.7176677e-06 0)
(0.53152594 2.1318941e-05 0)
(0.7512965 4.2365086e-05 0)
(1.0167466 7.5625128e-05 0)
(1.3124581 0.0001165464 0)
(1.6052027 0.00014169979 0)
(1.8460982 0.00011826933 0)
(1.9835117 4.6026866e-05 0)
(1.9835117 -4.6038493e-05 0)
(1.8460982 -0.0001182793 0)
(1.6052027 -0.00014170744 0)
(1.3124581 -0.00011654764 0)
(1.0167465 -7.5621415e-05 0)
(0.75129645 -4.2359369e-05 0)
(0.5315259 -2.1314039e-05 0)
(0.35957933 -9.7146181e-06 0)
(0.23028373 -3.9314704e-06 0)
(0.13572312 -1.3205026e-06 0)
(0.067892677 -3.1086242e-07 0)
(0.019886749 -4.4685237e-08 0)
(0.019884365 4.0395779e-08 0)
(0.067884651 2.8115823e-07 0)
(0.13570736 1.1945072e-06 0)
(0.23025771 3.5574699e-06 0)
(0.35954037 8.7950136e-06 0)
(0.53147218 1.9313713e-05 0)
(0.75122937 3.8444943e-05 0)
(1.0166753 6.8843073e-05 0)
(1.3124053 0.00010678482 0)
(1.6051983 0.00013154866 0)
(1.8461504 0.00011131967 0)
(1.9835985 4.361872e-05 0)
(1.9835985 -4.3645948e-05 0)
(1.8461504 -0.00011134291 0)
(1.6051982 -0.00013156507 0)
(1.3124052 -0.00010679135 0)
(1.0166753 -6.8843211e-05 0)
(0.7512293 -3.8443126e-05 0)
(0.53147212 -1.9312524e-05 0)
(0.35954032 -8.7946882e-06 0)
(0.23025767 -3.5574593e-06 0)
(0.13570734 -1.1945481e-06 0)
(0.067884636 -2.8121342e-07 0)
(0.01988436 -4.0413046e-08 0)
(0.019882198 3.6726714e-08 0)
(0.067877355 2.5564132e-07 0)
(0.13569304 1.08642e-06 0)
(0.23023405 3.2364655e-06 0)
(0.35950493 8.0052541e-06 0)
(0.53142323 1.7593616e-05 0)
(0.751168 3.5070297e-05 0)
(1.0166096 6.296567e-05 0)
(1.3123554 9.8200631e-05 0)
(1.6051923 0.0001223252 0)
(1.8461982 0.00010489823 0)
(1.9836803 4.1370511e-05 0)
(1.9836803 -4.1412746e-05 0)
(1.8461982 -0.00010493416 0)
(1.6051923 -0.00012234867 0)
(1.3123553 -9.8211303e-05 0)
(1.0166095 -6.2966682e-05 0)
(0.75116793 -3.5067086e-05 0)
(0.53142317 -1.7590074e-05 0)
(0.35950488 -8.0028897e-06 0)
(0.23023401 -3.2352344e-06 0)
(0.13569301 -1.0859609e-06 0)
(0.067877342 -2.5545069e-07 0)
(0.019882193 -3.6714441e-08 0)
(0.019880221 3.355096e-08 0)
(0.067870701 2.3356367e-07 0)
(0.13567997 9.9286424e-07 0)
(0.23021245 2.9585467e-06 0)
(0.35947255 7.3209643e-06 0)
(0.53137845 1.6100931e-05 0)
(0.75111168 3.213321e-05 0)
(1.0165488 5.7821326e-05 0)
(1.3123083 9.0595763e-05 0)
(1.6051852 0.00011394036 0)
(1.8462424 9.8935592e-05 0)
(1.9837576 3.9263477e-05 0)
(1.9837576 -3.9316298e-05 0)
(1.8462423 -9.8981217e-05 0)
(1.6051851 -0.00011397198 0)
(1.3123082 -9.0613935e-05 0)
(1.0165488 -5.7829424e-05 0)
(0.7511116 -3.2135799e-05 0)
(0.53137839 -1.6101304e-05 0)
(0.3594725 -7.3208196e-06 0)
(0.23021242 -2.9584351e-06 0)
(0.13567995 -9.9280044e-07 0)
(0.06787069 -2.335189e-07 0)
(0.019880218 -3.3545758e-08 0)
(0.019878411 3.0774632e-08 0)
(0.067864604 2.1428358e-07 0)
(0.13566799 9.1112455e-07 0)
(0.23019265 2.7157182e-06 0)
(0.35944284 6.7227439e-06 0)
(0.53133731 1.4794518e-05 0)
(0.7510598 2.9556756e-05 0)
(1.0164925 5.3286982e-05 0)
(1.3122639 8.3821405e-05 0)
(1.6051773 0.00010630724 0)
(1.8462831 9.3379774e-05 0)
(1.9838307 3.7284024e-05 0)
(1.9838307 -3.7341952e-05 0)
(1.846283 -9.3429707e-05 0)
(1.6051772 -0.00010634303 0)
(1.3122638 -8.3844054e-05 0)
(1.0164924 -5.3299679e-05 0)
(0.75105973 -2.9562822e-05 0)
(0.53133725 -1.4796609e-05 0)
(0.3594428 -6.7230993e-06 0)
(0.23019262 -2.7156993e-06 0)
(0.13566797 -9.1108743e-07 0)
(0.067864593 -2.1428228e-07 0)
(0.019878407 -3.0765109e-08 0)
(0.019876746 2.8331456e-08 0)
(0.067858997 1.973328e-07 0)
(0.13565697 8.3921869e-07 0)
(0.23017442 2.5020425e-06 0)
(0.35941548 6.1959901e-06 0)
(0.53129939 1.3642813e-05 0)
(0.75101186 2.7280583e-05 0)
(1.0164402 4.9264469e-05 0)
(1.312222 7.7756109e-05 0)
(1.6051688 9.9338338e-05 0)
(1.8463207 8.8188435e-05 0)
(1.9838998 3.5419605e-05 0)
(1.9838998 -3.5480267e-05 0)
(1.8463207 -8.8241069e-05 0)
(1.6051687 -9.9378848e-05 0)
(1.3122219 -7.778418e-05 0)
(1.0164401 -4.9283346e-05 0)
(0.75101179 -2.7293077e-05 0)
(0.53129933 -1.3650723e-05 0)
(0.35941544 -6.2003936e-06 0)
(0.23017439 -2.5040905e-06 0)
(0.13565695 -8.3992284e-07 0)
(0.067858985 -1.976167e-07 0)
(0.019876742 -2.8344472e-08 0)
(0.01987521 2.6172514e-08 0)
(0.067853823 1.823511e-07 0)
(0.1356468 7.7561758e-07 0)
(0.2301576 2.3129099e-06 0)
(0.35939022 5.7292752e-06 0)
(0.53126432 1.2620851e-05 0)
(0.75096745 2.525618e-05 0)
(1.0163915 4.5672997e-05 0)
(1.3121825 7.2296897e-05 0)
(1.60516 9.295531e-05 0)
(1.8463556 8.3324955e-05 0)
(1.9839652 3.3659145e-05 0)
(1.9839652 -3.3720884e-05 0)
(1.8463555 -8.3379224e-05 0)
(1.6051599 -9.2996618e-05 0)
(1.3121824 -7.232596e-05 0)
(1.0163913 -4.569158e-05 0)
(0.75096735 -2.5267267e-05 0)
(0.53126424 -1.2627025e-05 0)
(0.35939016 -5.7324079e-06 0)
(0.23015756 -2.3143014e-06 0)
(0.13564678 -7.7602021e-07 0)
(0.067853809 -1.8256321e-07 0)
(0.019875206 -2.6172221e-08 0)
(0.019873789 2.4259965e-08 0)
(0.067849034 1.6903865e-07 0)
(0.13563739 7.190725e-07 0)
(0.23014202 2.1445132e-06 0)
(0.35936681 5.3131577e-06 0)
(0.53123181 1.1708069e-05 0)
(0.7509262 2.3443743e-05 0)
(1.016346 4.2445934e-05 0)
(1.3121452 6.7356976e-05 0)
(1.605151 8.7088533e-05 0)
(1.8463879 7.875752e-05 0)
(1.9840271 3.1992069e-05 0)
(1.9840271 -3.2055522e-05 0)
(1.8463878 -7.8813507e-05 0)
(1.6051508 -8.7133745e-05 0)
(1.3121451 -6.7390608e-05 0)
(1.0163459 -4.247042e-05 0)
(0.75092611 -2.3461249e-05 0)
(0.53123174 -1.1719531e-05 0)
(0.35936675 -5.3196909e-06 0)
(0.23014198 -2.1476845e-06 0)
(0.13563736 -7.2030516e-07 0)
(0.067849019 -1.6944622e-07 0)
(0.019873784 -2.4309737e-08 0)
(0.019872469 2.2555131e-08 0)
(0.067844587 1.5713043e-07 0)
(0.13562865 6.6846475e-07 0)
(0.23012755 1.9935856e-06 0)
(0.35934506 4.9396937e-06 0)
(0.53120159 1.0887401e-05 0)
(0.7508878 2.1810505e-05 0)
(1.0163036 3.9528435e-05 0)
(1.3121101 6.2863659e-05 0)
(1.6051419 8.1677769e-05 0)
(1.8464179 7.4458894e-05 0)
(1.9840857 3.0409357e-05 0)
(1.9840857 -3.0476004e-05 0)
(1.8464178 -7.4516979e-05 0)
(1.6051417 -8.172134e-05 0)
(1.3121099 -6.289391e-05 0)
(1.0163034 -3.9548597e-05 0)
(0.75088769 -2.1823805e-05 0)
(0.5312015 -1.0895253e-05 0)
(0.359345 -4.9435659e-06 0)
(0.23012751 -1.9952755e-06 0)
(0.13562862 -6.6916902e-07 0)
(0.067844571 -1.5732936e-07 0)
(0.019872464 -2.2591296e-08 0)
(0.019871241 2.1016211e-08 0)
(0.06784045 1.4634805e-07 0)
(0.13562052 6.2266288e-07 0)
(0.23011409 1.856899e-06 0)
(0.35932483 4.6012395e-06 0)
(0.53117345 1.0142998e-05 0)
(0.750852 2.032721e-05 0)
(1.0162639 3.6873082e-05 0)
(1.3120769 5.8754736e-05 0)
(1.6051328 7.6670868e-05 0)
(1.8464458 7.0406329e-05 0)
(1.9841412 2.8904371e-05 0)
(1.9841412 -2.8974809e-05 0)
(1.8464457 -7.0467395e-05 0)
(1.6051327 -7.6717018e-05 0)
(1.3120768 -5.8786246e-05 0)
(1.0162637 -3.6891973e-05 0)
(0.75085189 -2.0336294e-05 0)
(0.53117337 -1.014568e-05 0)
(0.35932477 -4.6010267e-06 0)
(0.23011404 -1.8562598e-06 0)
(0.13562049 -6.22219e-07 0)
(0.067840434 -1.4629896e-07 0)
(0.019871236 -2.0961702e-08 0)
(0.019870096 1.9608494e-08 0)
(0.067836592 1.364822e-07 0)
(0.13561293 5.8076843e-07 0)
(0.23010153 1.7318847e-06 0)
(0.35930595 4.2916465e-06 0)
(0.53114719 9.4619171e-06 0)
(0.75081855 1.8969523e-05 0)
(1.0162267 3.4439846e-05 0)
(1.3120456 5.4976918e-05 0)
(1.6051238 7.2021675e-05 0)
(1.8464718 6.6580162e-05 0)
(1.9841938 2.7471956e-05 0)
(1.9841938 -2.754366e-05 0)
(1.8464717 -6.6642655e-05 0)
(1.6051237 -7.2070147e-05 0)
(1.3120455 -5.5011784e-05 0)
(1.0162265 -3.4462178e-05 0)
(0.75081843 -1.8981244e-05 0)
(0.5311471 -9.4670079e-06 0)
(0.35930588 -4.2932969e-06 0)
(0.23010149 -1.7319798e-06 0)
(0.1356129 -5.803652e-07 0)
(0.067836576 -1.3638542e-07 0)
(0.019870091 -1.9557652e-08 0)
(0.019869028 1.8303777e-08 0)
(0.067832992 1.273698e-07 0)
(0.13560585 5.4204605e-07 0)
(0.23008982 1.6164486e-06 0)
(0.35928833 4.0059074e-06 0)
(0.53112267 8.8336347e-06 0)
(0.75078728 1.7717625e-05 0)
(1.0161918 3.2195883e-05 0)
(1.3120161 5.1485807e-05 0)
(1.605115 6.7691364e-05 0)
(1.846496 6.2962838e-05 0)
(1.9842436 2.610655e-05 0)
(1.9842436 -2.6177648e-05 0)
(1.8464959 -6.3024409e-05 0)
(1.6051148 -6.7740038e-05 0)
(1.3120159 -5.1520314e-05 0)
(1.0161917 -3.2217741e-05 0)
(0.75078716 -1.7730273e-05 0)
(0.53112258 -8.8416566e-06 0)
(0.35928827 -4.0112152e-06 0)
(0.23008977 -1.6192606e-06 0)
(0.13560583 -5.4284673e-07 0)
(0.067832979 -1.2788791e-07 0)
(0.019869024 -1.8277298e-08 0)
(0.01986803 1.7083461e-08 0)
(0.06782963 1.1888242e-07 0)
(0.13559925 5.0594499e-07 0)
(0.23007887 1.5089491e-06 0)
(0.35927188 3.7400314e-06 0)
(0.53109975 8.2496863e-06 0)
(0.75075803 1.6555584e-05 0)
(1.0161591 3.0114911e-05 0)
(1.3119882 4.8245702e-05 0)
(1.6051064 6.3647835e-05 0)
(1.8465186 5.9541346e-05 0)
(1.9842908 2.4804656e-05 0)
(1.9842907 -2.4873032e-05 0)
(1.8465185 -5.9601498e-05 0)
(1.6051062 -6.3694198e-05 0)
(1.311988 -4.8277392e-05 0)
(1.0161589 -3.0133577e-05 0)
(0.7507579 -1.6566339e-05 0)
(0.53109966 -8.2564032e-06 0)
(0.35927182 -3.7444727e-06 0)
(0.23007884 -1.5117519e-06 0)
(0.13559923 -5.0745157e-07 0)
(0.06782962 -1.1936682e-07 0)
(0.019868027 -1.7183127e-08 0)
(0.019867098 1.5935661e-08 0)
(0.067826492 1.1091819e-07 0)
(0.13559308 4.7203347e-07 0)
(0.23006866 1.4080405e-06 0)
(0.3592565 3.490752e-06 0)
(0.53107833 7.7032818e-06 0)
(0.75073065 1.5471091e-05 0)
(1.0161284 2.8177398e-05 0)
(1.3119619 4.5230382e-05 0)
(1.6050979 5.986696e-05 0)
(1.8465397 5.6306728e-05 0)
(1.9843354 2.3564236e-05 0)
(1.9843354 -2.3626629e-05 0)
(1.8465396 -5.6362968e-05 0)
(1.6050978 -5.9913089e-05 0)
(1.3119617 -4.5263828e-05 0)
(1.0161283 -2.8198993e-05 0)
(0.75073053 -1.5483463e-05 0)
(0.53107826 -7.708309e-06 0)
(0.35925646 -3.4915502e-06 0)
(0.23006863 -1.4079161e-06 0)
(0.13559306 -4.7235809e-07 0)
(0.067826484 -1.1072219e-07 0)
(0.019867096 -1.6014635e-08 0)
(0.01986623 1.48481e-08 0)
(0.067823565 1.0338499e-07 0)
(0.13558732 4.3997326e-07 0)
(0.23005912 1.3128026e-06 0)
(0.35924215 3.256172e-06 0)
(0.53105831 7.1911197e-06 0)
(0.75070501 1.4459101e-05 0)
(1.0160996 2.6376149e-05 0)
(1.311937 4.242999e-05 0)
(1.6050897 5.6339545e-05 0)
(1.8465595 5.3259517e-05 0)
(1.9843777 2.238664e-05 0)
(1.9843777 -2.2440177e-05 0)
(1.8465593 -5.3307077e-05 0)
(1.6050896 -5.6376549e-05 0)
(1.3119368 -4.2453752e-05 0)
(1.0160994 -2.6386985e-05 0)
(0.75070488 -1.4458677e-05 0)
(0.53105822 -7.1833385e-06 0)
(0.35924209 -3.2465127e-06 0)
(0.23005908 -1.3058149e-06 0)
(0.13558729 -4.3609704e-07 0)
(0.067823552 -1.0241119e-07 0)
(0.019866226 -1.4531461e-08 0)
(0.019865421 1.380699e-08 0)
(0.067820839 9.6190484e-08 0)
(0.13558196 4.0953809e-07 0)
(0.23005024 1.2227983e-06 0)
(0.35922876 3.0358574e-06 0)
(0.53103959 6.7137735e-06 0)
(0.75068098 1.352334e-05 0)
(1.0160725 2.4719829e-05 0)
(1.3119135 3.9856494e-05 0)
(1.6050818 5.3078577e-05 0)
(1.8465779 5.041397e-05 0)
(1.9844178 2.1278949e-05 0)
(1.9844178 -2.1323116e-05 0)
(1.8465778 -5.0455094e-05 0)
(1.6050816 -5.3113433e-05 0)
(1.3119133 -3.9884113e-05 0)
(1.0160723 -2.4738694e-05 0)
(0.75068084 -1.3533036e-05 0)
(0.53103949 -6.7181275e-06 0)
(0.35922868 -3.0373513e-06 0)
(0.23005019 -1.2224461e-06 0)
(0.13558193 -4.0789296e-07 0)
(0.067820826 -9.6390498e-08 0)
(0.019865417 -1.3539852e-08 0)
(0.019864669 1.2819283e-08 0)
(0.067818303 8.9401246e-08 0)
(0.13557696 3.8107872e-07 0)
(0.23004195 1.1392084e-06 0)
(0.35921624 2.8330694e-06 0)
(0.53102206 6.2790918e-06 0)
(0.75065841 1.2680016e-05 0)
(1.016047 2.3235821e-05 0)
(1.3118912 3.7545873e-05 0)
(1.6050741 5.0120794e-05 0)
(1.8465951 4.7802864e-05 0)
(1.9844558 2.0256227e-05 0)
(1.9844558 -2.028804e-05 0)
(1.846595 -4.7835111e-05 0)
(1.6050739 -5.0153445e-05 0)
(1.311891 -3.7577287e-05 0)
(1.0160468 -2.3263516e-05 0)
(0.75065826 -1.2703533e-05 0)
(0.53102194 -6.3016373e-06 0)
(0.35921616 -2.8528358e-06 0)
(0.2300419 -1.1517157e-06 0)
(0.13557694 -3.8638426e-07 0)
(0.067818291 -9.178659e-08 0)
(0.019864666 -1.3046442e-08 0)
(0.01986397 1.1921963e-08 0)
(0.067815941 8.3284985e-08 0)
(0.1355723 3.5571255e-07 0)
(0.23003419 1.0653418e-06 0)
(0.3592045 2.6559821e-06 0)
(0.53100556 5.9044352e-06 0)
(0.75063711 1.1960653e-05 0)
(1.0160228 2.197219e-05 0)
(1.31187 3.5558109e-05 0)
(1.6050666 4.7527985e-05 0)
(1.8466114 4.5469299e-05 0)
(1.9844919 1.9332335e-05 0)
(1.9844919 -1.9355198e-05 0)
(1.8466113 -4.5493347e-05 0)
(1.6050664 -4.7553723e-05 0)
(1.3118698 -3.5581734e-05 0)
(1.0160226 -2.1990081e-05 0)
(0.75063693 -1.1973058e-05 0)
(0.53100543 -5.9150006e-06 0)
(0.35920441 -2.6662182e-06 0)
(0.23003415 -1.0730186e-06 0)
(0.13557228 -3.6020833e-07 0)
(0.067815931 -8.4377754e-08 0)
(0.019863968 -1.2265304e-08 0)
(0.019863317 1.1158472e-08 0)
(0.06781373 7.811933e-08 0)
(0.13556793 3.3474983e-07 0)
(0.2300269 1.0050377e-06 0)
(0.35919341 2.5139233e-06 0)
(0.53098992 5.6094683e-06 0)
(0.75061686 1.1401224e-05 0)
(1.0159998 2.0984629e-05 0)
(1.3118498 3.3964015e-05 0)
(1.6050594 4.5375094e-05 0)
(1.8466267 4.3462765e-05 0)
(1.9845264 1.8522824e-05 0)
(1.9845264 -1.8543614e-05 0)
(1.8466266 -4.348406e-05 0)
(1.6050593 -4.5397512e-05 0)
(1.3118496 -3.3986242e-05 0)
(1.0159996 -2.1003738e-05 0)
(0.7506167 -1.1413638e-05 0)
(0.5309898 -5.6123791e-06 0)
(0.35919333 -2.5107726e-06 0)
(0.23002686 -1.0016168e-06 0)
(0.13556791 -3.3334455e-07 0)
(0.067813721 -7.6716933e-08 0)
(0.019863315 -1.113525e-08 0)
(0.0198627 1.0601126e-08 0)
(0.067811637 7.4334523e-08 0)
(0.13556378 3.1995341e-07 0)
(0.23001994 9.6311416e-07 0)
(0.3591828 2.4176761e-06 0)
(0.53097491 5.4145936e-06 0)
(0.75059738 1.1035084e-05 0)
(1.0159777 2.0320831e-05 0)
(1.3118305 3.2821886e-05 0)
(1.6050526 4.3720196e-05 0)
(1.8466415 4.1821361e-05 0)
(1.9845595 1.783833e-05 0)
(1.9845594 -1.7859098e-05 0)
(1.8466413 -4.1840077e-05 0)
(1.6050524 -4.3735507e-05 0)
(1.3118303 -3.2835229e-05 0)
(1.0159775 -2.0335138e-05 0)
(0.75059725 -1.1048442e-05 0)
(0.53097482 -5.420672e-06 0)
(0.35918274 -2.4159881e-06 0)
(0.23001991 -9.5924643e-07 0)
(0.13556376 -3.1719878e-07 0)
(0.067811628 -7.3352054e-08 0)
(0.019862698 -1.0368226e-08 0)
(0.019862107 1.0338398e-08 0)
(0.067809617 7.2466258e-08 0)
(0.13555976 3.1348413e-07 0)
(0.23001319 9.4533668e-07 0)
(0.35917245 2.3794801e-06 0)
(0.53096023 5.3410431e-06 0)
(0.75057835 1.0892537e-05 0)
(1.0159562 2.0017106e-05 0)
(1.3118119 3.2168992e-05 0)
(1.6050461 4.2588522e-05 0)
(1.8466557 4.0555648e-05 0)
(1.9845914 1.7280359e-05 0)
(1.9845913 -1.7304395e-05 0)
(1.8466556 -4.0577946e-05 0)
(1.6050459 -4.2603973e-05 0)
(1.3118117 -3.2174988e-05 0)
(1.015956 -2.0019567e-05 0)
(0.75057821 -1.0893062e-05 0)
(0.53096014 -5.3385311e-06 0)
(0.3591724 -2.3758899e-06 0)
(0.23001316 -9.4216516e-07 0)
(0.13555974 -3.1120038e-07 0)
(0.067809609 -7.2406241e-08 0)
(0.019862104 -1.007186e-08 0)
(0.019861519 1.0409802e-08 0)
(0.067807613 7.2793036e-08 0)
(0.13555577 3.1643852e-07 0)
(0.23000646 9.5467623e-07 0)
(0.35916213 2.4050999e-06 0)
(0.5309456 5.3974001e-06 0)
(0.75055945 1.0981985e-05 0)
(1.015935 2.007581e-05 0)
(1.3117939 3.1999136e-05 0)
(1.6050401 4.1953949e-05 0)
(1.8466698 3.9652967e-05 0)
(1.9846225 1.6850697e-05 0)
(1.9846224 -1.6879314e-05 0)
(1.8466697 -3.9681547e-05 0)
(1.6050399 -4.1974599e-05 0)
(1.3117936 -3.2006009e-05 0)
(1.0159348 -2.0075758e-05 0)
(0.75055931 -1.0976257e-05 0)
(0.5309455 -5.3862458e-06 0)
(0.35916207 -2.3944603e-06 0)
(0.23000643 -9.4695698e-07 0)
(0.13555575 -3.1133262e-07 0)
(0.067807606 -7.1668572e-08 0)
(0.019861517 -9.904498e-09 0)
(0.019860918 1.0874012e-08 0)
(0.067805558 7.5709589e-08 0)
(0.13555167 3.2988666e-07 0)
(0.22999955 9.9359877e-07 0)
(0.35915157 2.4983445e-06 0)
(0.5309307 5.5856587e-06 0)
(0.75054039 1.1293025e-05 0)
(1.015914 2.0456815e-05 0)
(1.3117763 3.2233836e-05 0)
(1.6050346 4.1717282e-05 0)
(1.8466839 3.9063796e-05 0)
(1.984653 1.6543068e-05 0)
(1.9846529 -1.6580195e-05 0)
(1.8466838 -3.9099624e-05 0)
(1.6050344 -4.1744002e-05 0)
(1.311776 -3.2248057e-05 0)
(1.0159138 -2.0463613e-05 0)
(0.75054026 -1.1293354e-05 0)
(0.53093062 -5.5804451e-06 0)
(0.35915152 -2.4920456e-06 0)
(0.22999953 -9.884926e-07 0)
(0.13555165 -3.258406e-07 0)
(0.067805553 -7.4636057e-08 0)
(0.019860916 -1.05257e-08 0)
(0.019860281 1.1736177e-08 0)
(0.067803383 8.1178598e-08 0)
(0.13554734 3.5351302e-07 0)
(0.22999229 1.0605914e-06 0)
(0.35914052 2.6535191e-06 0)
(0.53091527 5.8880131e-06 0)
(0.75052092 1.177847e-05 0)
(1.0158929 2.1051977e-05 0)
(1.3117591 3.2678879e-05 0)
(1.6050297 4.1679439e-05 0)
(1.8466981 3.8663023e-05 0)
(1.9846831 1.6329324e-05 0)
(1.9846831 -1.6375255e-05 0)
(1.8466979 -3.8705056e-05 0)
(1.6050295 -4.1710884e-05 0)
(1.3117589 -3.269796e-05 0)
(1.0158927 -2.1056817e-05 0)
(0.75052079 -1.1771243e-05 0)
(0.53091519 -5.8807325e-06 0)
(0.35914048 -2.6533103e-06 0)
(0.22999228 -1.0641143e-06 0)
(0.13554733 -3.5641723e-07 0)
(0.067803382 -8.2072129e-08 0)
(0.01986028 -1.2261147e-08 0)
(0.019859589 1.2867268e-08 0)
(0.067801032 8.8487473e-08 0)
(0.13554268 3.8385207e-07 0)
(0.22998453 1.1452262e-06 0)
(0.35912884 2.8429178e-06 0)
(0.53089919 6.2406087e-06 0)
(0.75050101 1.2308865e-05 0)
(1.0158718 2.1625487e-05 0)
(1.3117425 3.2968034e-05 0)
(1.6050255 4.1474627e-05 0)
(1.8467123 3.8182166e-05 0)
(1.9847129 1.6131979e-05 0)
(1.9847129 -1.618309e-05 0)
(1.8467122 -3.8228321e-05 0)
(1.6050252 -4.1511517e-05 0)
(1.3117423 -3.2995273e-05 0)
(1.0158716 -2.1639335e-05 0)
(0.75050085 -1.2307022e-05 0)
(0.53089907 -6.2337903e-06 0)
(0.35912879 -2.843333e-06 0)
(0.22998451 -1.1509298e-06 0)
(0.13554267 -3.8876724e-07 0)
(0.067801033 -9.0192687e-08 0)
(0.01985959 -1.3417032e-08 0)
(0.019858829 1.4179208e-08 0)
(0.067798462 9.7078118e-08 0)
(0.13553762 4.1756111e-07 0)
(0.2299762 1.2367871e-06 0)
(0.35911648 3.0374406e-06 0)
(0.53088247 6.5697315e-06 0)
(0.75048078 1.2711366e-05 0)
(1.015851 2.1842274e-05 0)
(1.3117267 3.2607934e-05 0)
(1.6050217 4.050319e-05 0)
(1.8467264 3.7110848e-05 0)
(1.9847423 1.5699149e-05 0)
(1.9847422 -1.5759895e-05 0)
(1.8467263 -3.7165146e-05 0)
(1.6050215 -4.0546692e-05 0)
(1.3117264 -3.2641204e-05 0)
(1.0158508 -2.1873135e-05 0)
(0.75048064 -1.2733411e-05 0)
(0.53088237 -6.5765903e-06 0)
(0.35911643 -3.0390853e-06 0)
(0.22997619 -1.2396247e-06 0)
(0.13553763 -4.1937691e-07 0)
(0.067798468 -9.8388726e-08 0)
(0.019858832 -1.393359e-08 0)
(0.019858 1.5554767e-08 0)
(0.067795678 1.0583746e-07 0)
(0.13553219 4.5042389e-07 0)
(0.22996737 1.3217737e-06 0)
(0.35910361 3.2010407e-06 0)
(0.5308655 6.7875622e-06 0)
(0.75046094 1.2792177e-05 0)
(1.0158314 2.133023e-05 0)
(1.3117122 3.1081381e-05 0)
(1.6050186 3.8054028e-05 0)
(1.84674 3.474161e-05 0)
(1.9847704 1.457515e-05 0)
(1.9847703 -1.4650511e-05 0)
(1.8467398 -3.4804827e-05 0)
(1.6050183 -3.8102079e-05 0)
(1.3117119 -3.11138e-05 0)
(1.0158311 -2.1357163e-05 0)
(0.7504608 -1.2817302e-05 0)
(0.53086543 -6.8010752e-06 0)
(0.35910358 -3.2062795e-06 0)
(0.22996736 -1.325295e-06 0)
(0.1355322 -4.5289673e-07 0)
(0.067795683 -1.0626063e-07 0)
(0.019858002 -1.5653393e-08 0)
(0.019857101 1.6661127e-08 0)
(0.067792689 1.1265669e-07 0)
(0.13552644 4.7278892e-07 0)
(0.22995817 1.3713876e-06 0)
(0.35909054 3.2621156e-06 0)
(0.53084888 6.7402892e-06 0)
(0.75044233 1.2261106e-05 0)
(1.0158138 1.9616796e-05 0)
(1.3116997 2.7767814e-05 0)
(1.6050163 3.3366607e-05 0)
(1.8467528 3.0244402e-05 0)
(1.9847959 1.2292859e-05 0)
(1.9847958 -1.2379743e-05 0)
(1.8467525 -3.0316067e-05 0)
(1.605016 -3.3425171e-05 0)
(1.3116994 -2.7814479e-05 0)
(1.0158136 -1.9647714e-05 0)
(0.75044214 -1.2285825e-05 0)
(0.53084875 -6.7590885e-06 0)