/*--------------------------------*- C++ -*----------------------------------*\
  =========                 |
  \\      /  F ield         | OpenFOAM: The Open Source CFD Toolbox
   \\    /   O peration     | Website:  https://openfoam.org
    \\  /    A nd           | Version:  10
     \\/     M anipulation  |
\*---------------------------------------------------------------------------*/
FoamFile
{
    format      ascii;
    class       volScalarField;
    location    "0.075";
    object      T;
}
// * * * * * * * * * * * * * * * * * * * * * * * * * * * * * * * * * * * * * //

dimensions      [0 0 0 1 0 0 0];

internalField   nonuniform List<scalar> 
12225
(
1.00694
1.00397
1.00144
1.00053
1.00001
0.99965
0.999457
0.99937
0.999324
0.999292
0.999267
0.999228
0.99915
0.998956
0.99847
0.997311
0.994233
0.987143
0.994965
0.99447
0.996349
0.997908
0.99867
0.998979
0.999136
0.99924
0.999303
0.999334
0.999343
0.999328
0.999262
0.999082
0.998617
0.997508
0.994726
0.988287
0.999592
0.99992
1
0.999967
0.999819
0.999637
0.999514
0.999449
0.99941
0.99938
0.99935
0.999309
0.999229
0.999048
0.998608
0.997585
0.995166
0.990016
1.00032
1.00007
0.999547
0.99942
0.999421
0.999388
0.999355
0.999341
0.999335
0.999325
0.99931
0.999281
0.999212
0.99905
0.998658
0.997765
0.995775
0.991816
1.00013
0.999833
0.999434
0.999387
0.999436
0.999423
0.999388
0.999365
0.999349
0.999332
0.999311
0.999278
0.99921
0.99906
0.998716
0.997963
0.996387
0.993447
0.999993
0.999846
0.999578
0.999496
0.999494
0.99946
0.999412
0.999376
0.999351
0.999326
0.9993
0.999263
0.999197
0.999062
0.99877
0.998161
0.996958
0.994836
0.999975
0.999925
0.999719
0.999592
0.999547
0.999499
0.999443
0.999399
0.999363
0.999331
0.999298
0.999256
0.999191
0.999072
0.998832
0.998357
0.997468
0.995973
0.999983
0.999963
0.999798
0.999661
0.999596
0.999539
0.999477
0.999423
0.999378
0.999338
0.999298
0.999252
0.999189
0.999082
0.998881
0.998504
0.997829
0.99673
0.999986
0.999973
0.99984
0.999706
0.999627
0.99956
0.999491
0.99943
0.999378
0.99933
0.999285
0.999236
0.999173
0.999077
0.998908
0.998606
0.998088
0.997267
0.999984
0.999963
0.999852
0.999723
0.999631
0.999554
0.999478
0.99941
0.999351
0.999298
0.999247
0.999194
0.999132
0.999046
0.998907
0.998674
0.99829
0.997699
0.99998
0.999942
0.99984
0.999715
0.999612
0.999524
0.999441
0.999366
0.9993
0.999241
0.999186
0.999131
0.999071
0.998994
0.998881
0.998705
0.998431
0.998024
0.999976
0.999921
0.999818
0.999694
0.999583
0.999486
0.999398
0.999317
0.999246
0.999181
0.999122
0.999066
0.999007
0.998939
0.998848
0.998718
0.99853
0.99826
0.999975
0.999912
0.999811
0.99969
0.999577
0.999476
0.999384
0.9993
0.999224
0.999157
0.999097
0.99904
0.998982
0.998921
0.998849
0.998755
0.998628
0.998457
0.999978
0.999919
0.999828
0.999717
0.99961
0.999512
0.999421
0.999338
0.999264
0.999197
0.999138
0.999082
0.999028
0.998975
0.998918
0.99885
0.998766
0.998661
0.999982
0.999936
0.999861
0.999769
0.999677
0.99959
0.999511
0.999438
0.99937
0.999309
0.999255
0.999206
0.999161
0.999117
0.999071
0.999023
0.99897
0.998908
0.999987
0.999957
0.999905
0.99984
0.999774
0.999712
0.999654
0.9996
0.999548
0.999503
0.999462
0.999426
0.999394
0.999363
0.999331
0.9993
0.999269
0.999236
0.999993
0.999986
0.999968
0.999941
0.999912
0.999886
0.999864
0.999841
0.99982
0.999801
0.999783
0.999768
0.999755
0.999744
0.999731
0.999718
0.999706
0.999693
1
1.00003
1.00005
1.00007
1.00009
1.00011
1.00013
1.00015
1.00017
1.00018
1.0002
1.00021
1.00022
1.00023
1.00024
1.00025
1.00025
1.00025
1.00001
1.00006
1.00011
1.00017
1.00022
1.00028
1.00034
1.00039
1.00043
1.00048
1.00051
1.00055
1.00058
1.0006
1.00063
1.00065
1.00067
1.00068
1.00001
1.00006
1.00012
1.00019
1.00026
1.00033
1.00039
1.00046
1.00052
1.00057
1.00062
1.00067
1.00071
1.00075
1.00078
1.00081
1.00084
1.00086
1.00001
1.00006
1.00012
1.00018
1.00025
1.00031
1.00038
1.00045
1.00051
1.00057
1.00062
1.00068
1.00072
1.00077
1.00081
1.00085
1.00088
1.00091
1.00001
1.00006
1.00012
1.00017
1.00023
1.0003
1.00036
1.00043
1.00049
1.00055
1.00061
1.00067
1.00072
1.00077
1.00081
1.00085
1.00089
1.00092
1
1.00008
1.00013
1.00016
1.00021
1.00027
1.00034
1.00041
1.00048
1.00054
1.0006
1.00066
1.00071
1.00076
1.00081
1.00085
1.00089
1.00093
0.999997
1.0001
1.00014
1.00015
1.00019
1.00026
1.00033
1.0004
1.00047
1.00054
1.00061
1.00067
1.00072
1.00077
1.00082
1.00086
1.00091
1.00094
1
1.00009
1.0001
1.00012
1.00019
1.00028
1.00035
1.00042
1.00049
1.00056
1.00063
1.00069
1.00074
1.00079
1.00084
1.00088
1.00093
1.00097
1.00014
1.00014
0.999953
0.999972
1.00014
1.00029
1.00039
1.00047
1.00055
1.00062
1.00068
1.00074
1.0008
1.00084
1.00089
1.00093
1.00097
1.00101
1.0005
1.00058
1.0001
0.999927
1.00003
1.00018
1.00031
1.00042
1.00053
1.00062
1.0007
1.00076
1.00082
1.00088
1.00093
1.00097
1.00102
1.00106
1.00004
1.00088
1.00115
1.00111
1.00099
1.00088
1.00081
1.0008
1.00082
1.00085
1.00088
1.00092
1.00096
1.00099
1.00103
1.00106
1.0011
1.00113
0.994517
0.993822
0.99606
0.998048
0.999185
0.99978
1.00015
1.0004
1.00059
1.00072
1.00083
1.00091
1.00098
1.00104
1.00109
1.00114
1.00118
1.00121
1.00648
1.00454
1.00223
1.0015
1.00119
1.00097
1.00088
1.00087
1.00089
1.00092
1.00096
1.00099
1.00103
1.00107
1.0011
1.00114
1.00117
1.00122
0.683798
0.683795
0.683746
0.683675
0.683597
0.683509
0.683406
0.68329
0.683165
0.683032
0.682892
0.682744
0.682589
0.682428
0.682262
0.682093
0.681921
0.68175
0.681579
0.681411
0.681249
0.681094
0.680948
0.680813
0.680691
0.680584
0.680492
0.680415
0.680353
0.680308
0.680291
0.680331
0.680494
0.6809
0.681322
0.681589
0.681876
0.682138
0.682396
0.682656
0.682893
0.683188
0.683578
0.683951
0.684365
0.684863
0.685382
0.685934
0.686516
0.687127
0.687764
0.688427
0.689113
0.689821
0.69055
0.691299
0.692066
0.692851
0.693651
0.694466
0.695294
0.696134
0.696985
0.697845
0.698714
0.69959
0.700473
0.70136
0.702252
0.703147
0.704043
0.704941
0.70584
0.706737
0.707634
0.708528
0.709419
0.710307
0.71119
0.712069
0.712943
0.713811
0.714673
0.715528
0.716376
0.717216
0.718048
0.718873
0.719689
0.720497
0.721296
0.722086
0.722867
0.723637
0.724398
0.725147
0.725884
0.726607
0.727322
0.728029
0.728724
0.729409
0.730082
0.730744
0.731394
0.732031
0.732657
0.73327
0.73387
0.734459
0.735034
0.735596
0.736146
0.736682
0.737205
0.737714
0.73821
0.738692
0.739159
0.739613
0.740051
0.740475
0.740883
0.741275
0.74165
0.74201
0.742353
0.74268
0.742991
0.743285
0.743563
0.743823
0.744067
0.744294
0.744503
0.744695
0.744869
0.745025
0.745164
0.745285
0.745387
0.745471
0.745536
0.745581
0.745605
0.745609
0.745593
0.745556
0.745497
0.745418
0.745316
0.745193
0.745047
0.74488
0.74469
0.744478
0.744244
0.743986
0.743706
0.743403
0.743076
0.742724
0.742339
0.74191
0.74144
0.740943
0.740424
0.739885
0.739325
0.738744
0.738142
0.737516
0.736868
0.736195
0.735498
0.734768
0.734028
0.733166
0.73254
0.730731
0.684624
0.68461
0.684584
0.684538
0.684479
0.684409
0.684325
0.684226
0.684111
0.683981
0.683838
0.683684
0.683522
0.683355
0.683184
0.68301
0.682836
0.682664
0.682495
0.682331
0.682176
0.682032
0.681901
0.681788
0.681697
0.681633
0.681601
0.681605
0.681651
0.681739
0.681864
0.682008
0.682153
0.682133
0.682028
0.682086
0.682233
0.68246
0.682749
0.683078
0.683462
0.683864
0.684241
0.684677
0.685173
0.685669
0.686187
0.686732
0.687305
0.687907
0.688535
0.689189
0.689867
0.690567
0.691288
0.692029
0.692789
0.693566
0.694359
0.695166
0.695986
0.696819
0.697663
0.698516
0.699378
0.700247
0.701123
0.702003
0.702888
0.703776
0.704666
0.705557
0.706449
0.70734
0.70823
0.709117
0.710002
0.710884
0.711761
0.712634
0.713501
0.714363
0.715218
0.716067
0.716909
0.717743
0.718569
0.719388
0.720197
0.720998
0.721791
0.722573
0.723346
0.72411
0.724863
0.725608
0.726343
0.72707
0.727785
0.728486
0.729176
0.729854
0.73052
0.731175
0.731817
0.732447
0.733065
0.733671
0.734263
0.734844
0.735411
0.735965
0.736506
0.737034
0.737548
0.738049
0.738535
0.739008
0.739466
0.73991
0.740339
0.740753
0.74115
0.741532
0.741897
0.742246
0.742579
0.742896
0.743195
0.743478
0.743744
0.743994
0.744225
0.74444
0.744637
0.744816
0.744978
0.745122
0.745247
0.745355
0.745444
0.745514
0.745564
0.745595
0.745605
0.745594
0.745562
0.74551
0.745435
0.745339
0.745221
0.745081
0.744919
0.744734
0.744527
0.744296
0.744043
0.743767
0.743468
0.743145
0.742797
0.742425
0.74203
0.741614
0.741176
0.740713
0.740226
0.739717
0.739185
0.73863
0.738052
0.737451
0.736826
0.736176
0.735502
0.734798
0.73408
0.733267
0.732603
0.731198
0.686371
0.686312
0.686266
0.686213
0.686147
0.686064
0.685965
0.68585
0.68572
0.685576
0.685421
0.685256
0.685084
0.684905
0.684722
0.684537
0.684353
0.68417
0.683991
0.683818
0.683654
0.683501
0.683362
0.68324
0.683136
0.683054
0.682993
0.682955
0.682937
0.682938
0.682959
0.683001
0.683073
0.683156
0.683253
0.683388
0.683556
0.683764
0.684016
0.684312
0.684657
0.685049
0.685475
0.685929
0.686406
0.6869
0.687419
0.687964
0.688534
0.68913
0.689752
0.690398
0.691068
0.691759
0.692472
0.693204
0.693955
0.694723
0.695507
0.696306
0.697118
0.697943
0.698779
0.699624
0.700479
0.701341
0.702209
0.703083
0.703962
0.704844
0.705729
0.706615
0.707501
0.708388
0.709274
0.710158
0.711039
0.711917
0.712792
0.713662
0.714528
0.715388
0.716241
0.717089
0.71793
0.718763
0.719589
0.720407
0.721217
0.722019
0.722812
0.723595
0.72437
0.725135
0.725889
0.726634
0.727368
0.728092
0.728806
0.729508
0.7302
0.73088
0.731548
0.732204
0.732849
0.733481
0.734101
0.734709
0.735304
0.735886
0.736456
0.737012
0.737555
0.738085
0.738601
0.739104
0.739593
0.740067
0.740527
0.740972
0.741403
0.741818
0.742217
0.7426
0.742966
0.743316
0.743649
0.743966
0.744266
0.744549
0.744815
0.745064
0.745296
0.745509
0.745705
0.745884
0.746044
0.746185
0.746309
0.746414
0.7465
0.746567
0.746614
0.746641
0.746647
0.746632
0.746596
0.746538
0.746458
0.746357
0.746233
0.746087
0.745918
0.745726
0.745512
0.745274
0.745013
0.74473
0.744422
0.744091
0.743737
0.743359
0.742959
0.742542
0.742106
0.741647
0.741165
0.740659
0.740131
0.73958
0.739005
0.738406
0.737784
0.737136
0.736463
0.735759
0.735036
0.73423
0.733529
0.732356
0.688976
0.688875
0.688801
0.688731
0.688648
0.688547
0.688427
0.688293
0.688144
0.687983
0.687811
0.687629
0.687441
0.687246
0.687048
0.686848
0.686648
0.686451
0.686258
0.686072
0.685895
0.685728
0.685576
0.685438
0.685318
0.685217
0.685136
0.685075
0.685036
0.685021
0.685031
0.68507
0.685137
0.685227
0.68534
0.685486
0.685665
0.685876
0.686121
0.686399
0.686714
0.687065
0.687448
0.687865
0.688313
0.688788
0.689291
0.689821
0.690377
0.690959
0.691566
0.692198
0.692852
0.693529
0.694226
0.694943
0.695679
0.696433
0.697202
0.697987
0.698785
0.699596
0.700419
0.701252
0.702094
0.702945
0.703802
0.704666
0.705534
0.706407
0.707282
0.70816
0.709039
0.709919
0.710798
0.711676
0.712552
0.713426
0.714297
0.715163
0.716026
0.716883
0.717736
0.718582
0.719422
0.720255
0.721081
0.7219
0.722711
0.723515
0.72431
0.725096
0.725873
0.726642
0.7274
0.728149
0.728888
0.729617
0.730336
0.731043
0.731739
0.732425
0.733099
0.733761
0.734412
0.73505
0.735677
0.736291
0.736892
0.737482
0.738058
0.738621
0.739171
0.739708
0.740231
0.74074
0.741236
0.741717
0.742184
0.742636
0.743073
0.743494
0.743899
0.744288
0.74466
0.745016
0.745355
0.745677
0.745983
0.746271
0.746541
0.746794
0.74703
0.747248
0.747447
0.747629
0.747791
0.747936
0.748062
0.748169
0.748256
0.748324
0.748372
0.748399
0.748404
0.748389
0.748352
0.748292
0.748211
0.748108
0.747982
0.747833
0.747661
0.747466
0.747248
0.747007
0.746742
0.746454
0.746142
0.745807
0.745448
0.745067
0.744663
0.74424
0.743796
0.743331
0.742842
0.74233
0.741795
0.741238
0.740657
0.740053
0.739424
0.73877
0.738089
0.737377
0.736639
0.735826
0.735093
0.734018
0.692408
0.692265
0.692166
0.692081
0.691982
0.691862
0.691723
0.691567
0.691397
0.691214
0.69102
0.690817
0.690606
0.69039
0.690171
0.68995
0.68973
0.689512
0.689299
0.689093
0.688895
0.688709
0.688536
0.688377
0.688236
0.688113
0.688011
0.687931
0.687874
0.687843
0.687838
0.687861
0.687912
0.687989
0.688092
0.688228
0.688395
0.688594
0.688825
0.689089
0.689386
0.689715
0.690075
0.690467
0.690891
0.691343
0.691825
0.692334
0.692869
0.693431
0.694018
0.694629
0.695263
0.69592
0.696597
0.697294
0.698011
0.698744
0.699495
0.700261
0.701041
0.701835
0.70264
0.703457
0.704283
0.705118
0.705961
0.706811
0.707666
0.708526
0.70939
0.710256
0.711125
0.711995
0.712865
0.713736
0.714605
0.715472
0.716337
0.717198
0.718056
0.71891
0.71976
0.720604
0.721442
0.722274
0.7231
0.72392
0.724731
0.725536
0.726333
0.727122
0.727902
0.728673
0.729436
0.730189
0.730933
0.731666
0.73239
0.733103
0.733805
0.734497
0.735178
0.735847
0.736504
0.73715
0.737784
0.738406
0.739016
0.739613
0.740197
0.740768
0.741327
0.741871
0.742403
0.74292
0.743424
0.743913
0.744388
0.744848
0.745292
0.745721
0.746134
0.74653
0.746909
0.747272
0.747618
0.747946
0.748258
0.748552
0.748828
0.749086
0.749327
0.749549
0.749752
0.749937
0.750104
0.750251
0.750379
0.750488
0.750577
0.750646
0.750694
0.750721
0.750727
0.75071
0.750672
0.750611
0.750528
0.750422
0.750293
0.750141
0.749966
0.749767
0.749545
0.749299
0.749029
0.748736
0.748419
0.748078
0.747714
0.747326
0.746916
0.746485
0.746033
0.745559
0.745061
0.744542
0.743999
0.743434
0.742845
0.742233
0.741596
0.740933
0.740243
0.73952
0.738769
0.737946
0.737194
0.73614
0.696672
0.696498
0.696379
0.69628
0.696164
0.696024
0.695864
0.695686
0.695492
0.695285
0.695066
0.694838
0.694602
0.69436
0.694115
0.693869
0.693623
0.69338
0.693143
0.692912
0.69269
0.69248
0.692283
0.692101
0.691936
0.691791
0.691666
0.691564
0.691487
0.691435
0.69141
0.691413
0.691443
0.691501
0.691587
0.691703
0.691851
0.69203
0.692241
0.692484
0.69276
0.693066
0.693404
0.693772
0.694171
0.694598
0.695054
0.695537
0.696047
0.696584
0.697145
0.69773
0.698339
0.698969
0.699622
0.700294
0.700985
0.701694
0.702421
0.703163
0.703921
0.704692
0.705475
0.706271
0.707077
0.707892
0.708716
0.709548
0.710385
0.711229
0.712077
0.712929
0.713784
0.714641
0.715499
0.716358
0.717217
0.718075
0.718931
0.719785
0.720637
0.721485
0.722329
0.723169
0.724003
0.724833
0.725657
0.726475
0.727286
0.728091
0.728888
0.729678
0.73046
0.731234
0.732
0.732756
0.733504
0.734242
0.73497
0.735689
0.736397
0.737095
0.737782
0.738457
0.739122
0.739775
0.740417
0.741046
0.741664
0.742269
0.742861
0.743441
0.744008
0.744561
0.745101
0.745627
0.746139
0.746637
0.74712
0.747588
0.74804
0.748477
0.748897
0.749301
0.749687
0.750057
0.75041
0.750745
0.751062
0.751362
0.751644
0.751908
0.752153
0.752379
0.752587
0.752775
0.752944
0.753094
0.753225
0.753335
0.753425
0.753494
0.753542
0.753569
0.753573
0.753555
0.753515
0.753451
0.753365
0.753255
0.753122
0.752966
0.752786
0.752582
0.752354
0.752102
0.751826
0.751526
0.751202
0.750854
0.750482
0.750087
0.749669
0.74923
0.748768
0.748284
0.747777
0.747249
0.746697
0.746122
0.745525
0.744904
0.744258
0.743586
0.742887
0.742153
0.741389
0.740556
0.739786
0.738714
0.70179
0.701598
0.701464
0.701349
0.701215
0.701055
0.700873
0.700671
0.700452
0.700218
0.699972
0.699716
0.699452
0.699182
0.698908
0.698633
0.698359
0.698088
0.697823
0.697565
0.697316
0.697079
0.696855
0.696647
0.696457
0.696287
0.696138
0.696011
0.69591
0.695834
0.695785
0.695763
0.69577
0.695804
0.695867
0.69596
0.696084
0.696238
0.696424
0.696641
0.696889
0.697168
0.697478
0.697818
0.698187
0.698584
0.699009
0.699462
0.699942
0.700447
0.700977
0.701531
0.702108
0.702708
0.70333
0.703971
0.704632
0.705312
0.706009
0.706723
0.707452
0.708195
0.708952
0.709721
0.710502
0.711293
0.712093
0.712902
0.713718
0.71454
0.715369
0.716202
0.717039
0.717879
0.718721
0.719565
0.72041
0.721255
0.722099
0.722942
0.723784
0.724623
0.725459
0.726291
0.72712
0.727944
0.728763
0.729578
0.730386
0.731188
0.731984
0.732774
0.733556
0.73433
0.735097
0.735855
0.736605
0.737346
0.738078
0.738801
0.739514
0.740216
0.740909
0.74159
0.742261
0.742921
0.743569
0.744205
0.74483
0.745443
0.746043
0.74663
0.747205
0.747766
0.748314
0.748848
0.749368
0.749874
0.750365
0.750841
0.751301
0.751745
0.752173
0.752584
0.752978
0.753355
0.753714
0.754055
0.754379
0.754684
0.754971
0.755239
0.755489
0.755719
0.75593
0.756122
0.756293
0.756445
0.756577
0.756689
0.756779
0.756848
0.756895
0.75692
0.756923
0.756902
0.756859
0.756792
0.756702
0.756588
0.75645
0.756288
0.756101
0.755891
0.755656
0.755397
0.755113
0.754805
0.754473
0.754116
0.753735
0.753331
0.752904
0.752455
0.751983
0.751488
0.750971
0.750432
0.74987
0.749285
0.748678
0.748047
0.747392
0.74671
0.746
0.745255
0.74448
0.743634
0.742847
0.741741
0.7078
0.707597
0.707449
0.707318
0.707166
0.706985
0.706779
0.706552
0.706307
0.706045
0.70577
0.705484
0.70519
0.704889
0.704585
0.704279
0.703975
0.703673
0.703378
0.703089
0.702811
0.702545
0.702293
0.702057
0.701839
0.701641
0.701464
0.701311
0.701182
0.701078
0.701002
0.700952
0.70093
0.700936
0.700971
0.701036
0.70113
0.701255
0.701411
0.701597
0.701813
0.70206
0.702336
0.702642
0.702976
0.703339
0.703729
0.704145
0.704588
0.705057
0.70555
0.706068
0.706609
0.707172
0.707757
0.708363
0.708988
0.709632
0.710294
0.710973
0.711669
0.712379
0.713103
0.713841
0.71459
0.715351
0.716123
0.716903
0.717692
0.718489
0.719292
0.720101
0.720915
0.721733
0.722555
0.72338
0.724206
0.725033
0.725861
0.726689
0.727516
0.728342
0.729167
0.729988
0.730807
0.731622
0.732433
0.73324
0.734042
0.734839
0.73563
0.736416
0.737195
0.737968
0.738733
0.73949
0.74024
0.740982
0.741715
0.74244
0.743155
0.74386
0.744556
0.745241
0.745916
0.746581
0.747234
0.747876
0.748506
0.749125
0.749731
0.750325
0.750906
0.751474
0.752029
0.75257
0.753097
0.75361
0.754108
0.754591
0.755058
0.755509
0.755943
0.75636
0.75676
0.757143
0.757508
0.757855
0.758183
0.758494
0.758785
0.759057
0.75931
0.759544
0.759757
0.759951
0.760125
0.760278
0.76041
0.760522
0.760612
0.76068
0.760725
0.760748
0.760748
0.760724
0.760677
0.760605
0.76051
0.760391
0.760247
0.760078
0.759885
0.759667
0.759424
0.759156
0.758864
0.758547
0.758205
0.757838
0.757448
0.757033
0.756596
0.756135
0.755652
0.755146
0.754617
0.754067
0.753493
0.752897
0.752279
0.751637
0.750971
0.750279
0.749558
0.748803
0.748016
0.747158
0.746353
0.745207
0.714744
0.714533
0.714372
0.714225
0.714052
0.713849
0.71362
0.713367
0.713094
0.712803
0.712498
0.712182
0.711855
0.711523
0.711186
0.710848
0.710511
0.710177
0.709849
0.709529
0.709219
0.708921
0.708638
0.708372
0.708123
0.707895
0.707688
0.707504
0.707344
0.70721
0.707101
0.70702
0.706966
0.70694
0.706942
0.706974
0.707034
0.707125
0.707245
0.707395
0.707574
0.707783
0.70802
0.708286
0.708581
0.708903
0.709251
0.709627
0.710028
0.710454
0.710906
0.711381
0.711879
0.7124
0.712942
0.713505
0.714089
0.714692
0.715313
0.715951
0.716606
0.717277
0.717963
0.718663
0.719376
0.720101
0.720837
0.721584
0.72234
0.723104
0.723876
0.724656
0.725441
0.726232
0.727028
0.727827
0.728629
0.729434
0.73024
0.731047
0.731855
0.732663
0.73347
0.734276
0.735079
0.735881
0.736679
0.737475
0.738266
0.739053
0.739836
0.740613
0.741385
0.742152
0.742912
0.743665
0.744411
0.74515
0.745881
0.746604
0.747318
0.748023
0.748719
0.749405
0.750082
0.750748
0.751404
0.752048
0.752682
0.753304
0.753914
0.754512
0.755097
0.75567
0.756229
0.756775
0.757307
0.757825
0.758328
0.758816
0.759288
0.759743
0.760182
0.760604
0.761009
0.761396
0.761766
0.762117
0.762449
0.762763
0.763057
0.763332
0.763587
0.763823
0.764038
0.764233
0.764407
0.76456
0.764692
0.764803
0.764891
0.764957
0.765
0.765019
0.765015
0.764987
0.764935
0.764858
0.764757
0.764631
0.76448
0.764304
0.764102
0.763876
0.763624
0.763347
0.763045
0.762718
0.762365
0.761988
0.761587
0.761161
0.760711
0.760239
0.759743
0.759225
0.758684
0.758121
0.757536
0.756928
0.756298
0.755645
0.754968
0.754265
0.753533
0.752768
0.75197
0.7511
0.750278
0.749093
0.722669
0.722452
0.722278
0.722112
0.721918
0.721692
0.721438
0.721158
0.720856
0.720536
0.7202
0.719851
0.719492
0.719126
0.718755
0.718383
0.718012
0.717644
0.717282
0.716928
0.716584
0.716253
0.715936
0.715637
0.715355
0.715093
0.714853
0.714635
0.714441
0.714272
0.714129
0.714012
0.713922
0.713859
0.713824
0.713818
0.713839
0.71389
0.713969
0.714078
0.714215
0.71438
0.714573
0.714795
0.715043
0.715319
0.715621
0.715949
0.716302
0.71668
0.717083
0.717509
0.717959
0.718431
0.718924
0.719439
0.719974
0.720529
0.721102
0.721694
0.722303
0.722928
0.723568
0.724224
0.724893
0.725575
0.726269
0.726975
0.727691
0.728417
0.729152
0.729895
0.730645
0.731402
0.732164
0.732932
0.733703
0.734479
0.735257
0.736038
0.73682
0.737603
0.738387
0.739171
0.739954
0.740736
0.741516
0.742293
0.743068
0.74384
0.744609
0.745373
0.746133
0.746888
0.747638
0.748382
0.749119
0.74985
0.750574
0.751291
0.752
0.7527
0.753392
0.754075
0.754749
0.755413
0.756067
0.756711
0.757344
0.757966
0.758576
0.759175
0.759761
0.760335
0.760896
0.761444
0.761978
0.762498
0.763003
0.763493
0.763967
0.764425
0.764867
0.765291
0.765698
0.766088
0.766459
0.766812
0.767146
0.767461
0.767757
0.768032
0.768288
0.768524
0.768739
0.768933
0.769106
0.769258
0.769388
0.769496
0.769582
0.769644
0.769683
0.769698
0.769689
0.769655
0.769597
0.769513
0.769405
0.769271
0.769112
0.768928
0.768717
0.768481
0.76822
0.767933
0.76762
0.767281
0.766918
0.766529
0.766116
0.765678
0.765216
0.764731
0.764222
0.763691
0.763137
0.762561
0.761963
0.761343
0.760701
0.760036
0.759348
0.758634
0.757893
0.757118
0.75631
0.755429
0.754592
0.753371
0.731626
0.731403
0.731215
0.731029
0.730813
0.730563
0.730282
0.729974
0.729643
0.729292
0.728923
0.728541
0.728147
0.727746
0.72734
0.726933
0.726525
0.726121
0.725723
0.725333
0.724954
0.724587
0.724235
0.723899
0.723581
0.723283
0.723006
0.722751
0.722519
0.722312
0.72213
0.721973
0.721843
0.721739
0.721662
0.721612
0.72159
0.721596
0.72163
0.721691
0.72178
0.721896
0.72204
0.72221
0.722407
0.72263
0.722879
0.723154
0.723453
0.723777
0.724124
0.724496
0.72489
0.725306
0.725744
0.726203
0.726683
0.727183
0.727702
0.728239
0.728794
0.729365
0.729953
0.730557
0.731175
0.731807
0.732452
0.733109
0.733778
0.734458
0.735148
0.735846
0.736554
0.737269
0.737991
0.738719
0.739452
0.740191
0.740934
0.74168
0.74243
0.743181
0.743935
0.744689
0.745444
0.746199
0.746953
0.747707
0.748459
0.749209
0.749956
0.750701
0.751442
0.75218
0.752913
0.753641
0.754364
0.755082
0.755793
0.756498
0.757196
0.757886
0.758569
0.759243
0.759909
0.760566
0.761214
0.761851
0.762479
0.763096
0.763702
0.764297
0.76488
0.765451
0.76601
0.766555
0.767087
0.767606
0.768109
0.768598
0.769071
0.769528
0.769969
0.770393
0.770799
0.771188
0.771558
0.77191
0.772243
0.772557
0.772851
0.773126
0.77338
0.773613
0.773826
0.774017
0.774188
0.774336
0.774462
0.774566
0.774647
0.774704
0.774737
0.774746
0.774731
0.77469
0.774624
0.774533
0.774416
0.774274
0.774106
0.773912
0.773692
0.773445
0.773173
0.772874
0.77255
0.7722
0.771825
0.771423
0.770998
0.770547
0.770072
0.769574
0.769052
0.768507
0.76794
0.767351
0.76674
0.766108
0.765453
0.764777
0.764078
0.763354
0.762603
0.761819
0.761003
0.760113
0.759264
0.758013
0.741672
0.741444
0.74124
0.741032
0.740792
0.740516
0.740207
0.739869
0.739506
0.739122
0.738719
0.738302
0.737872
0.737434
0.736991
0.736546
0.736101
0.735659
0.735222
0.734794
0.734376
0.733971
0.73358
0.733205
0.732848
0.732511
0.732193
0.731898
0.731625
0.731375
0.73115
0.730949
0.730774
0.730624
0.730501
0.730403
0.730332
0.730287
0.73027
0.730278
0.730313
0.730375
0.730462
0.730576
0.730715
0.73088
0.731069
0.731283
0.731522
0.731784
0.73207
0.732379
0.732711
0.733064
0.73344
0.733836
0.734253
0.73469
0.735146
0.735621
0.736115
0.736625
0.737153
0.737696
0.738255
0.738829
0.739416
0.740017
0.74063
0.741255
0.74189
0.742537
0.743192
0.743857
0.74453
0.74521
0.745897
0.746591
0.747289
0.747993
0.748701
0.749412
0.750127
0.750843
0.751562
0.752282
0.753003
0.753724
0.754445
0.755165
0.755884
0.756601
0.757316
0.758028
0.758737
0.759443
0.760144
0.760841
0.761533
0.762219
0.762899
0.763572
0.764239
0.764899
0.765551
0.766194
0.766829
0.767455
0.768072
0.768679
0.769275
0.769861
0.770435
0.770998
0.771549
0.772087
0.772613
0.773125
0.773622
0.774105
0.774573
0.775025
0.775461
0.77588
0.776282
0.776666
0.777032
0.77738
0.777708
0.778018
0.778308
0.778577
0.778827
0.779055
0.779263
0.779449
0.779614
0.779757
0.779877
0.779974
0.780048
0.780098
0.780124
0.780125
0.780102
0.780053
0.779978
0.779878
0.779752
0.779599
0.779421
0.779216
0.778985
0.778727
0.778443
0.778133
0.777797
0.777435
0.777046
0.776632
0.776193
0.77573
0.775241
0.77473
0.774194
0.773636
0.773056
0.772454
0.77183
0.771185
0.770519
0.769831
0.769121
0.768387
0.767628
0.766837
0.766015
0.765117
0.764259
0.762984
0.752871
0.752636
0.752415
0.752183
0.751916
0.75161
0.75127
0.7509
0.750503
0.750083
0.749643
0.749187
0.748719
0.748242
0.747759
0.747273
0.746787
0.746304
0.745827
0.745358
0.744899
0.744452
0.74402
0.743603
0.743203
0.742822
0.742461
0.742121
0.741803
0.741507
0.741234
0.740985
0.74076
0.740559
0.740384
0.740233
0.740107
0.740007
0.739931
0.739881
0.739857
0.739857
0.739882
0.739932
0.740007
0.740106
0.74023
0.740377
0.740547
0.740741
0.740958
0.741197
0.741459
0.741742
0.742046
0.742372
0.742718
0.743084
0.74347
0.743874
0.744297
0.744738
0.745196
0.745671
0.746161
0.746667
0.747188
0.747722
0.74827
0.748831
0.749404
0.749988
0.750583
0.751187
0.751802
0.752424
0.753055
0.753694
0.754339
0.75499
0.755647
0.756308
0.756974
0.757644
0.758317
0.758993
0.759671
0.76035
0.761031
0.761712
0.762393
0.763074
0.763754
0.764433
0.765109
0.765783
0.766455
0.767122
0.767786
0.768446
0.7691
0.76975
0.770393
0.77103
0.77166
0.772284
0.772899
0.773506
0.774105
0.774695
0.775275
0.775845
0.776405
0.776953
0.777491
0.778016
0.778529
0.779029
0.779516
0.779988
0.780445
0.780887
0.781313
0.781723
0.782115
0.782491
0.782848
0.783188
0.783508
0.783809
0.784091
0.784352
0.784594
0.784814
0.785014
0.785192
0.785348
0.785483
0.785594
0.785683
0.785747
0.785788
0.785805
0.785796
0.785762
0.785703
0.785618
0.785507
0.78537
0.785207
0.785017
0.784801
0.784558
0.784288
0.783991
0.783669
0.783319
0.782944
0.782543
0.782116
0.781663
0.781186
0.780685
0.780159
0.779611
0.779039
0.778446
0.77783
0.777194
0.776537
0.775859
0.775161
0.774441
0.773699
0.772932
0.772135
0.771309
0.770407
0.769543
0.768252
0.765294
0.765048
0.764807
0.764547
0.76425
0.763911
0.763536
0.763128
0.762692
0.762231
0.76175
0.761252
0.760741
0.76022
0.759693
0.759163
0.758633
0.758106
0.757584
0.757071
0.756567
0.756075
0.755597
0.755135
0.754689
0.754261
0.753852
0.753463
0.753095
0.752748
0.752423
0.752121
0.751841
0.751584
0.751351
0.751141
0.750955
0.750792
0.750653
0.750538
0.750447
0.75038
0.750336
0.750316
0.750319
0.750345
0.750395
0.750467
0.750562
0.75068
0.750819
0.750981
0.751164
0.751368
0.751594
0.75184
0.752106
0.752392
0.752698
0.753023
0.753367
0.753728
0.754107
0.754503
0.754916
0.755344
0.755788
0.756247
0.75672
0.757206
0.757705
0.758217
0.75874
0.759275
0.75982
0.760374
0.760938
0.761511
0.762092
0.76268
0.763275
0.763877
0.764484
0.765097
0.765714
0.766335
0.766959
0.767587
0.768217
0.768849
0.769483
0.770118
0.770753
0.771388
0.772023
0.772656
0.773288
0.773918
0.774545
0.775169
0.775789
0.776405
0.777016
0.777622
0.778223
0.778818
0.779406
0.779986
0.78056
0.781125
0.781681
0.782229
0.782766
0.783294
0.783811
0.784317
0.784812
0.785293
0.785762
0.786217
0.786658
0.787084
0.787495
0.78789
0.788269
0.788631
0.788975
0.789301
0.789609
0.789897
0.790167
0.790416
0.790645
0.790854
0.791042
0.791208
0.791353
0.791476
0.791576
0.791653
0.791706
0.791735
0.79174
0.791719
0.791674
0.791602
0.791505
0.791382
0.791232
0.791057
0.790854
0.790625
0.790369
0.790086
0.789776
0.78944
0.789078
0.788689
0.788274
0.787834
0.787368
0.786877
0.786362
0.785823
0.785261
0.784677
0.784071
0.783443
0.782795
0.782126
0.781437
0.780729
0.780001
0.779251
0.778479
0.777678
0.776849
0.775947
0.775081
0.773781
0.779019
0.778759
0.778492
0.7782
0.777865
0.777487
0.77707
0.776618
0.776136
0.775627
0.775097
0.77455
0.773989
0.773419
0.772842
0.772262
0.771683
0.771107
0.770537
0.769974
0.769421
0.768881
0.768353
0.767841
0.767344
0.766865
0.766404
0.765961
0.765539
0.765136
0.764753
0.764392
0.764052
0.763733
0.763436
0.763161
0.762908
0.762676
0.762467
0.76228
0.762115
0.761972
0.761852
0.761753
0.761677
0.761623
0.76159
0.76158
0.76159
0.761623
0.761677
0.761752
0.761848
0.761964
0.762101
0.762259
0.762436
0.762633
0.762849
0.763084
0.763338
0.763611
0.7639
0.764208
0.764532
0.764873
0.765229
0.765601
0.765987
0.766388
0.766803
0.767231
0.767672
0.768125
0.768589
0.769065
0.76955
0.770046
0.770552
0.771066
0.771588
0.772118
0.772655
0.773199
0.773748
0.774304
0.774864
0.775429
0.775998
0.77657
0.777146
0.777723
0.778303
0.778884
0.779467
0.780049
0.780631
0.781213
0.781793
0.782372
0.782948
0.783522
0.784092
0.784658
0.78522
0.785777
0.786329
0.786875
0.787414
0.787946
0.788471
0.788988
0.789496
0.789995
0.790485
0.790964
0.791432
0.791889
0.792334
0.792765
0.793184
0.793588
0.793978
0.794352
0.794711
0.795053
0.795378
0.795686
0.795976
0.796248
0.7965
0.796733
0.796946
0.797139
0.797311
0.797462
0.797592
0.7977
0.797785
0.797847
0.797885
0.7979
0.79789
0.797856
0.797796
0.79771
0.797599
0.797462
0.797298
0.797108
0.796892
0.796649
0.796379
0.796082
0.795758
0.795409
0.795032
0.79463
0.794201
0.793747
0.793268
0.792764
0.792235
0.791683
0.791108
0.790511
0.789893
0.789253
0.788594
0.787914
0.787216
0.786499
0.785763
0.785007
0.784231
0.783428
0.782599
0.7817
0.780838
0.779537
0.794166
0.793885
0.793586
0.793253
0.792871
0.792441
0.791968
0.791458
0.790916
0.790346
0.789754
0.789145
0.788523
0.787892
0.787255
0.786617
0.78598
0.785347
0.784721
0.784103
0.783495
0.782899
0.782317
0.781749
0.781196
0.78066
0.780141
0.779639
0.779156
0.778691
0.778245
0.777819
0.777412
0.777024
0.776656
0.776308
0.775979
0.775671
0.775383
0.775116
0.774869
0.774642
0.774436
0.77425
0.774085
0.77394
0.773817
0.773713
0.77363
0.773568
0.773526
0.773504
0.773503
0.773521
0.773559
0.773617
0.773695
0.773791
0.773907
0.774042
0.774195
0.774367
0.774557
0.774764
0.774988
0.775229
0.775487
0.77576
0.776049
0.776353
0.776671
0.777004
0.77735
0.77771
0.778082
0.778466
0.778862
0.779269
0.779687
0.780115
0.780553
0.780999
0.781455
0.781918
0.782389
0.782867
0.783352