/*--------------------------------*- C++ -*----------------------------------*\
  =========                 |
  \\      /  F ield         | OpenFOAM: The Open Source CFD Toolbox
   \\    /   O peration     | Website:  https://openfoam.org
    \\  /    A nd           | Version:  10
     \\/     M anipulation  |
\*---------------------------------------------------------------------------*/
FoamFile
{
    format      ascii;
    class       volScalarField;
    location    "27";
    object      T;
}
// * * * * * * * * * * * * * * * * * * * * * * * * * * * * * * * * * * * * * //

dimensions      [0 0 -1 0 0 0 0];

internalField   nonuniform List<scalar> 
100
(
1.04926
3.13803
5.19895
7.21372
9.16446
11.0339
12.8053
14.4631
15.9926
17.38
18.6132
19.6812
20.5746
21.2852
21.807
22.1352
22.2669
22.201
21.9381
21.4804
20.832
19.9988
18.988
17.8087
16.4714
14.9878
13.3712
11.6359
9.79738
7.87187
5.87648
3.82894
1.74741
-0.349625
-2.44355
-4.51579
-6.54795
-8.52198
-10.4204
-12.2263
-13.9236
-15.4974
-16.9336
-18.2196
-19.3438
-20.2963
-21.0686
-21.654
-22.0471
-22.2445
-22.2445
-22.0471
-21.6539
-21.0686
-20.2963
-19.3437
-18.2195
-16.9336
-15.4974
-13.9236
-12.2262
-10.4203
-8.52194
-6.54791
-4.51575
-2.44351
-0.349578
1.74746
3.82899
5.87653
7.87192
9.79743
11.636
13.3713
14.9879
16.4714
17.8088
18.9881
19.9988
20.8321
21.4804
21.9381
22.2011
22.267
22.1353
21.807
21.2853
20.5746
19.6813
18.6133
17.3801
15.9926
14.4631
12.8053
11.0339
9.16447
7.21373
5.19895
3.13803
1.04926
)
;

boundaryField
{
    xmin
    {
        type            fixedValue;
        value           uniform 0;
    }
    xmax
    {
        type            fixedValue;
        value           uniform 0;
    }
    frontAndBack
    {
        type            empty;
    }
}


// ************************************************************************* //
