/*--------------------------------*- C++ -*----------------------------------*\
  =========                 |
  \\      /  F ield         | OpenFOAM: The Open Source CFD Toolbox
   \\    /   O peration     | Website:  https://openfoam.org
    \\  /    A nd           | Version:  10
     \\/     M anipulation  |
\*---------------------------------------------------------------------------*/
FoamFile
{
    format      ascii;
    class       volScalarField;
    location    "27";
    object      T_0;
}
// * * * * * * * * * * * * * * * * * * * * * * * * * * * * * * * * * * * * * //

dimensions      [0 0 -1 0 0 0 0];

internalField   nonuniform List<scalar> 
100
(
1.05027
3.14105
5.20396
7.22067
9.17329
11.0445
12.8177
14.4771
16.008
17.3968
18.6312
19.7002
20.5944
21.3058
21.828
22.1565
22.2884
22.2224
21.9592
21.5011
20.8521
20.0181
19.0063
17.8259
16.4872
15.0023
13.3841
11.6471
9.80682
7.87945
5.88214
3.83263
1.74909
-0.349962
-2.44591
-4.52015
-6.55426
-8.53019
-10.4304
-12.238
-13.9371
-15.5124
-16.95
-18.2371
-19.3624
-20.3158
-21.0889
-21.6748
-22.0683
-22.266
-22.266
-22.0683
-21.6748
-21.0889
-20.3158
-19.3624
-18.2371
-16.9499
-15.5123
-13.937
-12.238
-10.4304
-8.53015
-6.55422
-4.5201
-2.44586
-0.349915
1.74914
3.83268
5.88219
7.8795
9.80687
11.6472
13.3842
15.0023
16.4873
17.826
19.0064
20.0181
20.8522
21.5011
21.9593
22.2225
22.2884
22.1566
21.8281
21.3058
20.5944
19.7002
18.6312
17.3968
16.008
14.4771
12.8177
11.0445
9.1733
7.22068
5.20396
3.14106
1.05027
)
;

boundaryField
{
    xmin
    {
        type            fixedValue;
        value           uniform 0;
    }
    xmax
    {
        type            fixedValue;
        value           uniform 0;
    }
    frontAndBack
    {
        type            empty;
    }
}


// ************************************************************************* //
