/*--------------------------------*- C++ -*----------------------------------*\
  =========                 |
  \\      /  F ield         | OpenFOAM: The Open Source CFD Toolbox
   \\    /   O peration     | Website:  https://openfoam.org
    \\  /    A nd           | Version:  10
     \\/     M anipulation  |
\*---------------------------------------------------------------------------*/
FoamFile
{
    format      ascii;
    class       volScalarField;
    location    "16.5";
    object      T;
}
// * * * * * * * * * * * * * * * * * * * * * * * * * * * * * * * * * * * * * //

dimensions      [0 0 0 1 0 0 0];

internalField   nonuniform List<scalar> 
10000
(
374.974
361.247
356.537
354.456
353.314
352.583
352.064
351.671
351.357
351.097
350.875
350.683
350.511
350.357
350.217
350.087
349.967
349.854
349.748
349.647
349.552
349.46
349.373
349.289
349.208
349.13
349.055
348.982
348.911
348.843
348.776
348.712
348.649
348.588
348.529
348.472
348.416
348.361
348.308
348.257
348.207
348.158
348.111
348.064
348.02
347.976
347.934
347.893
347.853
347.814
347.776
347.74
347.705
347.67
347.637
347.605
347.574
347.544
347.515
347.487
347.46
347.433
347.408
347.384
347.36
347.338
347.316
347.295
347.275
347.256
347.238
347.22
347.203
347.187
347.172
347.158
347.144
347.131
347.118
347.106
347.095
347.085
347.075
347.066
347.057
347.05
347.042
347.036
347.029
347.024
347.019
347.015
347.011
347.007
347.005
347.002
347.001
347
346.999
346.999
388.571
374.72
366.975
362.423
359.524
357.528
356.061
354.925
354.009
353.245
352.591
352.019
351.511
351.052
350.633
350.246
349.886
349.549
349.232
348.931
348.644
348.371
348.109
347.857
347.615
347.381
347.156
346.937
346.726
346.521
346.322
346.128
345.941
345.758
345.581
345.408
345.241
345.077
344.918
344.764
344.614
344.467
344.325
344.187
344.053
343.922
343.795
343.672
343.552
343.436
343.323
343.214
343.108
343.005
342.905
342.809
342.716
342.626
342.538
342.454
342.373
342.294
342.219
342.146
342.075
342.008
341.943
341.88
341.82
341.763
341.708
341.655
341.605
341.557
341.511
341.467
341.426
341.386
341.349
341.314
341.281
341.249
341.22
341.193
341.167
341.143
341.121
341.101
341.083
341.066
341.051
341.038
341.027
341.017
341.009
341.002
340.997
340.994
340.992
340.992
393.157
382.092
374.224
368.74
364.835
361.949
359.732
357.965
356.514
355.288
354.23
353.298
352.466
351.713
351.022
350.384
349.79
349.232
348.705
348.206
347.731
347.277
346.842
346.424
346.021
345.633
345.257
344.894
344.542
344.201
343.869
343.548
343.235
342.932
342.636
342.349
342.07
341.798
341.533
341.276
341.026
340.782
340.545
340.315
340.091
339.874
339.662
339.457
339.258
339.064
338.876
338.694
338.517
338.346
338.18
338.02
337.864
337.714
337.569
337.429
337.293
337.162
337.036
336.915
336.798
336.685
336.577
336.473
336.373
336.277
336.185
336.098
336.014
335.934
335.857
335.785
335.715
335.65
335.588
335.529
335.474
335.421
335.373
335.327
335.284
335.245
335.208
335.175
335.144
335.116
335.091
335.069
335.05
335.034
335.02
335.009
335.001
334.996
334.993
334.993
395.114
386.272
379.088
373.48
369.127
365.703
362.953
360.693
358.795
357.166
355.744
354.482
353.347
352.314
351.364
350.483
349.661
348.888
348.157
347.464
346.803
346.171
345.564
344.982
344.42
343.878
343.354
342.847
342.355
341.879
341.416
340.967
340.53
340.105
339.692
339.291
338.9
338.52
338.15
337.791
337.441
337.1
336.769
336.447
336.134
335.83
335.534
335.247
334.968
334.697
334.434
334.179
333.932
333.693
333.461
333.236
333.019
332.809
332.605
332.409
332.219
332.037
331.86
331.69
331.526
331.369
331.217
331.072
330.932
330.798
330.67
330.547
330.43
330.318
330.211
330.109
330.012
329.92
329.833
329.751
329.674
329.601
329.532
329.468
329.409
329.353
329.302
329.255
329.213
329.174
329.139
329.108
329.081
329.058
329.039
329.024
329.013
329.005
329.001
329.001
396.133
388.8
382.375
376.968
372.492
368.784
365.687
363.064
360.809
358.842
357.103
355.544
354.131
352.837
351.643
350.531
349.49
348.509
347.58
346.697
345.854
345.047
344.273
343.528
342.809
342.115
341.444
340.795
340.165
339.554
338.961
338.384
337.824
337.28
336.75
336.235
335.733
335.246
334.771
334.309
333.86
333.423
332.998
332.584
332.182
331.791
331.412
331.043
330.685
330.337
329.999
329.672
329.355
329.047
328.749
328.461
328.182
327.911
327.65
327.398
327.155
326.92
326.693
326.475
326.264
326.062
325.867
325.68
325.501
325.329
325.164
325.006
324.855
324.711
324.574
324.443
324.319
324.201
324.09
323.984
323.884
323.791
323.703
323.62
323.544
323.473
323.407
323.347
323.292
323.242
323.197
323.158
323.123
323.094
323.069
323.05
323.035
323.025
323.02
323.02
396.74
390.426
384.643
379.529
375.089
371.259
367.949
365.069
362.541
360.297
358.286
356.466
354.802
353.27
351.847
350.517
349.268
348.087
346.967
345.9
344.881
343.903
342.964
342.059
341.187
340.343
339.527
338.737
337.97
337.226
336.504
335.802
335.119
334.455
333.81
333.181
332.57
331.975
331.396
330.833
330.285
329.751
329.233
328.728
328.238
327.761
327.297
326.847
326.41
325.986
325.574
325.174
324.787
324.411
324.048
323.696
323.355
323.025
322.706
322.398
322.101
321.814
321.538
321.271
321.014
320.767
320.529
320.301
320.082
319.872
319.671
319.478
319.294
319.118
318.951
318.791
318.639
318.495
318.359
318.23
318.108
317.994
317.886
317.786
317.692
317.606
317.525
317.452
317.385
317.324
317.269
317.221
317.179
317.143
317.113
317.089
317.071
317.059
317.053
317.053
397.136
391.523
386.245
381.418
377.081
373.219
369.786
366.73
363.993
361.526
359.287
357.239
355.352
353.601
351.968
350.434
348.988
347.617
346.314
345.069
343.878
342.735
341.635
340.574
339.55
338.56
337.601
336.672
335.77
334.895
334.045
333.218
332.414
331.632
330.872
330.131
329.411
328.71
328.027
327.363
326.716
326.088
325.476
324.881
324.302
323.74
323.193
322.662
322.146
321.645
321.16
320.688
320.231
319.788
319.359
318.943
318.541
318.152
317.776
317.412
317.062
316.723
316.396
316.082
315.779
315.487
315.206
314.937
314.678
314.43
314.193
313.966
313.748
313.541
313.343
313.154
312.975
312.805
312.644
312.492
312.349
312.213
312.087
311.968
311.858
311.755
311.661
311.574
311.494
311.423
311.358
311.301
311.251
311.209
311.174
311.145
311.124
311.11
311.103
311.102
397.407
392.291
387.398
382.819
378.601
374.752
371.254
368.076
365.182
362.536
360.106
357.86
355.775
353.827
352
350.276
348.645
347.094
345.615
344.201
342.844
341.54
340.283
339.071
337.899
336.765
335.666
334.6
333.565
332.56
331.584
330.634
329.71
328.812
327.937
327.085
326.257
325.45
324.665
323.9
323.157
322.433
321.729
321.044
320.377
319.73
319.1
318.489
317.895
317.318
316.759
316.216
315.689
315.179
314.685
314.206
313.743
313.294
312.861
312.443
312.038
311.648
311.272
310.909
310.56
310.224
309.901
309.591
309.293
309.007
308.733
308.471
308.221
307.982
307.754
307.537
307.33
307.135
306.949
306.774
306.608
306.452
306.306
306.17
306.043
305.924
305.815
305.715
305.624
305.541
305.467
305.401
305.344
305.295
305.254
305.221
305.197
305.181
305.172
305.172
397.598
392.841
388.239
383.863
379.757
375.94
372.407
369.145
366.131
363.34
360.749
358.333
356.071
353.946
351.941
350.041
348.236
346.515
344.869
343.292
341.776
340.316
338.908
337.547
336.231
334.956
333.719
332.52
331.354
330.222
329.121
328.05
327.008
325.993
325.006
324.045
323.109
322.198
321.31
320.447
319.606
318.788
317.992
317.218
316.465
315.733
315.021
314.33
313.658
313.006
312.373
311.759
311.164
310.587
310.027
309.486
308.962
308.455
307.965
307.491
307.034
306.593
306.167
305.757
305.362
304.982
304.616
304.265
303.928
303.604
303.295
302.998
302.715
302.444
302.186
301.941
301.707
301.486
301.276
301.077
300.89
300.714
300.548
300.394
300.25
300.116
299.993
299.879
299.776
299.682
299.598
299.524
299.459
299.404
299.357
299.321
299.293
299.274
299.265
299.265
397.736
393.24
388.856
384.641
380.631
376.848
373.297
369.974
366.865
363.956
361.227
358.663
356.245
353.959
351.791
349.728
347.761
345.879
344.075
342.341
340.672
339.062
337.507
336.003
334.546
333.133
331.762
330.431
329.138
327.88
326.656
325.465
324.306
323.178
322.08
321.01
319.968
318.953
317.965
317.003
316.067
315.156
314.269
313.406
312.567
311.751
310.957
310.186
309.438
308.711
308.005
307.32
306.656
306.013
305.389
304.785
304.201
303.636
303.089
302.561
302.051
301.558
301.084
300.626
300.185
299.761
299.354
298.962
298.586
298.225
297.88
297.549
297.233
296.931
296.643
296.369
296.109
295.861
295.627
295.406
295.197
295
294.816
294.643
294.483
294.333
294.196
294.069
293.954
293.849
293.756
293.673
293.6
293.538
293.487
293.446
293.415
293.394
293.384
293.383
397.837
393.53
389.31
385.216
381.283
377.53
373.968
370.597
367.411
364.401
361.555
358.859
356.302
353.87
351.552
349.338
347.219
345.185
343.231
341.348
339.532
337.778
336.081
334.437
332.843
331.296
329.794
328.334
326.915
325.534
324.19
322.882
321.608
320.367
319.159
317.981
316.835
315.718
314.63
313.571
312.54
311.536
310.559
309.609
308.684
307.785
306.91
306.061
305.236
304.434
303.656
302.902
302.17
301.46
300.773
300.107
299.462
298.839
298.236
297.654
297.091
296.548
296.025
295.52
295.034
294.566
294.117
293.684
293.27
292.872
292.491
292.126
291.777
291.444
291.127
290.825
290.537
290.264
290.006
289.762
289.531
289.314
289.111
288.921
288.744
288.579
288.427
288.287
288.16
288.045
287.941
287.85
287.77
287.702
287.645
287.599
287.565
287.542
287.531
287.53
397.909
393.741
389.639
385.636
381.76
378.029
374.456
371.045
367.793
364.695
361.745
358.933
356.249
353.684
351.229
348.874
346.612
344.435
342.338
340.313
338.356
336.463
334.628
332.849
331.123
329.445
327.815
326.23
324.687
323.185
321.723
320.299
318.912
317.561
316.244
314.961
313.711
312.493
311.307
310.152
309.027
307.931
306.865
305.828
304.818
303.837
302.882
301.955
301.054
300.179
299.329
298.505
297.705
296.93
296.179
295.452
294.748
294.067
293.409
292.772
292.158
291.564
290.992
290.441
289.91
289.399
288.908
288.435
287.982
287.547
287.131
286.732
286.351
285.987
285.64
285.31
284.996
284.698
284.415
284.148
283.897
283.66
283.437
283.229
283.035
282.856
282.69
282.537
282.398
282.272
282.159
282.059
281.971
281.897
281.834
281.785
281.747
281.723
281.71
281.709
397.96
393.89
389.873
385.934
382.097
378.379
374.793
371.343
368.032
364.856
361.813
358.895
356.096
353.408
350.825
348.338
345.942
343.63
341.397
339.237
337.145
335.118
333.151
331.241
329.385
327.581
325.826
324.117
322.454
320.834
319.256
317.719
316.22
314.76
313.336
311.949
310.597
309.28
307.997
306.746
305.529
304.343
303.188
302.065
300.972
299.909
298.875
297.87
296.894
295.946
295.025
294.132
293.266
292.426
291.612
290.824
290.061
289.322
288.608
287.919
287.252
286.609
285.989
285.392
284.816
284.262
283.729
283.217
282.725
282.254
281.802
281.37
280.957
280.562
280.186
279.828
279.487
279.164
278.858
278.568
278.295
278.038
277.797
277.571
277.361
277.166
276.986
276.821
276.67
276.533
276.41
276.302
276.207
276.126
276.059
276.005
275.964
275.937
275.923
275.923
397.996
393.992
390.032
386.135
382.322
378.607
375.003
371.515
368.148
364.9
361.771
358.756
355.85
353.049
350.346
347.736
345.214
342.774
340.411
338.121
335.9
333.743
331.648
329.612
327.631
325.703
323.826
321.998
320.217
318.482
316.79
315.141
313.533
311.965
310.437
308.947
307.495
306.08
304.7
303.356
302.047
300.772
299.53
298.322
297.146
296.002
294.89
293.808
292.758
291.737
290.747
289.785
288.853
287.948
287.072
286.223
285.402
284.607
283.838
283.095
282.378
281.685
281.018
280.374
279.754
279.157
278.583
278.032
277.502
276.995
276.508
276.042
275.597
275.172
274.767
274.381
274.014
273.666
273.336
273.024
272.73
272.453
272.193
271.95
271.724
271.513
271.319
271.141
270.978
270.831
270.699
270.582
270.48
270.392
270.32
270.262
270.218
270.189
270.174
270.173
398.018
394.057
390.132
386.259
382.455
378.734
375.107
371.58
368.158
364.842
361.632
358.526
355.521
352.613
349.798
347.072
344.43
341.867
339.381
336.967
334.622
332.341
330.123
327.964
325.861
323.813
321.818
319.873
317.977
316.128
314.325
312.567
310.852
309.179
307.548
305.957
304.406
302.893
301.419
299.983
298.583
297.22
295.892
294.6
293.342
292.119
290.929
289.772
288.647
287.555
286.495
285.466
284.468
283.5
282.562
281.654
280.774
279.923
279.1
278.305
277.536
276.795
276.08
275.39
274.726
274.087
273.473
272.882
272.315
271.771
271.25
270.751
270.275
269.819
269.385
268.972
268.579
268.206
267.852
267.518
267.203
266.906
266.628
266.368
266.125
265.9
265.692
265.501
265.327
265.169
265.027
264.902
264.792
264.699
264.621
264.559
264.512
264.481
264.465
264.464
398.03
394.092
390.185
386.32
382.514
378.778
375.122
371.554
368.077
364.695
361.408
358.216
355.117
352.108
349.187
346.35
343.594
340.916
338.311
335.778
333.313
330.913
328.575
326.297
324.077
321.913
319.802
317.743
315.734
313.775
311.863
309.997
308.177
306.401
304.668
302.978
301.33
299.723
298.155
296.628
295.139
293.689
292.276
290.901
289.562
288.26
286.993
285.762
284.565
283.402
282.273
281.177
280.114
279.083
278.084
277.116
276.179
275.273
274.396
273.548
272.73
271.94
271.178
270.443
269.736
269.055
268.4
267.77
267.166
266.587
266.031
265.5
264.992
264.506
264.044
263.603
263.184
262.786
262.41
262.054
261.718
261.401
261.105
260.827
260.568
260.328
260.107
259.903
259.717
259.549
259.398
259.264
259.148
259.048
258.965
258.898
258.848
258.815
258.798
258.797
398.035
394.103
390.198
386.33
382.511
378.752
375.063
371.45
367.919
364.471
361.11
357.835
354.645
351.541
348.518
345.576
342.711
339.922
337.204
334.557
331.976
329.461
327.008
324.615
322.28
320.002
317.779
315.609
313.491
311.423
309.404
307.434
305.511
303.633
301.801
300.014
298.27
296.568
294.91
293.292
291.716
290.18
288.684
287.227
285.808
284.428
283.086
281.78
280.511
279.279
278.082
276.92
275.792
274.699
273.64
272.613
271.619
270.658
269.728
268.829
267.961
267.123
266.314
265.535
264.784
264.062
263.367
262.699
262.058
261.443
260.854
260.29
259.75
259.236
258.744
258.277
257.832
257.41
257.01
256.632
256.276
255.94
255.625
255.331
255.056
254.801
254.566
254.35
254.152
253.974
253.814
253.672
253.548
253.442
253.354
253.283
253.23
253.194
253.176
253.175
398.032
394.095
390.18
386.297
382.456
378.668
374.941
371.281
367.692
364.18
360.746
357.391
354.115
350.918
347.798
344.755
341.786
338.889
336.063
333.305
330.614
327.987
325.422
322.917
320.472
318.084
315.751
313.473
311.247
309.074
306.951
304.878
302.853
300.877
298.947
297.064
295.226
293.433
291.683
289.978
288.315
286.695
285.116
283.578
282.081
280.624
279.207
277.829
276.489
275.187
273.923
272.696
271.505
270.35
269.231
268.147
267.097
266.081
265.098
264.149
263.231
262.345
261.491
260.667
259.874
259.11
258.376
257.67
256.992
256.342
255.72
255.123
254.553
254.009
253.49
252.996
252.526
252.08
251.657
251.257
250.88
250.525
250.192
249.881
249.591
249.321
249.072
248.844
248.635
248.446
248.277
248.127
247.996
247.883
247.79
247.715
247.659
247.622
247.602
247.601
398.024
394.07
390.136
386.229
382.359
378.535
374.765
371.055
367.409
363.831
360.325
356.892
353.531
350.245
347.032
343.891
340.822
337.822
334.891
332.027
329.228
326.493
323.82
321.207
318.654
316.158
313.719
311.335
309.005
306.729
304.504
302.33
300.207
298.133
296.107
294.13
292.2
290.316
288.478
286.686
284.938
283.234
281.574
279.957
278.383
276.85
275.359
273.909
272.499
271.13
269.799
268.508
267.254
266.039
264.86
263.719
262.613
261.544
260.509
259.509
258.543
257.61
256.71
255.843
255.007
254.203
253.429
252.686
251.972
251.288
250.632
250.004
249.403
248.83
248.283
247.762
247.267
246.797
246.352
245.93
245.533
245.159
244.808
244.48
244.174
243.891
243.628
243.387
243.167
242.968
242.79
242.632
242.493
242.375
242.277
242.198
242.139
242.099
242.079
242.077
398.012
394.031
390.07
386.132
382.226
378.362
374.544
370.781
367.076
363.433
359.855
356.344
352.902
349.529
346.225
342.99
339.824
336.725
333.692
330.725
327.822
324.982
322.204
319.487
316.828
314.228
311.685
309.199
306.767
304.389
302.065
299.793
297.572
295.403
293.284
291.214
289.193
287.22
285.296
283.418
281.586
279.801
278.061
276.366
274.715
273.108
271.544
270.023
268.544
267.107
265.712
264.356
263.041
261.766
260.529
259.331
258.171
257.048
255.962
254.912
253.898
252.919
251.974
251.064
250.186
249.342
248.53
247.749
246.999
246.281
245.592
244.932
244.302
243.699
243.125
242.578
242.058
241.564
241.097
240.654
240.237
239.844
239.476
239.131
238.81
238.512
238.236
237.983
237.752
237.543
237.355
237.189
237.044
236.919
236.816
236.733
236.671
236.629
236.608
236.606
397.995
393.982
389.985
386.01
382.063
378.153
374.286
370.467
366.701
362.992
359.342
355.756
352.233
348.775
345.383
342.056
338.795
335.6
332.469
329.402
326.399
323.457
320.577
317.757
314.997
312.295
309.651
307.064
304.533
302.056
299.635
297.266
294.951
292.688
290.477
288.317
286.207
284.147
282.137
280.175
278.261
276.395
274.577
272.805
271.079
269.398
267.763
266.172
264.626
263.122
261.662
260.244
258.868
257.533
256.239
254.986
253.771
252.596
251.459
250.36
249.299
248.274
247.285
246.331
245.413
244.529
243.678
242.861
242.076
241.323
240.602
239.911
239.251
238.62
238.019
237.446
236.901
236.384
235.894
235.431
234.994
234.583
234.197
233.836
233.499
233.187
232.898
232.633
232.391
232.171
231.975
231.801
231.649
231.518
231.41
231.323
231.258
231.214
231.191
231.19
397.976
393.923
389.886
385.867
381.875
377.915
373.994
370.118
366.289
362.513
358.793
355.131
351.529
347.988
344.509
341.093
337.741
334.452
331.225
328.062
324.96
321.92
318.941
316.022
313.162
310.361
307.619
304.933
302.305
299.732
297.215
294.753
292.345
289.99
287.689
285.44
283.243
281.098
279.003
276.959
274.965
273.02
271.124
269.276
267.476
265.724
264.018
262.358
260.745
259.176
257.652
256.173
254.737
253.344
251.993
250.684
249.416
248.19
247.003
245.855
244.747
243.677
242.644
241.648
240.689
239.766
238.878
238.024
237.204
236.418
235.664
234.943
234.253
233.594
232.966
232.368
231.799
231.259
230.747
230.263
229.806
229.376
228.973
228.596
228.244
227.918
227.616
227.339
227.086
226.857
226.652
226.469
226.31
226.174
226.061
225.97
225.902
225.856
225.832
225.83
397.954
393.857
389.774
385.708
381.665
377.653
373.676
369.739
365.847
362.004
358.212
354.475
350.794
347.172
343.609
340.106
336.664
333.283
329.964
326.706
323.509
320.373
317.297
314.281
311.325
308.428
305.589
302.808
300.085
297.418
294.808
292.254
289.755
287.311
284.921
282.585
280.303
278.073
275.896
273.771
271.698
269.675
267.703
265.781
263.908
262.085
260.31
258.583
256.903
255.27
253.684
252.144
250.648
249.198
247.791
246.428
245.108
243.83
242.594
241.399
240.244
239.129
238.053
237.016
236.017
235.055
234.129
233.24
232.386
231.566
230.781
230.029
229.311
228.624
227.969
227.346
226.753
226.19
225.656
225.152
224.676
224.228
223.807
223.414
223.048
222.707
222.393
222.104
221.84
221.601
221.387
221.197
221.031
220.89
220.771
220.677
220.605
220.557
220.532
220.53
397.93
393.784
389.651
385.534
381.438
377.37
373.335
369.336
365.38
361.468
357.605
353.793
350.035
346.332
342.686
339.097
335.568
332.098
328.688
325.338
322.048
318.819
315.649
312.539
309.488
306.497
303.564
300.69
297.874
295.116
292.415
289.77
287.183
284.651
282.175
279.754
277.388
275.076
272.818
270.613
268.462
266.363
264.316
262.321
260.377
258.484
256.64
254.847
253.102
251.407
249.759
248.158
246.605
245.098
243.636
242.22
240.848
239.52
238.235
236.993
235.792
234.633
233.515
232.437
231.398
230.398
229.435
228.511
227.623
226.771
225.954
225.172
224.425
223.711
223.03
222.382
221.765
221.179
220.624
220.1
219.605
219.139
218.702
218.292
217.911
217.557
217.23
216.929
216.655
216.407
216.184
215.986
215.814
215.666
215.543
215.444
215.37
215.32
215.294
215.292
397.904
393.705
389.519
385.348
381.196
377.07
372.974
368.912
364.89
360.91
356.975
353.089
349.254
345.471
341.743
338.071
334.457
330.899
327.401
323.961
320.581
317.26
313.998
310.796
307.654
304.571
301.547
298.581
295.675
292.827
290.037
287.304
284.63
282.012
279.451
276.947
274.499
272.106
269.769
267.486
265.259
263.085
260.965
258.898
256.884
254.922
253.011
251.152
249.344
247.586
245.878
244.218
242.608
241.045
239.529
238.06
236.637
235.26
233.927
232.638
231.393
230.191
229.031
227.912
226.834
225.796
224.798
223.838
222.916
222.032
221.185
220.374
219.598
218.857
218.15
217.477
216.837
216.229
215.654
215.109
214.595
214.111
213.657
213.233
212.837
212.469
212.13
211.818
211.533
211.275
211.043
210.838
210.659
210.505
210.378
210.275
210.198
210.146
210.119
210.116
397.876
393.622
389.38
385.152
380.942
376.755
372.597
368.471
364.382
360.332
356.326
352.366
348.455
344.594
340.786
337.031
333.333
329.69
326.105
322.577
319.109
315.699
312.348
309.056
305.824
302.651
299.537
296.483
293.488
290.552
287.675
284.857
282.097
279.396
276.752
274.166
271.637
269.166
266.751
264.392
262.089
259.842
257.65
255.512
253.429
251.4
249.424
247.501
245.63
243.811
242.043
240.326
238.658
237.041
235.472
233.951
232.478
231.052
229.672
228.337
227.048
225.803
224.602
223.443
222.327
221.252
220.218
219.224
218.269
217.353
216.476
215.635
214.832
214.064
213.332
212.635
211.971
211.342
210.745
210.181
209.648
209.147
208.677
208.237
207.827
207.446
207.094
206.77
206.475
206.208
205.968
205.755
205.569
205.41
205.277
205.171
205.091
205.037
205.009
205.006
397.847
393.536
389.235
384.948
380.677
376.429
372.207
368.016
363.859
359.74
355.662
351.629
347.641
343.703
339.815
335.98
332.199
328.473
324.803
321.19
317.634
314.137
310.699
307.319
304
300.739
297.538
294.397
291.316
288.295
285.333
282.43
279.587
276.803
274.079
271.412
268.805
266.256
263.765
261.331
258.955
256.636
254.373
252.167
250.016
247.92
245.88
243.893
241.961
240.082
238.255
236.481
234.758
233.087
231.465
229.894
228.371
226.897
225.471
224.092
222.759
221.472
220.23
219.032
217.878
216.767
215.697
214.67
213.683
212.736
211.828
210.959
210.128
209.334
208.577
207.856
207.17
206.518
205.901
205.317
204.767
204.248
203.762
203.306
202.882
202.488
202.124
201.789
201.484
201.207
200.959
200.738
200.546
200.382
200.244
200.134
200.051
199.995
199.966
199.963
397.817
393.446
389.086
384.737
380.404
376.093
371.806
367.548
363.324
359.135
354.986
350.879
346.817
342.802
338.836
334.921
331.058
327.25
323.497
319.8
316.16
312.578
309.054
305.589
302.183
298.838
295.552
292.326
289.16
286.055
283.01
280.025
277.101
274.236
271.432
268.688
266.003
263.378
260.812
258.305
255.857
253.467
251.136
248.861
246.644
244.484
242.38
240.332
238.339
236.401
234.517
232.686
230.909
229.185
227.512
225.89
224.319
222.798
221.326
219.903
218.527
217.199
215.917
214.68
213.489
212.342
211.238
210.177
209.158
208.18
207.243
206.346
205.488
204.668
203.886
203.141
202.433
201.76
201.123
200.52
199.951
199.416
198.914
198.443
198.005
197.598
197.222
196.876
196.56
196.275
196.018
195.791
195.592
195.422
195.28
195.166
195.08
195.022
194.992
194.988
397.787
393.354
388.932
384.52
380.125
375.749
371.396
367.072
362.779
358.52
354.3
350.12
345.983
341.892
337.849
333.856
329.914
326.025
322.19
318.411
314.688
311.022
307.415
303.866
300.377
296.948
293.578
290.27
287.021
283.834
280.708
277.643
274.639
271.696
268.814
265.993
263.233
260.534
257.895
255.316
252.797
250.338
247.939
245.598
243.316
241.092
238.925
236.816
234.764
232.768
230.828
228.943
227.112
225.336
223.612
221.942
220.323
218.755
217.239
215.772
214.354
212.985
211.664
210.39
209.161
207.979
206.841
205.747
204.697
203.689
202.723
201.798
200.913
200.068
199.262
198.494
197.763
197.07
196.413
195.791
195.204
194.652
194.134
193.649
193.197
192.777
192.389
192.033
191.707
191.412
191.147
190.913
190.708
190.532
190.385
190.268
190.179
190.119
190.088
190.084
397.755
393.26
388.775
384.3
379.84
375.398
370.98
366.588
362.227
357.898
353.606
349.354
345.143
340.977
336.858
332.787
328.767
324.798
320.884
317.024
313.22
309.473
305.784
302.154
298.583
295.071
291.621
288.231
284.902
281.635
278.429
275.285
272.203
269.184
266.226
263.33
260.496
257.724
255.013
252.364
249.777
247.25
244.784
242.378
240.032
237.745
235.518
233.349
231.239
229.186
227.191
225.252
223.369
221.541
219.768
218.049
216.383
214.771
213.21
211.7
210.241
208.832
207.472
206.161
204.897
203.679
202.508
201.382
200.301
199.263
198.269
197.316
196.405
195.535
194.705
193.914
193.162
192.448
191.771
191.131
190.527
189.958
189.425
188.925
188.459
188.027
187.627
187.26
186.925
186.621
186.348
186.106
185.895
185.714
185.563
185.442
185.35
185.288
185.256
185.252
397.723
393.164
388.615
384.076
379.551
375.044
370.559
366.099
361.669
357.271
352.908
348.583
344.3
340.059
335.865
331.718
327.62
323.574
319.581
315.642
311.758
307.932
304.163
300.452
296.801
293.21
289.68
286.211
282.803
279.457
276.174
272.954
269.796
266.701
263.668
260.699
257.793
254.95
252.169
249.451
246.796
244.203
241.671
239.202
236.793
234.446
232.159
229.932
227.764
225.656
223.606
221.614
219.679
217.802
215.98
214.214
212.502
210.845
209.241
207.689
206.19
204.742
203.344
201.995
200.696
199.445
198.24
197.083
195.971
194.904
193.882
192.902
191.966
191.071
190.217
189.404
188.631
187.896
187.2
186.542
185.921
185.336
184.787
184.273
183.794
183.349
182.938
182.56
182.215
181.902
181.622
181.373
181.156
180.969
180.814
180.689
180.595
180.531
180.497
180.493
397.691
393.068
388.454
383.849
379.259
374.686
370.134
365.607
361.107
356.64
352.206
347.81
343.454
339.14
334.871
330.649
326.476
322.353
318.283
314.266
310.305
306.4
302.553
298.764
295.035
291.365
287.757
284.211
280.726
277.304
273.945
270.649
267.417
264.248
261.143
258.102
255.126
252.213
249.364
246.578
243.857
241.198
238.603
236.071
233.602
231.194
228.848
226.564
224.341
222.178
220.075
218.031
216.046
214.119
212.249
210.437
208.68
206.979
205.333
203.74
202.201
200.714
199.279
197.895
196.56
195.276
194.039
192.851
191.709
190.613
189.563
188.557
187.596
186.677
185.8
184.965
184.17
183.416
182.701
182.025
181.387
180.786
180.222
179.694
179.202
178.745
178.322
177.934
177.58
177.258
176.97
176.714
176.491
176.299
176.139
176.011
175.914
175.848
175.813
175.809
397.659
392.97
388.291
383.622
378.965
374.325
369.707
365.112
360.544
356.007
351.503
347.036
342.608
338.222
333.88
329.583
325.335
321.138
316.992
312.899
308.861
304.88
300.956
297.09
293.284
289.539
285.855
282.232
278.672
275.175
271.742
268.373
265.068
261.827
258.651
255.541
252.495
249.513
246.597
243.746
240.96
238.238
235.58
232.987
230.458
227.992
225.589
223.248
220.97
218.754
216.598
214.504
212.469
210.494
208.578
206.72
204.919
203.175
201.487
199.854
198.275
196.751
195.279
193.86
192.491
191.174
189.906
188.687
187.516
186.392
185.314
184.283
183.296
182.353
181.454
180.597
179.782
179.008
178.275
177.581
176.926
176.31
175.731
175.189
174.684
174.215
173.782
173.383
173.019
172.689
172.393
172.131
171.901
171.705
171.54
171.408
171.309
171.241
171.205
171.2
397.626
392.873
388.128
383.393
378.67
373.964
369.278
364.616
359.98
355.374
350.801
346.263
341.764
337.306
332.891
328.522
324.201
319.929
315.709
311.542
307.429
303.373
299.373
295.433
291.552
287.732
283.973
280.277
276.643
273.073
269.567
266.126
262.75
259.439
256.194
253.015
249.901
246.853
243.872
240.956
238.106
235.322
232.604
229.951
227.362
224.839
222.38
219.985
217.653
215.384
213.178
211.033
208.95
206.928
204.966
203.063
201.219
199.433
197.704
196.031
194.415
192.853
191.346
189.891
188.49
187.14
185.841
184.592
183.392
182.24
181.137
180.08
179.068
178.102
177.181
176.303
175.468
174.674
173.923
173.211
172.54
171.908
171.315
170.76
170.242
169.761
169.317
168.908
168.535
168.197
167.894
167.624
167.389
167.187
167.019
166.883
166.781
166.711
166.674
166.669
397.594
392.775
387.965
383.164
378.375
373.603
368.85
364.12
359.416
354.742
350.1
345.493
340.923
336.395
331.909
327.468
323.074
318.729
314.436
310.196
306.01
301.88
297.807
293.793
289.839
285.946
282.114
278.345
274.64
270.998
267.422
263.911
260.465
257.085
253.772
250.526
247.346
244.233
241.188
238.209
235.297
232.452
229.674
226.962
224.317
221.737
219.223
216.774
214.39
212.07
209.814
207.621
205.49
203.421
201.414
199.468
197.581
195.754
193.985
192.274
190.62
189.022
187.479
185.991
184.556
183.175
181.845
180.567
179.339
178.16
177.031
175.949
174.914
173.925
172.981
172.082
171.227
170.415
169.645
168.917
168.23
167.583
166.976
166.407
165.877
165.384
164.929
164.511
164.129
163.782
163.471
163.196
162.954
162.747
162.575
162.436
162.331
162.259
162.221
162.216
397.561
392.677
387.802
382.935
378.081
373.242
368.423
363.626
358.855
354.113
349.402
344.726
340.087
335.489
330.932
326.42
321.956
317.54
313.175
308.863
304.605
300.403
296.258
292.172
288.146
284.181
280.279
276.439
272.663
268.952
265.306
261.726
258.213
254.766
251.387
248.075
244.831
241.654
238.546
235.506
232.534
229.629
226.793
224.024
221.322
218.687
216.119
213.618
211.182
208.812
206.507
204.266
202.089
199.976
197.924
195.935
194.007
192.139
190.331
188.582
186.891
185.258
183.681
182.159
180.693
179.28
177.921
176.614
175.358
174.153
172.997
171.891
170.832
169.821
168.856
167.937
167.062
166.232
165.444
164.7
163.997
163.335
162.713
162.132
161.589
161.086
160.62
160.192
159.801
159.446
159.128
158.846
158.599
158.387
158.21
158.068
157.96
157.887
157.848
157.842
397.529
392.579
387.639
382.707
377.787
372.883
367.997
363.134
358.296
353.486
348.708
343.964
339.257
334.589
329.964
325.382
320.848
316.362
311.926
307.544
303.215
298.943
294.728
290.571
286.475
282.441
278.468
274.559
270.715
266.936
263.222
259.575
255.995
252.483
249.039
245.663
242.356
239.117
235.948
232.847
229.816
226.853
223.96
221.135
218.378
215.69
213.07
210.517
208.031
205.612
203.259
200.971
198.749
196.591
194.497
192.465
190.497
188.589
186.743
184.957
183.23
181.562
179.951
178.397
176.899
175.456
174.067
172.732
171.449
170.218
169.038
167.907
166.826
165.792
164.806
163.867
162.973
162.125
161.32
160.559
159.841
159.164
158.529
157.935
157.38
156.865
156.389
155.952
155.552
155.189
154.864
154.575
154.323
154.106
153.925
153.78
153.669
153.594
153.554
153.548
397.496
392.482
387.477
382.48
377.495
372.526
367.574
362.645
357.741
352.865
348.02
343.208
338.434
333.698
329.004
324.355
319.751
315.196
310.692