/*--------------------------------*- C++ -*----------------------------------*\
  =========                 |
  \\      /  F ield         | OpenFOAM: The Open Source CFD Toolbox
   \\    /   O peration     | Website:  https://openfoam.org
    \\  /    A nd           | Version:  10
     \\/     M anipulation  |
\*---------------------------------------------------------------------------*/
FoamFile
{
    format      ascii;
    class       volScalarField;
    location    "16.5";
    object      T_0;
}
// * * * * * * * * * * * * * * * * * * * * * * * * * * * * * * * * * * * * * //

dimensions      [0 0 0 1 0 0 0];

internalField   nonuniform List<scalar> 
10000
(
374.964
361.242
356.532
354.451
353.309
352.578
352.059
351.666
351.352
351.092
350.87
350.677
350.506
350.352
350.212
350.082
349.961
349.849
349.742
349.642
349.546
349.455
349.367
349.283
349.202
349.124
349.049
348.976
348.905
348.837
348.771
348.706
348.644
348.583
348.523
348.466
348.41
348.355
348.302
348.251
348.201
348.152
348.105
348.059
348.014
347.97
347.928
347.887
347.847
347.808
347.77
347.734
347.699
347.664
347.631
347.599
347.568
347.538
347.509
347.481
347.453
347.427
347.402
347.378
347.354
347.332
347.31
347.289
347.269
347.25
347.232
347.214
347.197
347.181
347.166
347.152
347.138
347.125
347.112
347.1
347.089
347.079
347.069
347.06
347.052
347.044
347.036
347.03
347.023
347.018
347.013
347.009
347.005
347.001
346.999
346.997
346.995
346.994
346.993
346.993
388.566
374.721
366.976
362.423
359.524
357.528
356.061
354.926
354.009
353.245
352.591
352.019
351.51
351.051
350.632
350.245
349.886
349.548
349.231
348.93
348.643
348.37
348.108
347.856
347.614
347.38
347.154
346.936
346.724
346.519
346.32
346.126
345.939
345.756
345.579
345.406
345.238
345.075
344.916
344.761
344.611
344.465
344.323
344.184
344.05
343.919
343.792
343.669
343.549
343.433
343.32
343.211
343.105
343.002
342.903
342.806
342.713
342.623
342.535
342.451
342.37
342.291
342.216
342.143
342.072
342.005
341.94
341.877
341.818
341.76
341.705
341.652
341.602
341.554
341.508
341.464
341.423
341.384
341.346
341.311
341.278
341.247
341.217
341.19
341.164
341.14
341.119
341.098
341.08
341.063
341.049
341.035
341.024
341.014
341.006
340.999
340.994
340.991
340.989
340.989
393.152
382.093
374.224
368.74
364.834
361.948
359.731
357.964
356.512
355.286
354.228
353.297
352.464
351.71
351.02
350.382
349.787
349.229
348.702
348.203
347.728
347.274
346.838
346.42
346.017
345.629
345.253
344.89
344.538
344.196
343.865
343.543
343.231
342.927
342.631
342.344
342.064
341.792
341.528
341.271
341.02
340.777
340.54
340.309
340.086
339.868
339.657
339.451
339.252
339.058
338.87
338.688
338.511
338.34
338.174
338.014
337.858
337.708
337.563
337.422
337.287
337.156
337.03
336.909
336.791
336.679
336.571
336.467
336.367
336.271
336.179
336.092
336.008
335.928
335.851
335.779
335.709
335.644
335.582
335.523
335.468
335.415
335.367
335.321
335.278
335.239
335.202
335.169
335.138
335.11
335.086
335.064
335.044
335.028
335.014
335.003
334.995
334.99
334.987
334.987
395.109
386.273
379.087
373.48
369.126
365.701
362.951
360.691
358.792
357.164
355.741
354.479
353.344
352.31
351.36
350.48
349.657
348.884
348.153
347.459
346.798
346.165
345.559
344.976
344.414
343.872
343.348
342.84
342.349
341.872
341.409
340.96
340.523
340.098
339.685
339.283
338.893
338.512
338.142
337.783
337.432
337.092
336.761
336.439
336.125
335.821
335.525
335.238
334.959
334.688
334.425
334.171
333.923
333.684
333.452
333.227
333.01
332.8
332.596
332.4
332.21
332.028
331.851
331.681
331.517
331.36
331.208
331.063
330.923
330.789
330.661
330.538
330.421
330.309
330.202
330.1
330.003
329.912
329.825
329.743
329.665
329.592
329.524
329.46
329.4
329.345
329.294
329.247
329.204
329.165
329.13
329.1
329.073
329.05
329.031
329.016
329.004
328.997
328.993
328.993
396.127
388.801
382.374
376.967
372.49
368.782
365.684
363.061
360.806
358.839
357.099
355.54
354.127
352.833
351.638
350.526
349.485
348.503
347.574
346.691
345.848
345.041
344.266
343.52
342.802
342.108
341.436
340.787
340.157
339.545
338.952
338.375
337.815
337.27
336.74
336.225
335.724
335.236
334.761
334.299
333.849
333.412
332.987
332.573
332.171
331.78
331.401
331.032
330.673
330.326
329.988
329.661
329.343
329.036
328.738
328.449
328.17
327.9
327.639
327.387
327.143
326.908
326.681
326.463
326.253
326.05
325.856
325.669
325.489
325.317
325.152
324.995
324.844
324.7
324.563
324.432
324.308
324.19
324.078
323.973
323.873
323.779
323.691
323.609
323.533
323.462
323.396
323.336
323.281
323.231
323.186
323.147
323.112
323.083
323.058
323.039
323.024
323.014
323.009
323.009
396.735
390.426
384.642
379.528
375.088
371.257
367.947
365.066
362.537
360.293
358.282
356.461
354.797
353.264
351.841
350.511
349.261
348.08
346.96
345.893
344.873
343.895
342.955
342.05
341.177
340.334
339.518
338.727
337.96
337.216
336.493
335.791
335.108
334.444
333.798
333.169
332.558
331.963
331.384
330.82
330.272
329.739
329.22
328.715
328.224
327.747
327.284
326.834
326.396
325.972
325.56
325.16
324.773
324.397
324.034
323.682
323.341
323.011
322.692
322.384
322.087
321.8
321.523
321.257
321
320.753
320.515
320.287
320.068
319.858
319.657
319.464
319.28
319.104
318.937
318.777
318.625
318.481
318.345
318.216
318.095
317.98
317.873
317.772
317.679
317.592
317.512
317.438
317.371
317.31
317.256
317.208
317.166
317.13
317.1
317.076
317.058
317.046
317.04
317.039
397.13
391.523
386.244
381.416
377.079
373.216
369.783
366.726
363.989
361.522
359.282
357.233
355.346
353.595
351.961
350.427
348.98
347.609
346.305
345.06
343.869
342.725
341.625
340.564
339.54
338.549
337.59
336.66
335.758
334.883
334.032
333.205
332.401
331.619
330.858
330.117
329.397
328.695
328.012
327.348
326.702
326.072
325.46
324.865
324.287
323.724
323.177
322.646
322.13
321.629
321.143
320.672
320.215
319.772
319.342
318.927
318.524
318.135
317.759
317.396
317.045
316.706
316.38
316.065
315.762
315.47
315.19
314.92
314.662
314.414
314.176
313.949
313.732
313.524
313.326
313.138
312.959
312.789
312.628
312.476
312.332
312.197
312.071
311.952
311.842
311.739
311.645
311.558
311.478
311.407
311.342
311.285
311.236
311.193
311.158
311.13
311.108
311.094
311.087
311.087
397.401
392.291
387.397
382.817
378.599
374.749
371.25
368.072
365.177
362.531
360.1
357.854
355.768
353.82
351.992
350.268
348.636
347.085
345.605
344.19
342.833
341.529
340.272
339.059
337.886
336.752
335.652
334.586
333.551
332.546
331.569
330.619
329.695
328.796
327.921
327.069
326.24
325.433
324.648
323.883
323.139
322.415
321.711
321.026
320.359
319.712
319.082
318.47
317.876
317.3
316.74
316.197
315.67
315.16
314.666
314.187
313.724
313.275
312.842
312.423
312.019
311.629
311.253
310.89
310.541
310.205
309.882
309.572
309.274
308.988
308.714
308.452
308.202
307.963
307.735
307.518
307.312
307.116
306.93
306.755
306.59
306.434
306.288
306.151
306.024
305.906
305.797
305.697
305.606
305.523
305.449
305.383
305.326
305.277
305.236
305.203
305.179
305.163
305.154
305.154
397.593
392.841
388.238
383.861
379.755
375.936
372.403
369.14
366.125
363.334
360.742
358.325
356.063
353.938
351.932
350.032
348.226
346.505
344.858
343.28
341.764
340.303
338.895
337.534
336.217
334.941
333.705
332.504
331.339
330.206
329.104
328.033
326.99
325.976
324.988
324.026
323.09
322.179
321.291
320.428
319.587
318.769
317.972
317.198
316.445
315.712
315.001
314.309
313.637
312.985
312.352
311.738
311.142
310.565
310.006
309.464
308.94
308.433
307.943
307.47
307.012
306.571
306.145
305.735
305.34
304.96
304.594
304.243
303.906
303.583
303.273
302.977
302.693
302.423
302.165
301.919
301.686
301.464
301.254
301.056
300.869
300.693
300.528
300.373
300.229
300.095
299.972
299.859
299.755
299.662
299.578
299.503
299.439
299.383
299.337
299.3
299.273
299.254
299.245
299.244
397.731
393.24
388.855
384.638
380.628
376.844
373.293
369.969
366.859
363.949
361.22
358.655
356.236
353.95
351.781
349.718
347.75
345.867
344.062
342.328
340.659
339.048
337.492
335.988
334.53
333.117
331.746
330.414
329.12
327.862
326.638
325.447
324.287
323.159
322.06
320.989
319.947
318.932
317.944
316.982
316.045
315.134
314.247
313.383
312.544
311.728
310.934
310.163
309.414
308.687
307.982
307.297
306.633
305.989
305.365
304.761
304.177
303.612
303.065
302.537
302.027
301.534
301.06
300.602
300.161
299.737
299.33
298.938
298.562
298.201
297.856
297.525
297.209
296.907
296.619
296.345
296.085
295.838
295.604
295.382
295.173
294.977
294.792
294.62
294.459
294.31
294.173
294.046
293.931
293.826
293.733
293.65
293.577
293.515
293.464
293.423
293.392
293.371
293.361
293.361
397.831
393.53
389.308
385.213
381.279
377.526
373.963
370.591
367.405
364.394
361.547
358.851
356.292
353.86
351.541
349.327
347.207
345.172
343.217
341.334
339.517
337.762
336.064
334.42
332.826
331.279
329.776
328.316
326.896
325.514
324.17
322.861
321.587
320.345
319.137
317.959
316.812
315.695
314.607
313.548
312.516
311.512
310.535
309.584
308.659
307.759
306.885
306.035
305.21
304.408
303.63
302.876
302.144
301.434
300.746
300.08
299.436
298.812
298.21
297.627
297.065
296.522
295.998
295.493
295.007
294.54
294.09
293.658
293.243
292.845
292.464
292.1
291.751
291.418
291.101
290.799
290.511
290.238
289.98
289.736
289.506
289.289
289.085
288.895
288.718
288.554
288.402
288.262
288.135
288.02
287.916
287.825
287.745
287.677
287.62
287.574
287.54
287.518
287.506
287.505
397.903
393.74
389.637
385.633
381.756
378.025
374.451
371.038
367.786
364.687
361.737
358.924
356.239
353.673
351.217
348.861
346.598
344.421
342.323
340.297
338.34
336.446
334.611
332.831
331.104
329.426
327.795
326.209
324.666
323.164
321.701
320.277
318.889
317.537
316.22
314.937
313.686
312.468
311.282
310.126
309.001
307.905
306.839
305.801
304.791
303.809
302.855
301.927
301.026
300.15
299.301
298.476
297.677
296.902
296.151
295.423
294.719
294.038
293.38
292.743
292.129
291.535
290.963
290.412
289.881
289.37
288.879
288.406
287.953
287.519
287.102
286.704
286.323
285.959
285.612
285.282
284.968
284.67
284.387
284.12
283.868
283.632
283.409
283.201
283.008
282.828
282.662
282.509
282.37
282.244
282.131
282.031
281.944
281.869
281.807
281.758
281.72
281.695
281.683
281.682
397.955
393.89
389.871
385.931
382.093
378.374
374.787
371.336
368.024
364.848
361.803
358.885
356.085
353.396
350.812
348.325
345.928
343.615
341.381
339.22
337.127
335.099
333.132
331.221
329.365
327.56
325.804
324.095
322.431
320.811
319.232
317.694
316.195
314.734
313.311
311.923
310.571
309.253
307.969
306.718
305.5
304.314
303.16
302.036
300.942
299.879
298.845
297.84
296.864
295.915
294.995
294.101
293.235
292.395
291.581
290.792
290.029
289.291
288.577
287.887
287.221
286.578
285.958
285.36
284.784
284.23
283.698
283.186
282.694
282.223
281.771
281.339
280.926
280.532
280.155
279.797
279.457
279.133
278.827
278.538
278.265
278.008
277.767
277.541
277.331
277.136
276.956
276.791
276.64
276.503
276.381
276.272
276.177
276.096
276.029
275.975
275.935
275.908
275.894
275.893
397.99
393.992
390.03
386.132
382.317
378.602
374.997
371.508
368.139
364.891
361.761
358.745
355.838
353.036
350.332
347.721
345.198
342.757
340.393
338.103
335.881
333.724
331.628
329.591
327.609
325.681
323.803
321.974
320.193
318.456
316.764
315.114
313.506
311.938
310.409
308.919
307.466
306.051
304.671
303.326
302.017
300.741
299.499
298.291
297.114
295.97
294.858
293.776
292.725
291.705
290.714
289.752
288.819
287.915
287.039
286.19
285.368
284.573
283.805
283.062
282.344
281.652
280.984
280.34
279.72
279.123
278.549
277.998
277.469
276.961
276.475
276.009
275.564
275.139
274.734
274.348
273.981
273.633
273.303
272.991
272.697
272.42
272.161
271.918
271.691
271.481
271.287
271.109
270.946
270.799
270.667
270.55
270.448
270.361
270.288
270.23
270.186
270.157
270.142
270.142
398.012
394.057
390.13
386.255
382.451
378.729
375.1
371.572
368.149
364.832
361.621
358.514
355.508
352.599
349.783
347.056
344.413
341.85
339.363
336.948
334.601
332.32
330.101
327.941
325.838
323.789
321.793
319.848
317.951
316.101
314.298
312.538
310.823
309.15
307.518
305.927
304.375
302.862
301.388
299.951
298.551
297.187
295.859
294.567
293.308
292.085
290.894
289.737
288.613
287.521
286.46
285.431
284.433
283.465
282.526
281.618
280.738
279.887
279.064
278.269
277.5
276.759
276.044
275.354
274.69
274.051
273.437
272.846
272.279
271.735
271.215
270.716
270.239
269.784
269.35
268.937
268.544
268.171
267.817
267.483
267.168
266.872
266.593
266.333
266.091
265.866
265.658
265.467
265.292
265.135
264.993
264.868
264.758
264.665
264.587
264.525
264.478
264.447
264.431
264.43
398.025
394.092
390.182
386.316
382.509
378.772
375.115
371.546
368.068
364.685
361.397
358.203
355.103
352.093
349.171
346.333
343.576
340.897
338.292
335.758
333.292
330.891
328.552
326.273
324.052
321.887
319.775
317.716
315.707
313.746
311.834
309.967
308.147
306.37
304.637
302.946
301.297
299.689
298.122
296.594
295.105
293.654
292.241
290.865
289.527
288.224
286.957
285.725
284.528
283.365
282.236
281.14
280.076
279.045
278.046
277.078
276.141
275.234
274.358
273.51
272.692
271.902
271.14
270.405
269.697
269.016
268.361
267.732
267.128
266.549
265.993
265.462
264.954
264.469
264.006
263.566
263.147
262.749
262.373
262.016
261.681
261.364
261.068
260.79
260.532
260.292
260.07
259.867
259.681
259.513
259.362
259.228
259.112
259.012
258.929
258.862
258.812
258.779
258.762
258.761
398.029
394.102
390.195
386.326
382.505
378.746
375.055
371.441
367.908
364.46
361.097
357.821
354.631
351.525
348.501
345.558
342.692
339.902
337.184
334.535
331.954
329.437
326.983
324.589
322.254
319.975
317.751
315.58
313.461
311.393
309.373
307.402
305.478
303.6
301.768
299.98
298.235
296.533
294.874
293.256
291.679
290.143
288.646
287.189
285.77
284.39
283.047
281.741
280.472
279.239
278.042
276.88
275.753
274.659
273.6
272.573
271.579
270.617
269.687
268.789
267.92
267.082
266.274
265.494
264.744
264.021
263.326
262.659
262.018
261.403
260.814
260.25
259.71
259.196
258.705
258.237
257.793
257.371
256.971
256.593
256.237
255.901
255.586
255.292
255.017
254.763
254.527
254.311
254.114
253.935
253.775
253.633
253.51
253.404
253.316
253.245
253.192
253.157
253.138
253.137
398.026
394.094
390.177
386.293
382.451
378.661
374.933
371.271
367.682
364.168
360.733
357.376
354.099
350.901
347.78
344.736
341.766
338.868
336.041
333.283
330.59
327.962
325.396
322.891
320.444
318.055
315.721
313.442
311.216
309.042
306.918
304.844
302.819
300.842
298.912
297.028
295.189
293.395
291.646
289.94
288.277
286.656
285.076
283.538
282.041
280.584
279.166
277.788
276.448
275.146
273.881
272.654
271.463
270.308
269.189
268.104
267.054
266.038
265.056
264.106
263.188
262.303
261.448
260.625
259.831
259.068
258.333
257.628
256.95
256.3
255.677
255.081
254.511
253.967
253.448
252.954
252.484
252.038
251.615
251.216
250.839
250.484
250.151
249.84
249.55
249.281
249.032
248.803
248.595
248.406
248.236
248.086
247.955
247.843
247.75
247.676
247.619
247.582
247.563
247.561
398.018
394.069
390.133
386.224
382.353
378.528
374.757
371.045
367.398
363.819
360.312
356.877
353.515
350.228
347.013
343.872
340.801
337.801
334.868
332.003
329.203
326.467
323.793
321.179
318.625
316.128
313.688
311.303
308.973
306.695
304.47
302.295
300.171
298.096
296.07
294.092
292.161
290.277
288.439
286.646
284.898
283.193
281.533
279.916
278.341
276.808
275.317
273.866
272.456
271.086
269.755
268.464
267.21
265.994
264.816
263.674
262.569
261.499
260.464
259.464
258.498
257.565
256.666
255.798
254.963
254.158
253.385
252.642
251.928
251.243
250.587
249.959
249.359
248.786
248.239
247.718
247.223
246.753
246.308
245.887
245.49
245.116
244.765
244.437
244.132
243.848
243.586
243.345
243.125
242.926
242.747
242.589
242.451
242.333
242.235
242.156
242.097
242.057
242.037
242.036
398.005
394.03
390.066
386.127
382.22
378.354
374.536
370.771
367.064
363.42
359.841
356.329
352.885
349.511
346.206
342.97
339.802
336.702
333.668
330.7
327.796
324.955
322.176
319.457
316.798
314.197
311.653
309.165
306.732
304.354
302.029
299.756
297.535
295.365
293.245
291.174
289.153
287.18
285.254
283.376
281.544
279.758
278.018
276.322
274.671
273.063
271.499
269.978
268.499
267.062
265.666
264.31
262.995
261.719
260.483
259.285
258.124
257.001
255.915
254.865
253.851
252.872
251.927
251.017
250.14
249.295
248.483
247.702
246.953
246.234
245.545
244.886
244.255
243.653
243.079
242.532
242.012
241.519
241.051
240.609
240.192
239.799
239.431
239.086
238.765
238.467
238.191
237.938
237.707
237.498
237.311
237.145
237
236.875
236.772
236.689
236.627
236.585
236.564
236.562
397.989
393.981
389.982
386.005
382.057
378.145
374.276
370.456
366.688
362.978
359.328
355.739
352.215
348.756
345.362
342.035
338.773
335.576
332.444
329.376
326.371
323.429
320.547
317.727
314.965
312.262
309.617
307.029
304.497
302.02
299.597
297.228
294.912
292.648
290.436
288.276
286.165
284.105
282.094
280.131
278.217
276.351
274.532
272.759
271.033
269.352
267.716
266.125
264.578
263.075
261.614
260.196
258.82
257.485
256.191
254.937
253.723
252.547
251.411
250.312
249.25
248.225
247.236
246.283
245.364
244.48
243.63
242.812
242.028
241.275
240.553
239.863
239.203
238.572
237.971
237.398
236.854
236.337
235.847
235.384
234.947
234.536
234.15
233.789
233.452
233.14
232.851
232.586
232.344
232.125
231.929
231.755
231.603
231.473
231.364
231.278
231.212
231.168
231.146
231.144
397.97
393.922
389.882
385.862
381.868
377.907
373.985
370.106
366.277
362.499
358.778
355.114
351.51
347.968
344.488
341.071
337.717
334.427
331.199
328.034
324.931
321.89
318.91
315.989
313.129
310.327
307.583
304.897
302.268
299.694
297.176
294.713
292.304
289.949
287.647
285.397
283.2
281.053
278.958
276.914
274.919
272.973
271.077
269.228
267.428
265.675
263.969
262.309
260.695
259.127
257.603
256.123
254.686
253.293
251.942
250.633
249.366
248.139
246.952
245.804
244.696
243.626
242.593
241.598
240.638
239.715
238.827
237.973
237.154
236.367
235.614
234.893
234.203
233.544
232.916
232.318
231.749
231.209
230.698
230.214
229.757
229.328
228.924
228.547
228.196
227.869
227.568
227.291
227.038
226.809
226.604
226.422
226.263
226.127
226.014
225.923
225.855
225.809
225.785
225.783
397.948
393.855
389.77
385.702
381.658
377.644
373.666
369.728
365.834
361.989
358.196
354.458
350.775
347.151
343.587
340.083
336.639
333.257
329.937
326.677
323.479
320.342
317.265
314.248
311.291
308.392
305.552
302.77
300.046
297.379
294.768
292.212
289.713
287.268
284.877
282.541
280.258
278.027
275.85
273.724
271.65
269.627
267.654
265.732
263.859
262.035
260.259
258.532
256.852
255.219
253.632
252.092
250.596
249.145
247.739
246.376
245.055
243.777
242.541
241.346
240.191
239.076
238.001
236.963
235.964
235.002
234.077
233.187
232.333
231.514
230.729
229.977
229.259
228.572
227.918
227.294
226.701
226.138
225.605
225.101
224.625
224.177
223.757
223.364
222.997
222.657
222.343
222.054
221.79
221.552
221.338
221.148
220.982
220.84
220.722
220.627
220.556
220.508
220.483
220.481
397.923
393.782
389.647
385.528
381.431
377.361
373.324
369.324
365.366
361.453
357.588
353.775
350.015
346.311
342.663
339.073
335.543
332.071
328.66
325.309
322.018
318.787
315.616
312.504
309.453
306.46
303.526
300.651
297.834
295.075
292.373
289.728
287.139
284.606
282.129
279.708
277.341
275.028
272.769
270.564
268.412
266.313
264.266
262.27
260.326
258.432
256.588
254.794
253.049
251.353
249.705
248.105
246.551
245.043
243.582
242.165
240.793
239.465
238.18
236.938
235.738
234.579
233.46
232.382
231.343
230.343
229.381
228.456
227.568
226.716
225.9
225.118
224.371
223.657
222.977
222.328
221.712
221.126
220.572
220.047
219.552
219.086
218.649
218.24
217.859
217.505
217.178
216.878
216.604
216.355
216.132
215.935
215.762
215.615
215.492
215.393
215.319
215.269
215.243
215.241
397.897
393.704
389.515
385.342
381.189
377.061
372.963
368.9
364.876
360.894
356.958
353.07
349.233
345.449
341.72
338.047
334.43
330.872
327.372
323.931
320.549
317.227
313.964
310.761
307.617
304.533
301.507
298.541
295.633
292.784
289.993
287.26
284.584
281.966
279.404
276.899
274.45
272.057
269.719
267.436
265.207
263.033
260.912
258.845
256.83
254.868
252.957
251.098
249.289
247.531
245.822
244.163
242.552
240.989
239.473
238.004
236.581
235.203
233.87
232.582
231.337
230.134
228.974
227.855
226.777
225.74
224.741
223.782
222.86
221.976
221.129
220.318
219.542
218.802
218.095
217.422
216.782
216.175
215.599
215.054
214.541
214.057
213.603
213.179
212.783
212.416
212.076
211.764
211.48
211.222
210.99
210.785
210.606
210.453
210.325
210.222
210.145
210.093
210.066
210.064
397.87
393.621
389.376
385.146
380.934
376.746
372.586
368.458
364.367
360.316
356.309
352.347
348.434
344.571
340.761
337.006
333.305
329.661
326.075
322.546
319.076
315.664
312.312
309.019
305.785
302.611
299.497
296.442
293.446
290.509
287.631
284.811
282.051
279.348
276.703
274.117
271.587
269.115
266.699
264.34
262.036
259.788
257.596
255.458
253.374
251.345
249.368
247.445
245.573
243.754
241.986
240.268
238.601
236.983
235.414
233.893
232.42
230.993
229.614
228.279
226.99
225.745
224.543
223.385
222.269
221.194
220.16
219.166
218.211
217.296
216.418
215.578
214.775
214.007
213.275
212.578
211.915
211.285
210.689
210.125
209.592
209.091
208.621
208.181
207.771
207.39
207.039
206.715
206.42
206.153
205.913
205.7
205.515
205.356
205.223
205.117
205.037
204.983
204.955
204.952
397.841
393.534
389.231
384.941
380.669
376.419
372.195
368.002
363.844
359.723
355.644
351.609
347.62
343.68
339.79
335.954
332.171
328.443
324.771
321.157
317.6
314.102
310.662
307.281
303.96
300.699
297.497
294.354
291.272
288.249
285.286
282.383
279.539
276.754
274.029
271.362
268.753
266.203
263.712
261.277
258.9
256.581
254.317
252.11
249.959
247.863
245.822
243.836
241.903
240.023
238.197
236.422
234.699
233.027
231.406
229.834
228.312
226.838
225.411
224.032
222.699
221.412
220.17
218.972
217.818
216.707
215.638
214.61
213.623
212.676
211.769
210.9
210.069
209.275
208.518
207.797
207.111
206.46
205.843
205.26
204.709
204.191
203.704
203.249
202.825
202.431
202.067
201.733
201.427
201.151
200.903
200.682
200.49
200.326
200.188
200.078
199.996
199.939
199.91
199.907
397.811
393.444
389.081
384.73
380.396
376.082
371.794
367.535
363.308
359.118
354.967
350.858
346.794
342.778
338.81
334.893
331.03
327.22
323.465
319.766
316.125
312.541
309.016
305.55
302.143
298.796
295.509
292.282
289.115
286.008
282.962
279.976
277.051
274.186
271.381
268.636
265.95
263.324
260.758
258.25
255.801
253.411
251.078
248.804
246.586
244.425
242.321
240.272
238.279
236.34
234.456
232.626
230.848
229.124
227.451
225.829
224.258
222.737
221.265
219.841
218.466
217.137
215.855
214.619
213.428
212.28
211.177
210.116
209.097
208.119
207.182
206.285
205.427
204.608
203.826
203.081
202.373
201.701
201.064
200.461
199.892
199.357
198.855
198.385
197.946
197.54
197.164
196.818
196.503
196.217
195.96
195.733
195.534
195.364
195.222
195.109
195.023
194.965
194.935
194.931
397.78
393.352
388.927
384.514
380.116
375.738
371.384
367.058
362.763
358.503
354.28
350.099
345.96
341.867
337.823
333.828
329.884
325.993
322.157
318.376
314.652
310.985
307.376
303.826
300.336
296.905
293.534
290.224
286.975
283.787
280.659
277.593
274.588
271.644
268.761
265.94
263.179
260.478
257.839
255.259
252.74
250.28
247.88
245.539
243.256
241.032
238.865
236.755
234.703
232.707
230.766
228.881
227.05
225.273
223.549
221.879
220.26
218.692
217.176
215.709
214.291
212.922
211.601
210.326
209.098
207.916
206.778
205.685
204.634
203.627
202.661
201.736
200.851
200.006
199.2
198.432
197.702
197.009
196.352
195.73
195.144
194.592
194.074
193.589
193.137
192.717
192.33
191.973
191.648
191.353
191.088
190.854
190.649
190.473
190.327
190.209
190.121
190.061
190.029
190.026
397.749
393.258
388.77
384.293
379.831
375.388
370.968
366.574
362.21
357.88
353.586
349.332
345.12
340.952
336.831
332.758
328.736
324.766
320.85
316.989
313.183
309.435
305.744
302.112
298.54
295.027
291.575
288.184
284.854
281.586
278.379
275.234
272.151
269.13
266.172
263.275
260.44
257.667
254.956
252.306
249.718
247.19
244.723
242.317
239.97
237.684
235.456
233.287
231.176
229.123
227.127
225.188
223.305
221.477
219.703
217.984
216.319
214.706
213.145
211.636
210.177
208.768
207.408
206.096
204.832
203.615
202.444
201.318
200.237
199.199
198.205
197.252
196.342
195.472
194.642
193.851
193.099
192.386
191.709
191.069
190.465
189.897
189.363
188.864
188.398
187.966
187.566
187.199
186.864
186.56
186.288
186.046
185.835
185.654
185.503
185.382
185.29
185.228
185.196
185.192
397.717
393.162
388.61
384.069
379.542
375.033
370.546
366.085
361.652
357.252
352.888
348.561
344.276
340.033
335.837
331.688
327.589
323.541
319.546
315.606
311.721
307.892
304.122
300.41
296.757
293.165
289.633
286.163
282.754
279.407
276.123
272.901
269.742
266.646
263.613
260.643
257.736
254.892
252.11
249.392
246.736
244.142
241.61
239.14
236.731
234.383
232.095
229.868
227.7
225.591
223.541
221.549
219.614
217.736
215.914
214.148
212.436
210.779
209.175
207.623
206.124
204.675
203.278
201.929
200.63
199.379
198.175
197.017
195.906
194.839
193.816
192.837
191.901
191.006
190.153
189.34
188.567
187.832
187.137
186.478
185.857
185.273
184.724
184.21
183.731
183.287
182.876
182.498
182.153
181.841
181.56
181.311
181.094
180.908
180.752
180.628
180.534
180.47
180.436
180.432
397.685
393.066
388.449
383.842
379.25
374.675
370.121
365.591
361.09
356.621
352.185
347.787
343.429
339.114
334.843
330.619
326.444
322.319
318.247
314.229
310.266
306.36
302.511
298.721
294.99
291.319
287.71
284.162
280.676
277.253
273.892
270.596
267.362
264.192
261.087
258.045
255.067
252.153
249.303
246.517
243.795
241.136
238.54
236.008
233.538
231.13
228.784
226.499
224.275
222.112
220.008
217.964
215.979
214.052
212.182
210.369
208.613
206.912
205.265
203.673
202.133
200.646
199.211
197.827
196.493
195.208
193.972
192.784
191.642
190.547
189.497
188.491
187.529
186.611
185.734
184.899
184.105
183.351
182.636
181.96
181.322
180.721
180.158
179.63
179.138
178.681
178.259
177.871
177.516
177.195
176.907
176.651
176.428
176.236
176.077
175.948
175.851
175.786
175.751
175.747
397.652
392.968
388.286
383.614
378.956
374.314
369.693
365.096
360.527
355.988
351.482
347.013
342.583
338.195
333.851
329.553
325.303
321.103
316.955
312.861
308.822
304.839
300.913
297.046
293.239
289.492
285.806
282.182
278.621
275.123
271.689
268.318
265.012
261.77
258.594
255.482
252.435
249.453
246.536
243.684
240.897
238.174
235.516
232.922
230.392
227.926
225.522
223.181
220.903
218.686
216.531
214.436
212.401
210.426
208.509
206.651
204.85
203.106
201.418
199.785
198.207
196.682
195.21
193.791
192.423
191.105
189.837
188.618
187.447
186.324
185.247
184.215
183.229
182.286
181.387
180.53
179.716
178.942
178.209
177.515
176.86
176.244
175.665
175.124
174.619
174.15
173.717
173.319
172.955
172.625
172.329
172.067
171.837
171.641
171.477
171.345
171.245
171.178
171.142
171.137
397.62
392.871
388.123
383.385
378.661
373.953
369.265
364.6
359.962
355.354
350.779
346.24
341.739
337.279
332.862
328.491
324.168
319.894
315.672
311.503
307.389
303.331
299.33
295.388
291.506
287.684
283.924
280.226
276.591
273.02
269.513
266.071
262.693
259.381
256.135
252.955
249.84
246.792
243.809
240.893
238.042
235.258
232.538
229.885
227.296
224.772
222.312
219.917
217.584
215.315
213.109
210.964
208.881
206.858
204.896
202.993
201.149
199.362
197.634
195.961
194.345
192.783
191.275
189.821
188.42
187.07
185.771
184.522
183.323
182.171
181.068
180.011
179
178.034
177.113
176.235
175.4
174.607
173.855
173.144
172.473
171.842
171.249
170.694
170.176
169.695
169.251
168.843
168.47
168.132
167.828
167.559
167.324
167.122
166.954
166.819
166.716
166.647
166.61
166.605
397.587
392.773
387.96
383.156
378.365
373.591
368.836
364.104
359.398
354.722
350.078
345.469
340.897
336.366
331.878
327.436
323.04
318.694
314.399
310.156
305.969
301.837
297.763
293.747
289.792
285.897
282.064
278.294
274.587
270.944
267.366
263.854
260.407
257.026
253.712
250.465
247.284
244.171
241.124
238.145
235.232
232.386
229.608
226.895
224.249
221.669
219.154
216.705
214.32
212
209.743
207.55
205.419
203.351
201.343
199.397
197.51
195.682
193.914
192.202
190.548
188.95
187.408
185.92
184.485
183.104
181.775
180.496
179.268
178.09
176.96
175.879
174.844
173.855
172.912
172.013
171.158
170.346
169.577
168.849
168.162
167.515
166.908
166.34
165.81
165.317
164.863
164.444
164.062
163.716
163.405
163.129
162.888
162.682
162.509
162.37
162.265
162.194
162.156
162.151
397.555
392.675
387.796
382.927
378.071
373.23
368.409
363.61
358.836
354.092
349.379
344.701
340.061
335.46
330.902
326.388
321.921
317.503
313.137
308.823
304.563
300.359
296.213
292.126
288.098
284.132
280.228
276.387
272.609
268.897
265.25
261.669
258.154
254.706
251.326
248.013
244.768
241.59
238.481
235.44
232.467
229.562
226.725
223.955
221.253
218.618
216.05
213.548
211.112
208.741
206.436
204.195
202.017
199.903
197.852
195.863
193.934
192.067
190.259
188.51
186.819
185.185
183.608
182.087
180.62
179.208
177.849
176.542
175.286
174.081
172.926
171.82
170.761
169.75
168.786
167.867
166.992
166.162
165.375
164.63
163.928
163.266
162.645
162.063
161.521
161.018
160.552
160.124
159.733
159.379
159.061
158.779
158.532
158.32
158.143
158.001
157.894
157.82
157.781
157.776
397.522
392.577
387.634
382.699
377.777
372.871
367.983
363.117
358.277
353.466
348.685
343.939
339.23
334.56
329.933
325.349
320.813
316.325
311.888
307.503
303.173
298.899
294.682
290.524
286.426
282.39
278.416
274.506
270.66
266.879
263.165
259.517
255.936
252.422
248.977
245.6
242.292
239.052
235.882
232.781
229.748
226.785
223.891
221.065
218.308
215.62
212.999
210.445
207.959
205.54
203.186
200.899
198.676
196.518
194.423
192.392
190.423
188.516
186.669
184.883
183.156
181.488
179.877
178.323
176.826
175.383
173.994
172.659
171.377
170.146
168.965
167.835
166.754
165.721
164.735
163.796
162.902
162.054
161.25
160.489
159.771
159.094
158.46
157.865
157.311
156.796
156.321
155.883
155.483
155.121
154.796
154.507
154.255
154.038
153.858
153.712
153.602
153.527
153.487
153.481
397.49
392.48
387.472
382.472
377.485
372.513
367.56
362.628
357.722
352.844
347.996
343.183
338.406
333.669
328.973
324.321
319.716
315.159
310.653
306.199