/*--------------------------------*- C++ -*----------------------------------*\
  =========                 |
  \\      /  F ield         | OpenFOAM: The Open Source CFD Toolbox
   \\    /   O peration     | Website:  https://openfoam.org
    \\  /    A nd           | Version:  10
     \\/     M anipulation  |
\*---------------------------------------------------------------------------*/
FoamFile
{
    format      ascii;
    class       volScalarField;
    location    "7.1";
    object      T;
}
// * * * * * * * * * * * * * * * * * * * * * * * * * * * * * * * * * * * * * //

dimensions      [0 0 -1 0 0 0 0];

internalField   nonuniform List<scalar> 
100
(
0.0441484
0.13088
0.212975
0.287526
0.351891
0.403789
0.441384
0.463342
0.468886
0.45782
0.430535
0.387998
0.331716
0.263683
0.186308
0.102334
0.0147347
-0.0733868
-0.158909
-0.238801
-0.310234
-0.370676
-0.417987
-0.450491
-0.467036
-0.467036
-0.450491
-0.417987
-0.370675
-0.310233
-0.2388
-0.158907
-0.0733857
0.0147359
0.102335
0.18631
0.263684
0.331717
0.387998
0.430535
0.45782
0.468886
0.463342
0.441384
0.403789
0.35189
0.287525
0.212975
0.130879
0.0441474
-0.0441484
-0.13088
-0.212975
-0.287526
-0.351891
-0.40379
-0.441384
-0.463342
-0.468886
-0.45782
-0.430535
-0.387998
-0.331716
-0.263683
-0.186309
-0.102334
-0.0147349
0.0733866
0.158908
0.238801
0.310233
0.370676
0.417987
0.450491
0.467036
0.467036
0.450491
0.417987
0.370675
0.310233
0.2388
0.158908
0.0733859
-0.0147356
-0.102335
-0.186309
-0.263683
-0.331716
-0.387998
-0.430535
-0.45782
-0.468886
-0.463342
-0.441384
-0.403789
-0.35189
-0.287525
-0.212975
-0.130879
-0.0441474
)
;

boundaryField
{
    inlet
    {
        type            cyclic;
    }
    outlet
    {
        type            cyclic;
    }
    bottom
    {
        type            slip;
    }
    top
    {
        type            slip;
    }
    frontAndBack
    {
        type            empty;
    }
}


// ************************************************************************* //
