/*--------------------------------*- C++ -*----------------------------------*\
  =========                 |
  \\      /  F ield         | OpenFOAM: The Open Source CFD Toolbox
   \\    /   O peration     | Website:  https://openfoam.org
    \\  /    A nd           | Version:  10
     \\/     M anipulation  |
\*---------------------------------------------------------------------------*/
FoamFile
{
    format      ascii;
    class       volScalarField;
    location    "7.1";
    object      T_0;
}
// * * * * * * * * * * * * * * * * * * * * * * * * * * * * * * * * * * * * * //

dimensions      [0 0 -1 0 0 0 0];

internalField   nonuniform List<scalar> 
100
(
0.0439472
0.130284
0.212005
0.286216
0.350287
0.401949
0.439372
0.461231
0.466749
0.455733
0.428573
0.38623
0.330204
0.262481
0.185459
0.101868
0.0146675
-0.0730524
-0.158184
-0.237713
-0.30882
-0.368987
-0.416082
-0.448438
-0.464907
-0.464907
-0.448438
-0.416082
-0.368986
-0.308819
-0.237712
-0.158183
-0.0730512
0.0146687
0.101869
0.185461
0.262482
0.330205
0.38623
0.428573
0.455734
0.46675
0.461231
0.439372
0.401949
0.350287
0.286215
0.212004
0.130283
0.0439462
-0.0439472
-0.130284
-0.212005
-0.286216
-0.350287
-0.40195
-0.439373
-0.461231
-0.46675
-0.455733
-0.428573
-0.38623
-0.330204
-0.262481
-0.18546
-0.101868
-0.0146677
0.0730522
0.158184
0.237712
0.30882
0.368987
0.416082
0.448438
0.464907
0.464907
0.448438
0.416082
0.368986
0.308819
0.237712
0.158183
0.0730514
-0.0146685
-0.101869
-0.18546
-0.262482
-0.330205
-0.38623
-0.428573
-0.455733
-0.466749
-0.46123
-0.439372
-0.401949
-0.350286
-0.286215
-0.212004
-0.130283
-0.0439462
)
;

boundaryField
{
    inlet
    {
        type            cyclic;
    }
    outlet
    {
        type            cyclic;
    }
    bottom
    {
        type            slip;
    }
    top
    {
        type            slip;
    }
    frontAndBack
    {
        type            empty;
    }
}


// ************************************************************************* //
