/*--------------------------------*- C++ -*----------------------------------*\
| =========                 |                                                 |
| \\      /  F ield         | OpenFOAM: The Open Source CFD Toolbox           |
|  \\    /   O peration     | Version:  2406                                  |
|   \\  /    A nd           | Website:  www.openfoam.com                      |
|    \\/     M anipulation  |                                                 |
\*---------------------------------------------------------------------------*/
FoamFile
{
    version     2.0;
    format      ascii;
    arch        "LSB;label=32;scalar=64";
    class       volScalarField;
    location    "6.25";
    object      p;
}
// * * * * * * * * * * * * * * * * * * * * * * * * * * * * * * * * * * * * * //

dimensions      [0 2 -2 0 0 0 0];

internalField   nonuniform List<scalar> 
34560
(
39.307044
39.300767
39.293162
39.284357
39.273794
39.263406
39.25701
39.25841
39.265997
39.357692
39.350361
39.34077
39.328701
39.313953
39.299641
39.29052
39.290566
39.298193
39.41308
39.405024
39.394108
39.379397
39.36038
39.341151
39.327772
39.324685
39.330126
39.467987
39.459168
39.44699
39.430095
39.407453
39.38356
39.365376
39.35767
39.358961
39.523025
39.513605
39.500199
39.48094
39.454015
39.424877
39.401211
39.388204
39.384794
39.578935
39.568968
39.554371
39.53259
39.500826
39.465364
39.435278
39.416445
39.40819
39.636479
39.625675
39.60949
39.584896
39.547931
39.505167
39.467665
39.442327
39.428826
39.696524
39.684382
39.665935
39.637658
39.594943
39.543537
39.497604
39.465417
39.446958
39.759929
39.745754
39.723993
39.690948
39.641987
39.580473
39.525189
39.486164
39.463475
39.82392
39.80758
39.781717
39.742511
39.686689
39.615549
39.550567
39.505083
39.479121
39.881581
39.861919
39.831486
39.786785
39.724529
39.646094
39.572064
39.521416
39.492607
39.917385
39.895414
39.861957
39.813884
39.747786
39.66496
39.585238
39.531654
39.500877
39.917386
39.895414
39.861957
39.813884
39.747787
39.66496
39.585239
39.531655
39.500877
39.881582
39.861919
39.831487
39.786786
39.724531
39.646096
39.572065
39.521417
39.492608
39.823922
39.807581
39.781719
39.742513
39.686691
39.615551
39.550569
39.505085
39.479123
39.759932
39.745756
39.723995
39.69095
39.641989
39.580475
39.525192
39.486166
39.463477
39.696525
39.684382
39.665936
39.63766
39.594945
39.54354
39.497607
39.46542
39.44696
39.636481
39.625678
39.609494
39.5849
39.547935
39.505171
39.467669
39.442331
39.428829
39.578939
39.568973
39.554376
39.532595
39.50083
39.465367
39.435282
39.416449
39.408193
39.523029
39.51361
39.500204
39.480945
39.45402
39.424882
39.401215
39.388208
39.384799
39.467993
39.459174
39.446996
39.430101
39.407458
39.383565
39.365381
39.357676
39.358967
39.413085
39.40503
39.394113
39.379403
39.360386
39.341156
39.327778
39.324691
39.330132
39.357696
39.350365
39.340776
39.328707
39.31396
39.299648
39.290527
39.290571
39.298199
39.30705
39.300773
39.293169
39.284365
39.273803
39.263416
39.25702
39.258417
39.266006
36.369457
36.369879
36.370132
36.370245
36.370139
36.369971
36.370466
36.372083
36.375386
36.363937
36.364565
36.365035
36.365472
36.365852
36.366504
36.368298
36.371434
36.375554
36.35813
36.359023
36.359651
36.360163
36.360743
36.361856
36.364476
36.36842
36.372617
36.353144
36.354386
36.355198
36.355603
36.356186
36.357421
36.360441
36.364756
36.368892
36.349494
36.35113
36.352124
36.352144
36.352572
36.353642
36.356706
36.361083
36.365048
36.347469
36.34958
36.350785
36.350339
36.350157
36.350648
36.353436
36.357687
36.361474
36.348316
36.350913
36.352254
36.35101
36.349619
36.349094
36.351287
36.355252
36.358889
36.352952
36.356023
36.357471
36.355285
36.351719
36.349871
36.35126
36.354882
36.358451
36.361577
36.365071
36.366549
36.363167
36.356598
36.353503
36.354316
36.35774
36.361305
36.373673
36.377475
36.378943
36.374342
36.364929
36.359814
36.360645
36.364279
36.367929
36.386538
36.390486
36.391969
36.386496
36.375031
36.36717
36.368836
36.373105
36.376908
36.395505
36.399406
36.400825
36.394805
36.382032
36.372527
36.375003
36.37986
36.383762
36.395505
36.399407
36.400825
36.394806
36.382033
36.372528
36.375004
36.37986
36.383762
36.386539
36.390487
36.39197
36.386497
36.375032
36.367171
36.368837
36.373106
36.376909
36.373675
36.377477
36.378945
36.374343
36.364931
36.359816
36.360647
36.364281
36.367931
36.36158
36.365074
36.366551
36.363169
36.3566
36.353505
36.354319
36.357743
36.361307
36.352953
36.356024
36.357473
36.355288
36.351722
36.349874
36.351264
36.354885
36.358454
36.348318
36.350916
36.352258
36.351014
36.349623
36.349098
36.351291
36.355256
36.358892
36.347474
36.349585
36.35079
36.350344
36.350162
36.350653
36.353441
36.357692
36.361479
36.3495
36.351136
36.352131
36.352151
36.352579
36.353648
36.356712
36.361089
36.365054
36.353152
36.354394
36.355206
36.355611
36.356193
36.357428
36.360447
36.364763
36.368898
36.358138
36.359032
36.359659
36.360172
36.360752
36.361865
36.364484
36.368428
36.372624
36.363946
36.364575
36.365044
36.365482
36.365862
36.366514
36.368307
36.371443
36.375562
36.369468
36.36989
36.370143
36.370256
36.370151
36.369983
36.370477
36.372093
36.375396
35.385638
35.38568
35.385721
35.385618
35.385258
35.384972
35.384946
35.385321
35.38584
35.39093
35.390972
35.390976
35.390708
35.390052
35.389371
35.38887
35.388769
35.388978
35.395771
35.395851
35.395896
35.395615
35.394785
35.393805
35.392882
35.392304
35.392196
35.400532
35.400654
35.400752
35.400496
35.399519
35.39827
35.396939
35.39587
35.395365
35.405205
35.405375
35.405537
35.405337
35.404221
35.402707
35.400958
35.399377
35.398416
35.409651
35.409902
35.41017
35.410074
35.408837
35.407067
35.404888
35.402781
35.401338
35.413902
35.414242
35.414635
35.414667
35.413319
35.411294
35.408681
35.406056
35.404133
35.417885
35.418318
35.418843
35.418998
35.41759
35.415321
35.412297
35.409177
35.406801
35.421643
35.422164
35.422797
35.423041
35.421553
35.419048
35.41565
35.412093
35.409314
35.424977
35.425593
35.426342
35.42667
35.425051
35.422294
35.418577
35.41466
35.411555
35.427587
35.428293
35.429158
35.429566
35.427812
35.424804
35.420814
35.41663
35.413265
35.429086
35.429839
35.430772
35.431233
35.42938
35.426169
35.42202
35.41769
35.414184
35.429086
35.429839
35.430772
35.431233
35.429381
35.42617
35.42202
35.41769
35.414185
35.427588
35.428294
35.429159
35.429568
35.427814
35.424806
35.420815
35.416632
35.413267
35.424979
35.425596
35.426345
35.426672
35.425053
35.422296
35.418579
35.414663
35.411557
35.421646
35.422167
35.4228
35.423044
35.421556
35.419051
35.415654
35.412097
35.409318
35.417889
35.418322
35.418847
35.419002
35.417595
35.415326
35.412301
35.409181
35.406805
35.413906
35.414247
35.41464
35.414672
35.413325
35.4113
35.408687
35.406061
35.404138
35.409657
35.409908
35.410177
35.410081
35.408844
35.407073
35.404894
35.402787
35.401344
35.405212
35.405382
35.405544
35.405344
35.404229
35.402714
35.400965
35.399383
35.398423
35.400541
35.400663
35.400761
35.400505
35.399528
35.398279
35.396947
35.395878
35.395373
35.395781
35.395861
35.395906
35.395625
35.394795
35.393815
35.392891
35.392314
35.392205
35.390942
35.390984
35.390987
35.39072
35.390064
35.389382
35.388881
35.38878
35.388988
35.385651
35.385693
35.385734
35.385631
35.385271
35.384985
35.384959
35.385333
35.385851
33.442285
33.442169
33.442046
33.441988
33.441999
33.441978
33.441843
33.441573
33.441402
33.442681
33.442546
33.442412
33.442368
33.442416
33.44244
33.442351
33.442141
33.441968
33.443096
33.44295
33.44281
33.44278
33.442874
33.442945
33.442886
33.442672
33.442395
33.443615
33.443468
33.443327
33.443306
33.443435
33.443536
33.443482
33.443226
33.442827
33.444192
33.444049
33.443913
33.443901
33.444066
33.444195
33.444137
33.443824
33.443299
33.444754
33.444624
33.444506
33.444513
33.444719
33.444877
33.44481
33.444434
33.443786
33.445324
33.445208
33.445107
33.445132
33.445376
33.445559
33.445477
33.445036
33.444273
33.445871
33.445772
33.44569
33.445735
33.446017
33.446215
33.446118
33.445616
33.444747
33.446386
33.446304
33.44624
33.4463
33.446618
33.446827
33.446713
33.446154
33.445192
33.446835
33.446772
33.446726
33.4468
33.447141
33.44736
33.447232
33.44663
33.445588
33.447175
33.447127
33.447098
33.447185
33.447543
33.447766
33.447631
33.44701
33.445934
33.447377
33.447335
33.447314
33.447402
33.447768
33.447992
33.447858
33.447234
33.446149
33.447377
33.447336
33.447314
33.447403
33.447768
33.447993
33.447859
33.447235
33.446149
33.447176
33.447128
33.4471
33.447187
33.447545
33.447768
33.447633
33.447012
33.445935
33.446838
33.446774
33.446729
33.446803
33.447144
33.447363
33.447235
33.446632
33.44559
33.44639
33.446308
33.446244
33.446304
33.446622
33.446831
33.446717
33.446158
33.445196
33.445876
33.445777
33.445694
33.44574
33.446023
33.44622
33.446123
33.44562
33.444752
33.445329
33.445214
33.445113
33.445139
33.445383
33.445565
33.445483
33.445042
33.444278
33.444761
33.444632
33.444513
33.44452
33.444727
33.444884
33.444817
33.44444
33.443792
33.444201
33.444057
33.443922
33.44391
33.444075
33.444204
33.444145
33.443832
33.443306
33.443625
33.443478
33.443338
33.443316
33.443445
33.443547
33.443492
33.443235
33.442836
33.443107
33.442962
33.442822
33.442792
33.442886
33.442957
33.442898
33.442683
33.442405
33.442694
33.44256
33.442425
33.442382
33.44243
33.442454
33.442365
33.442155
33.441981
33.4423
33.442184
33.442061
33.442003
33.442014
33.441994
33.441858
33.441589
33.441417
31.929767
31.929786
31.929793
31.929754
31.929666
31.929573
31.92953
31.929582
31.929701
31.930358
31.930378
31.930377
31.930314
31.93019
31.930059
31.929989
31.930031
31.930148
31.930783
31.930808
31.930809
31.930739
31.930596
31.930442
31.930352
31.930381
31.930512
31.931136
31.931167
31.931172
31.931098
31.930943
31.930773
31.930671
31.930698
31.930855
31.931433
31.93147
31.93148
31.931407
31.931246
31.931068
31.93096
31.93099
31.931166
31.931674
31.931719
31.931737
31.93167
31.931509
31.931329
31.931221
31.931251
31.931422
31.931879
31.931932
31.931959
31.931899
31.931741
31.931561
31.931447
31.931468
31.931629
31.932046
31.932108
31.932145
31.932093
31.93194
31.931759
31.931637
31.931649
31.931806
31.932177
31.932248
31.932296
31.932252
31.932105
31.931925
31.931799
31.931803
31.931957
31.932275
31.932354
31.932411
31.932376
31.932235
31.932056
31.931928
31.931928
31.932077
31.932341
31.932426
31.93249
31.932461
31.932325
31.932149
31.93202
31.932017
31.932165
31.932375
31.932463
31.932531
31.932506
31.932373
31.932197
31.932067
31.932065
31.932213
31.932376
31.932464
31.932531
31.932507
31.932373
31.932198
31.932068
31.932065
31.932213
31.932342
31.932428
31.932491
31.932463
31.932327
31.932151
31.932021
31.932019
31.932167
31.932278
31.932357
31.932414
31.932379
31.932238
31.932059
31.931931
31.931931
31.93208
31.932182
31.932253
31.9323
31.932257
31.93211
31.931929
31.931803
31.931808
31.93196
31.932051
31.932114
31.932151
31.932099
31.931946
31.931765
31.931643
31.931654
31.931812
31.931886
31.931939
31.931967
31.931906
31.931749
31.931569
31.931455
31.931475
31.931635
31.931683
31.931728
31.931746
31.931679
31.931519
31.931339
31.93123
31.931259
31.93143
31.931443
31.93148
31.93149
31.931418
31.931257
31.931079
31.930971
31.931
31.931176
31.931148
31.931179
31.931184
31.931111
31.930956
31.930786
31.930683
31.930709
31.930866
31.930797
31.930822
31.930823
31.930753
31.930611
31.930456
31.930366
31.930395
31.930525
31.930374
31.930394
31.930393
31.93033
31.930206
31.930075
31.930005
31.930046
31.930163
31.929784
31.929804
31.92981
31.929771
31.929683
31.92959
31.929547
31.929599
31.929717
30.247688
30.247666
30.247646
30.247638
30.24764
30.247636
30.247606
30.247539
30.247467
30.24788
30.247857
30.247836
30.24783
30.247835
30.247831
30.247797
30.247721
30.247626
30.248057
30.248033
30.248013
30.248012
30.248021
30.248017
30.247971
30.247868
30.247724
30.248243
30.24822
30.248201
30.248202
30.248212
30.248204
30.248141
30.248004
30.247811
30.248426
30.248404
30.248387
30.24839
30.248402
30.248389
30.248311
30.248151
30.247924
30.248594
30.248574
30.248561
30.248569
30.248586
30.248574
30.248488
30.248317
30.248082
30.248752
30.248735
30.248725
30.248739
30.248762
30.248754
30.248671
30.248495
30.248253
30.248892
30.248877
30.248871
30.24889
30.24892
30.248919
30.248842
30.248662
30.248403
30.24901
30.248997
30.248994
30.249017
30.249054
30.24906
30.248985
30.248799
30.248525
30.249101
30.249089
30.249089
30.249117
30.249158
30.249169
30.249094
30.248904
30.248618
30.249162
30.249151
30.249153
30.249184
30.249229
30.249243
30.249169
30.248976
30.248682
30.249195
30.249185
30.249187
30.249219
30.249266
30.249281
30.249208
30.249013
30.248715
30.249196
30.249185
30.249188
30.24922
30.249266
30.249282
30.249208
30.249013
30.248715
30.249164
30.249153
30.249155
30.249186
30.249231
30.249245
30.249171
30.248978
30.248684
30.249104
30.249092
30.249092
30.24912
30.249162
30.249173
30.249098
30.248908
30.248621
30.249015
30.249001
30.248999
30.249023
30.249059
30.249065
30.24899
30.248804
30.248529
30.248899
30.248883
30.248877
30.248896
30.248927
30.248926
30.248849
30.248668
30.248408
30.24876
30.248743
30.248734
30.248747
30.24877
30.248763
30.248679
30.248503
30.24826
30.248604
30.248584
30.248571
30.24858
30.248596
30.248584
30.248498
30.248326
30.24809
30.248438
30.248416
30.248399
30.248402
30.248414
30.248401
30.248324
30.248162
30.247934
30.248257
30.248234
30.248216
30.248216
30.248227
30.248218
30.248155
30.248017
30.247823
30.248074
30.24805
30.24803
30.248029
30.248038
30.248034
30.247988
30.247883
30.247738
30.247899
30.247876
30.247855
30.247849
30.247854
30.24785
30.247815
30.247738
30.247642
30.247709
30.247687
30.247666
30.247659
30.247661
30.247656
30.247626
30.247558
30.247485
28.623453
28.623456
28.623454
28.623446
28.623428
28.623407
28.62339
28.623387
28.623404
28.623527
28.62353
28.623528
28.623516
28.623495
28.623472
28.623457
28.62346
28.623484
28.62356
28.623564
28.623563
28.623551
28.623531
28.62351
28.6235
28.623511
28.623541
28.623579
28.623584
28.623584
28.623574
28.623555
28.623536
28.623532
28.623552
28.623591
28.623585
28.623591
28.623593
28.623584
28.623567
28.623552
28.623552
28.623573
28.623613
28.623577
28.623585
28.623588
28.62358
28.623565
28.623551
28.62355
28.623567
28.623602
28.623561
28.623571
28.623575
28.623569
28.623553
28.623537
28.623534
28.623549
28.623583
28.623544
28.623554
28.623561
28.623555
28.62354
28.623524
28.623518
28.623532
28.623565
28.623526
28.623539
28.623546
28.623542
28.623528
28.623512
28.623505
28.623517
28.62355
28.623512
28.623525
28.623534
28.623532
28.623519
28.623502
28.623494
28.623505
28.623537
28.623501
28.623516
28.623526
28.623524
28.623512
28.623495
28.623487
28.623497
28.623528
28.623496
28.623511
28.623522
28.623521
28.623509
28.623493
28.623484
28.623493
28.623524
28.623497
28.623512
28.623522
28.623521
28.62351
28.623493
28.623484
28.623494
28.623524
28.623503
28.623518
28.623528
28.623526
28.623514
28.623498
28.623489
28.623499
28.62353
28.623515
28.623529
28.623538
28.623535
28.623522
28.623506
28.623498
28.623508
28.62354
28.623532
28.623544
28.623552
28.623548
28.623534
28.623517
28.62351
28.623522
28.623554
28.62355
28.623561
28.623568
28.623563
28.623548
28.623531
28.623525
28.623538
28.623571
28.62357
28.62358
28.623584
28.623578
28.623563
28.623547
28.623543
28.623557
28.62359
28.623588
28.623596
28.623599
28.623592
28.623577
28.623562
28.623561
28.623577
28.623611
28.623598
28.623605
28.623607
28.623598
28.623581
28.623566
28.623565
28.623585
28.623624
28.623595
28.6236
28.623601
28.62359
28.623571
28.623552
28.623547
28.623566
28.623604
28.623579
28.623583
28.623582
28.623571
28.623551
28.623529
28.623518
28.623528
28.623556
28.623549
28.623551
28.62355
28.623538
28.623518
28.623494
28.623478
28.62348
28.623502
28.623477
28.62348
28.623479
28.62347
28.623453
28.623431
28.623414
28.62341
28.623425
26.987344
26.987342
26.98734
26.987339
26.987339
26.987338
26.987334
26.987326
26.987318
26.987388
26.987385
26.987383
26.987382
26.987382
26.98738
26.987376
26.987369
26.987361
26.987428
26.987426
26.987425
26.987425
26.987425
26.987423
26.987417
26.987407
26.987395
26.987472
26.98747
26.98747
26.98747
26.98747
26.987468
26.987461
26.987448
26.987433
26.987517
26.987515
26.987515
26.987516
26.987517
26.987516
26.987508
26.987493
26.987474
26.987558
26.987557
26.987558
26.98756
26.987563
26.987562
26.987554
26.987538
26.987516
26.987597
26.987597
26.987598
26.987602
26.987606
26.987606
26.987598
26.987581
26.987556
26.987632
26.987632
26.987634
26.987639
26.987644
26.987646
26.987639
26.98762
26.987593
26.987662
26.987662
26.987665
26.987671
26.987677
26.98768
26.987674
26.987655
26.987628
26.987686
26.987686
26.98769
26.987696
26.987704
26.987708
26.987703
26.987685
26.987658
26.987702
26.987703
26.987707
26.987713
26.987722
26.987727
26.987724
26.987707
26.987679
26.987711
26.987712
26.987716
26.987723
26.987732
26.987738
26.987735
26.987719
26.98769
26.987712
26.987713
26.987717
26.987724
26.987733
26.987739
26.987736
26.987719
26.987691
26.987704
26.987705
26.987709
26.987716
26.987724
26.98773
26.987726
26.987709
26.987681
26.987689
26.98769
26.987693
26.9877
26.987708
26.987712
26.987707
26.987689
26.987661
26.987667
26.987668
26.987671
26.987676
26.987683
26.987686
26.98768
26.987661
26.987632
26.987639
26.987639
26.987642
26.987647
26.987652
26.987654
26.987646
26.987627
26.987599
26.987606
26.987606
26.987608
26.987611
26.987616
26.987616
26.987608
26.98759
26.987564
26.987569
26.987569
26.987569
26.987572
26.987575
26.987574
26.987566
26.987548
26.987526
26.987531
26.987529
26.987529
26.987531
26.987532
26.98753
26.987522
26.987506
26.987486
26.987489
26.987487
26.987486
26.987487
26.987488
26.987485
26.987477
26.987463
26.987447
26.987448
26.987446
26.987444
26.987444
26.987444
26.987442
26.987436
26.987424
26.987411
26.98741
26.987407
26.987406
26.987405
26.987404
26.987402
26.987397
26.987389
26.98738
26.987368
26.987366
26.987364
26.987364
26.987363
26.987362
26.987358
26.98735
26.98734
25.349118
25.349117
25.349116
25.349114
25.349111
25.349107
25.349102
25.349097
25.349097
25.34914
25.349139
25.349138
25.349136
25.349133
25.349129
25.349125
25.349122
25.349123
25.349153
25.349153
25.349151
25.349149
25.349147
25.349145
25.349142
25.349141
25.349141
25.349164
25.349164
25.349163
25.349161
25.349159
25.349158
25.349156
25.349156
25.349157
25.349173
25.349173
25.349172
25.349171
25.34917
25.349169
25.349169
25.34917
25.349171
25.349179
25.349179
25.349178
25.349178
25.349178
25.349178
25.349179
25.349181
25.349182
25.349183
25.349183
25.349183
25.349183
25.349184
25.349185
25.349187
25.34919
25.349192
25.349185
25.349186
25.349187
25.349188
25.349189
25.349191
25.349194
25.349196
25.349199
25.349187
25.349188
25.349189
25.34919
25.349192
25.349195
25.349198
25.349201
25.3492
25.349188
25.349189
25.349191
25.349192
25.349195
25.349198
25.349201
25.349201
25.349198
25.349188
25.34919
25.349191
25.349193
25.349196
25.3492
25.349202
25.349201
25.349196
25.349188
25.34919
25.349192
25.349194
25.349197
25.349201
25.349202
25.349201
25.349196
25.349189
25.349191
25.349193
25.349195
25.349198
25.349201
25.349203
25.349201
25.349197
25.34919
25.349192
25.349194
25.349196
25.349199
25.349202
25.349204
25.349203
25.349198
25.349191
25.349193
25.349194
25.349196
25.349199
25.349202
25.349204
25.349205
25.349201
25.349192
25.349193
25.349195
25.349196
25.349198
25.349201
25.349204
25.349206
25.349205
25.349192
25.349193
25.349194
25.349195
25.349197
25.349199
25.349201
25.349203
25.349205
25.349192
25.349192
25.349193
25.349193
25.349194
25.349195
25.349197
25.349198
25.349199
25.34919
25.34919
25.34919
25.34919
25.34919
25.34919
25.34919
25.349191
25.349191
25.349186
25.349186
25.349186
25.349185
25.349184
25.349183
25.349182
25.349182
25.349182
25.34918
25.34918
25.349179
25.349178
25.349176
25.349174
25.349172
25.349171
25.34917
25.349172
25.349172
25.34917
25.349169
25.349166
25.349164
25.349161
25.349158
25.349157
25.349162
25.349161
25.349159
25.349157
25.349154
25.34915
25.349146
25.349142
25.349141
25.349141
25.349141
25.349139
25.349137
25.349135
25.349131
25.349125
25.34912
25.349118
23.715809
23.715809
23.715809
23.715809
23.715808
23.715808
23.715808
23.715808
23.715808
23.715815
23.715815
23.715816
23.715815
23.715815
23.715814
23.715813
23.715814
23.715814
23.71582
23.71582
23.715821
23.71582
23.71582
23.715819
23.715818
23.715817
23.715818
23.715825
23.715825
23.715826
23.715826
23.715825
23.715824
23.715823
23.715822
23.715822
23.715829
23.71583
23.715831
23.715831
23.71583
23.715829
23.715828
23.715826
23.715826
23.715834
23.715834
23.715835
23.715836
23.715836
23.715835
23.715833
23.715831
23.715831
23.715838
23.715839
23.71584
23.715841
23.715841
23.71584
23.715838
23.715836
23.715835
23.715841
23.715842
23.715844
23.715845
23.715845
23.715844
23.715843
23.715841
23.715839
23.715845
23.715846
23.715847
23.715848
23.715849
23.715848
23.715847
23.715845
23.715843
23.715847
23.715849
23.71585
23.715852
23.715852
23.715852
23.71585
23.715848
23.715847
23.715849
23.715851
23.715852
23.715854
23.715855
23.715854
23.715853
23.715851
23.715849
23.715851
23.715852
23.715854
23.715855
23.715856
23.715856
23.715855
23.715852
23.715851
23.715851
23.715853
23.715855
23.715856
23.715857
23.715857
23.715855
23.715853
23.715851
23.715851
23.715853
23.715855
23.715856
23.715857
23.715857
23.715855
23.715853
23.715851
23.715851
23.715852
23.715854
23.715855
23.715856
23.715856
23.715854
23.715851
23.715849
23.715849
23.715851
23.715852
23.715854
23.715854
23.715854
23.715852
23.715849
23.715847
23.715848
23.715849
23.715851
23.715852
23.715852
23.715851
23.71585
23.715847
23.715845
23.715846
23.715847
23.715849
23.71585
23.71585
23.715849
23.715847
23.715844
23.715842
23.715844
23.715845
23.715846
23.715847
23.715847
23.715846
23.715844
23.715841
23.715839
23.715842
23.715843
23.715844
23.715845
23.715844
23.715843
23.715841
23.715838
23.715836
23.71584
23.715841
23.715842
23.715842
23.715841
23.71584
23.715838
23.715836
23.715834
23.715838
23.715839
23.715839
23.715839
23.715838
23.715837
23.715835
23.715834
23.715832
23.715836
23.715836
23.715837
23.715837
23.715836
23.715835
23.715834
23.715833
23.715832
23.715832
23.715832
23.715832
23.715832
23.715832
23.715831
23.71583
23.71583
23.715828
22.078431
22.078431
22.07843
22.07843
22.078429
22.078429
22.078429
22.078428
22.078428
22.078437
22.078436
22.078436
22.078435
22.078435
22.078435
22.078435
22.078434
22.078435
22.078442
22.078441
22.07844
22.07844
22.07844
22.07844
22.07844
22.07844
22.07844
22.078446
22.078446
22.078445
22.078445
22.078445
22.078445
22.078445
22.078445
22.078445
22.078451
22.07845
22.07845
22.07845
22.07845
22.078451
22.078451
22.07845
22.078449
22.078454
22.078454
22.078454
22.078454
22.078454
22.078455
22.078456
22.078455
22.078454
22.078458
22.078457
22.078457
22.078457
22.078458
22.07846
22.07846
22.07846
22.078458
22.07846
22.07846
22.07846
22.078461
22.078462
22.078463
22.078464
22.078464
22.078461
22.078463
22.078463
22.078463
22.078463
22.078465
22.078466
22.078467
22.078467
22.078464
22.078465
22.078465
22.078465
22.078465
22.078467
22.078469
22.07847
22.078469
22.078467
22.078466
22.078466
22.078466
22.078467
22.078469
22.078471
22.078472
22.078471
22.078468
22.078467
22.078467
22.078467
22.078468
22.07847
22.078472
22.078473
22.078473
22.07847
22.078467
22.078468
22.078468
22.078469
22.078471
22.078473
22.078474
22.078473
22.07847
22.078468
22.078468
22.078468
22.078469
22.078471
22.078473
22.078474
22.078473
22.07847
22.078467
22.078468
22.078468
22.078469
22.07847
22.078472
22.078473
22.078472
22.078469
22.078467
22.078467
22.078467
22.078468
22.07847
22.078471
22.078472
22.078471
22.078468
22.078466
22.078466
22.078466
22.078467
22.078468
22.07847
22.07847
22.078469
22.078466
22.078465
22.078465
22.078465
22.078465
22.078467
22.078468
22.078468
22.078467
22.078464
22.078464
22.078463
22.078463
22.078464
22.078465
22.078465
22.078465
22.078464
22.078461
22.078462
22.078462
22.078462
22.078462
22.078462
22.078463
22.078462
22.078461
22.078459
22.07846
22.07846
22.07846
22.07846
22.07846
22.07846
22.078459
22.078458
22.078456
22.078458
22.078458
22.078457
22.078457
22.078457
22.078457
22.078456
22.078455
22.078453
22.078456
22.078456
22.078455
22.078455
22.078455
22.078454
22.078453
22.078452
22.07845
22.078452
22.078452
22.078451
22.078451
22.078451
22.07845
22.07845
22.078448
22.078446
20.443792
20.443792
20.443792
20.443792
20.443792
20.443792
20.443792
20.443793
20.443794
20.443793
20.443794
20.443794
20.443794
20.443793
20.443793
20.443793
20.443794
20.443796
20.443794
20.443794
20.443795
20.443795
20.443794
20.443794
20.443794
20.443795
20.443796
20.443795
20.443795
20.443796
20.443795
20.443795
20.443795
20.443795
20.443795
20.443796
20.443796
20.443796
20.443796
20.443796
20.443796
20.443796
20.443795
20.443796
20.443797
20.443796
20.443797
20.443797
20.443797
20.443797
20.443796
20.443796
20.443796
20.443797
20.443797
20.443797
20.443798
20.443798
20.443798
20.443797
20.443797
20.443797
20.443798
20.443797
20.443798
20.443798
20.443798
20.443798
20.443798
20.443798
20.443798
20.443799
20.443798
20.443798
20.443799
20.443799
20.443799
20.443799
20.443798
20.443799
20.4438
20.443799
20.443799
20.4438
20.4438
20.4438
20.443799
20.443799
20.443799
20.4438
20.443799
20.4438
20.4438
20.4438
20.4438
20.4438
20.4438
20.4438
20.443801
20.4438
20.4438
20.443801
20.443801
20.443801
20.443801
20.4438
20.4438
20.443801
20.4438
20.4438
20.443801
20.443801
20.443801
20.443801
20.443801
20.443801
20.443802
20.4438
20.443801
20.443802
20.443802
20.443802
20.443802
20.443801
20.443801
20.443802
20.443801
20.443801
20.443802
20.443802
20.443802
20.443802
20.443802
20.443802
20.443802
20.443801
20.443802
20.443803
20.443803
20.443803
20.443803
20.443802
20.443802
20.443802
20.443802
20.443803
20.443803
20.443804
20.443804
20.443803
20.443803
20.443802
20.443803
20.443803
20.443803
20.443804
20.443804
20.443804
20.443804
20.443803
20.443803
20.443803
20.443804
20.443804
20.443805
20.443805
20.443805
20.443805
20.443804
20.443804
20.443804
20.443805
20.443806
20.443806
20.443806
20.443806
20.443805
20.443805
20.443804
20.443804
20.443806
20.443807
20.443807
20.443807
20.443807
20.443806
20.443806
20.443805
20.443805
20.443808
20.443808
20.443808
20.443808
20.443808
20.443807
20.443807
20.443807
20.443807
20.443809
20.443809
20.443809
20.443809
20.443809
20.443808
20.443808
20.443808
20.443808
20.443809
20.443809
20.443809
20.443809
20.443809
20.443809
20.443809
20.443809
20.443809
18.807523
18.807523
18.807522
18.807522
18.807522
18.807522
18.807522
18.807522
18.807522
18.807525
18.807525
18.807525
18.807524
18.807524
18.807525
18.807525
18.807524
18.807524
18.807527
18.807527
18.807526
18.807526
18.807527
18.807527
18.807527
18.807527
18.807526
18.807529
18.807529
18.807529
18.807528
18.807529
18.807529
18.807529
18.807529
18.807528
18.807531
18.807531
18.807531
18.807531
18.807531
18.807531
18.807531
18.807531
18.80753
18.807533
18.807533
18.807532
18.807532
18.807533
18.807533
18.807533
18.807533
18.807532
18.807534
18.807534
18.807534
18.807534
18.807534
18.807535
18.807535
18.807535
18.807534
18.807536
18.807536
18.807536
18.807536
18.807536
18.807536
18.807537
18.807536
18.807535
18.807537
18.807537
18.807537
18.807537
18.807537
18.807538
18.807538
18.807538
18.807536
18.807538
18.807538
18.807538
18.807538
18.807538
18.807539
18.807539
18.807539
18.807537
18.807539
18.807539
18.807539
18.807539
18.807539
18.80754
18.80754
18.807539
18.807538
18.807539
18.807539
18.807539
18.807539
18.80754
18.807541
18.807541
18.80754
18.807539
18.807539
18.807539
18.807539
18.80754
18.80754
18.807541
18.807541
18.80754
18.807539
18.80754
18.80754
18.80754
18.80754
18.807541
18.807541
18.807541
18.807541
18.807539
18.80754
18.80754
18.80754
18.80754
18.807541
18.807541
18.807541
18.80754
18.807539
18.80754
18.80754
18.80754
18.80754
18.80754
18.807541
18.807541
18.80754
18.807539
18.807539
18.807539
18.807539
18.807539
18.80754
18.80754
18.80754
18.80754
18.807538
18.807539
18.807539
18.807539
18.807539
18.807539
18.80754
18.80754
18.807539
18.807538
18.807538
18.807538
18.807538
18.807538
18.807539
18.807539
18.807539
18.807538
18.807537
18.807538
18.807538
18.807538
18.807538
18.807538
18.807538
18.807538
18.807537
18.807536
18.807537
18.807537
18.807537
18.807537
18.807537
18.807537
18.807537
18.807536
18.807535
18.807537
18.807536
18.807536
18.807536
18.807536
18.807536
18.807536
18.807535
18.807534
18.807536
18.807536
18.807536
18.807536
18.807536
18.807536
18.807535
18.807534
18.807534
18.807535
18.807535
18.807535
18.807535
18.807535
18.807535
18.807534
18.807533
18.807532
17.172162
17.172162
17.172162
17.172162
17.172162
17.172162
17.172163
17.172163
17.172163
17.172163
17.172163
17.172163
17.172163
17.172163
17.172163
17.172163
17.172163
17.172163
17.172163
17.172163
17.172163
17.172163
17.172163
17.172163
17.172163
17.172163
17.172164
17.172163
17.172164
17.172164
17.172164
17.172163
17.172163
17.172163
17.172163
17.172164
17.172164
17.172164
17.172164
17.172164
17.172164
17.172164
17.172164
17.172164
17.172164
17.172164
17.172164
17.172164
17.172164
17.172164
17.172164
17.172164
17.172164
17.172165
17.172164
17.172164
17.172164
17.172164
17.172164
17.172164
17.172164
17.172164
17.172165
17.172164
17.172164
17.172165
17.172165
17.172164
17.172164
17.172164
17.172165
17.172165
17.172164
17.172165
17.172165
17.172165
17.172165
17.172165
17.172165
17.172165
17.172165
17.172165
17.172165
17.172165
17.172165
17.172165
17.172165
17.172165
17.172165
17.172165
17.172165
17.172165
17.172165
17.172165
17.172165
17.172165
17.172165
17.172165
17.172166
17.172165
17.172165
17.172165
17.172165
17.172165
17.172165
17.172165
17.172166
17.172166
17.172165
17.172166
17.172166
17.172166
17.172166
17.172166
17.172166
17.172166
17.172166
17.172166
17.172166
17.172166
17.172166
17.172166
17.172166
17.172166
17.172166
17.172166
17.172166
17.172166
17.172166
17.172166
17.172166
17.172166
17.172166
17.172166
17.172167
17.172166