/*--------------------------------*- C++ -*----------------------------------*\
| =========                 |                                                 |
| \\      /  F ield         | OpenFOAM: The Open Source CFD Toolbox           |
|  \\    /   O peration     | Version:  2406                                  |
|   \\  /    A nd           | Website:  www.openfoam.com                      |
|    \\/     M anipulation  |                                                 |
\*---------------------------------------------------------------------------*/
FoamFile
{
    version     2.0;
    format      ascii;
    arch        "LSB;label=32;scalar=64";
    class       surfaceScalarField;
    location    "6.25";
    object      phi;
}
// * * * * * * * * * * * * * * * * * * * * * * * * * * * * * * * * * * * * * //

dimensions      [0 3 -1 0 0 0 0];

oriented        oriented;

internalField   nonuniform List<scalar> 
101088
(
-3.8111128e-05
2.159195e-07
6.6654467e-06
8.9819966e-07
-0.00011119967
8.6082895e-06
2.4517802e-05
-2.4832576e-06
-0.0002345163
4.2347642e-05
4.7184337e-05
-2.3946075e-05
-0.00041387907
0.00012835131
6.2023499e-05
-8.6439356e-05
-0.0006232598
0.00027848724
4.3971453e-05
-0.00020637216
-0.00080067832
0.00045288396
-2.2316772e-05
-0.00036062341
-0.00089189509
0.00058478921
-0.00011524449
-0.00049190552
-0.00089671681
0.00064129956
-0.00018807117
-0.00055741583
0.00062431409
-0.00020890144
-0.00055760729
-0.00084942829
-4.5998169e-05
6.064239e-07
8.399915e-06
-0.00013261875
1.2910068e-05
3.031979e-05
-0.00027608559
5.8607456e-05
5.6575375e-05
-0.00047856394
0.00016848147
7.0140657e-05
-0.00070133536
0.00034686001
4.029134e-05
-0.00086989698
0.00053674403
-4.7151103e-05
-0.00093372673
0.00066939533
-0.0001611031
-0.0009070416
0.00072455101
-0.00024630982
0.00070919363
-0.00027055079
-0.0008423225
-5.4359329e-05
4.1547822e-07
1.0402275e-05
-0.00015482906
1.459047e-05
3.7193622e-05
-0.00031673064
6.8872494e-05
6.8132181e-05
-0.00053686501
0.00019844171
8.1376935e-05
-0.00076629023
0.00040079232
4.1060476e-05
-0.00092331803
0.00060359902
-6.5118886e-05
-0.00096413286
0.00074100467
-0.00019638986
-0.00091506452
0.00080489033
-0.00029112584
0.00080152918
-0.00031786346
-0.00083416787
-6.2713681e-05
-3.5930729e-07
1.2567114e-05
-0.00017712854
1.328585e-05
4.4796264e-05
-0.00035682467
7.1068783e-05
8.1555835e-05
-0.0005909225
0.0002125752
9.5265382e-05
-0.00082167648
0.00043106978
4.6771779e-05
-0.00096650864
0.00064633149
-7.5126539e-05
-0.00099057851
0.00079662929
-0.00022041339
-0.00092757401
0.00087980471
-0.00032257766
0.00089454529
-0.00035130137
-0.00083497919
-7.0308411e-05
-2.297431e-06
1.4899265e-05
-0.00019677751
6.7685956e-06
5.3245067e-05
-0.00039156293
6.0629304e-05
9.7577069e-05
-0.00063559741
0.0002048404
0.00011220582
-0.00086777564
0.00043279709
5.8892434e-05
-0.0010062581
0.00066327742
-7.5777513e-05
-0.0010233297
0.00083655806
-0.00023272665
-0.00095543833
0.00094793889
-0.00034107734
0.00098330533
-0.0003712123
-0.00085710392
-7.754599e-05
-5.506503e-06
1.7449878e-05
-0.00021603651
-5.4622703e-06
6.2825423e-05
-0.00042652653
3.6221142e-05
0.00011647496
-0.00068363807
0.00017291312
0.00013587857
-0.00092322419
0.00040577201
7.8846601e-05
-0.0010640297
0.00065497664
-6.6238423e-05
-0.0010830824
0.00085959631
-0.00023246781
-0.0010159547
0.0010031832
-0.00034521913
0.0010577868
-0.0003765278
-0.00091384872
-8.4506271e-05
-9.8605317e-06
2.0262935e-05
-0.00023590484
-2.3045915e-05
7.3861412e-05
-0.00046545175
-1.3692506e-06
0.0001391945
-0.00074293274
0.00011793439
0.0001673438
-0.00099954762
0.00035060163
0.00010987169
-0.0011547062
0.00062134447
-4.2162137e-05
-0.0011852646
0.00086116436
-0.00021542476
-0.0011236208
0.0010354092
-0.00033175744
0.0011048932
-0.00036483429
-0.0010190296
-9.1658642e-05
-1.4791241e-05
2.3444792e-05
-0.00025928656
-4.3612539e-05
8.6880707e-05
-0.00051752747
-4.6410627e-05
0.00016720899
-0.00083395683
4.7577986e-05
0.00021149443
-0.0011253645
0.0002731202
0.00015499993
-0.0013099977
0.00056108733
8.2176488e-07
-0.001359441
0.00082984254
-0.0001769144
-0.001303094
0.0010249429
-0.00029615115
0.0011015565
-0.00033219755
-0.0011914321
-0.00010019128
-1.8479e-05
2.700741e-05
-0.00029203349
-6.0124498e-05
0.000101971
-0.00059781815
-8.4241667e-05
0.00020090237
-0.00098187486
-1.8752829e-05
0.00026681369
-0.0013326749
0.00018727129
0.00021305687
-0.0015628951
0.00047079283
6.5885394e-05
-0.0016340678
0.00074496678
-0.00011223119
-0.0015761024
0.00094015102
-0.0002332493
0.0010129751
-0.00027416354
-0.0014456444
-0.00011070708
-1.8209264e-05
3.0718451e-05
-0.00033774032
-6.14387e-05
0.00011809646
-0.00071320634
-9.4377312e-05
0.00023782997
-0.0011941781
-5.6055843e-05
0.00032840701
-0.0016352124
0.00010701929
0.00029034513
-0.0019219495
0.00034487004
0.00015007314
-0.0020118292
0.00058089504
-2.2264941e-05
-0.0019401653
0.00074436602
-0.00014323968
0.00080037346
-0.00019114892
-0.001774899
-0.00012224214
-1.1599333e-05
3.4002994e-05
-0.00038935715
-3.9735741e-05
0.00013256758
-0.00084309299
-6.3468182e-05
0.00027166735
-0.0014330342
-4.6769888e-05
0.0003865821
-0.0019796563
4.4447337e-05
0.00037335321
-0.0023218253
0.00018431873
0.00023484652
-0.0024233299
0.0003240824
7.6852025e-05
-0.0023283676
0.00041927868
-4.2026529e-05
0.00044840368
-9.8123792e-05
-0.002120808
-0.00013018945
-1.799072e-10
3.5996263e-05
-0.00042557304
-7.8440026e-10
0.00014149371
-0.00093484594
-1.8405751e-09
0.00029293586
-0.001601478
-3.3746164e-09
0.00042367182
-0.0022212296
-4.6732334e-09
0.0004258956
-0.0025999985
-5.2905341e-09
0.00029256056
-0.0027059591
-5.1217341e-09
0.00014594914
-0.0025908559
-4.8060908e-09
2.9631103e-05
-4.6107331e-09
-3.2768225e-05
-0.0023542335
-0.00013018926
1.1598932e-05
3.5996252e-05
-0.00042557277
3.9734056e-05
0.00014149367
-0.00093484604
6.3464329e-05
0.00029293575
-0.0016014776
4.6763139e-05
0.00042367162
-0.0022212291
-4.445623e-05
0.00042589535
-0.0025999981
-0.00018432849
0.00029256032
-0.002705959
-0.00032409186
0.00014594893
-0.0025908558
-0.00041928787
2.9630909e-05
-0.00044841278
-3.2768415e-05
-0.0023542334
-0.00012224152
1.8208769e-05
3.4002979e-05
-0.00038935654
6.1436713e-05
0.00013256751
-0.00084309353
9.4373172e-05
0.00027166716
-0.0014330336
5.6049464e-05
0.00038658176
-0.0019796557
-0.00010702691
0.00037335269
-0.002321825
-0.00034487826
0.00023484604
-0.0024233302
-0.00058090319
7.6851532e-05
-0.0023283679
-0.00074437461
-4.2027006e-05
-0.00080038237
-9.8124248e-05
-0.0021208082
-0.00011070598
1.8478596e-05
3.0718429e-05
-0.00033773912
6.0122754e-05
0.00011809635
-0.00071320643
8.423826e-05
0.00023782969
-0.0011941768
1.8747866e-05
0.00032840656
-0.0016352122
-0.00018727757
0.00029034447
-0.0019219493
-0.00047079986
0.00015007246
-0.0020118299
-0.00074497391
-2.2265572e-05
-0.0019401661
-0.00094015898
-0.00014324027
-0.0010129834
-0.00019114948
-0.0017749003
-0.00010019055
1.4791099e-05
2.7007393e-05
-0.00029203318
4.3611566e-05
0.00010197091
-0.00059781878
4.6407974e-05
0.00020090212
-0.00098187448
-4.7582542e-05
0.00026681326
-0.0013326761
-0.00027312654
0.00021305624
-0.0015628956
-0.0005610935
6.5884733e-05
-0.0016340692
-0.00082984862
-0.00011223181
-0.0015761038
-0.0010249501
-0.0002332499
-0.0011015643
-0.00027416412
-0.0014456464
-9.1658847e-05
9.860392e-06
2.3444776e-05
-0.00025928797
2.3045145e-05
8.6880626e-05
-0.00051752862
1.366608e-06
0.00016720878
-0.00083395739
-0.00011793911
0.00021149402
-0.0011253663
-0.00035060718
0.0001549994
-0.0013099989
-0.00062134842
8.211588e-07
-0.001359443
-0.00086116874
-0.00017691496
-0.0013030958
-0.0010354156
-0.00029615173
-0.0011049014
-0.00033219811
-0.0011914341
-8.4507533e-05
5.5063204e-06
2.0262922e-05
-0.00023590692
5.4618542e-06
7.3861355e-05
-0.00046545159
-3.6222233e-05
0.00013919435
-0.0007429331
-0.00017291563
0.0001673435
-0.00099954897
-0.0004057748
0.00010987123
-0.0011547077
-0.00065497866
-4.2162692e-05
-0.0011852667
-0.00085959969
-0.00021542527
-0.0011236228
-0.0010031891
-0.00033175797
-0.0010577965
-0.00036483475
-0.0010190319
-7.7546089e-05
2.2974276e-06
1.744987e-05
-0.00021603619
-6.7685065e-06
6.2825382e-05
-0.00042652597
-6.0629448e-05
0.00011647484
-0.00068363824
-0.00020484189
0.00013587833
-0.000923225
-0.00043279861
7.8846219e-05
-0.0010640313
-0.00066327933
-6.6238904e-05
-0.0010830844
-0.00083656106
-0.0002324683
-0.0010159566
-0.00094794455
-0.00034521963
-0.00098331564
-0.00037652815
-0.00091385169
-7.030868e-05
3.5914337e-07
1.4899252e-05
-0.00019677861
-1.3286295e-05
5.324501e-05
-0.00039156377
-7.1069298e-05
9.7576935e-05
-0.00063559596
-0.00021257599
0.00011220562
-0.00086777628
-0.00043107127
5.8892088e-05
-0.0010062587
-0.00064633227
-7.5777943e-05
-0.0010233305
-0.00079663146
-0.00023272709
-0.00095543923
-0.00087981074
-0.00034107773
-0.00089455516
-0.00037121259
-0.00085710557
-6.2713788e-05
-4.1549489e-07
1.25671e-05
-0.00017712872
-1.4590453e-05
4.4796206e-05
-0.00035682435
-6.8872161e-05
8.1555697e-05
-0.00059092114
-0.00019844133
9.5265166e-05
-0.00082167556
-0.00040079308
4.6771441e-05
-0.00096650814
-0.00060359952
-7.5126947e-05
-0.0009905787
-0.00074100661
-0.00022041383
-0.0009275749
-0.0008048964
-0.00032257801
-0.0008015371
-0.00035130163
-0.00083497861
-5.435905e-05
-6.0640551e-07
1.0402261e-05
-0.00015482873
-1.2909963e-05
3.7193566e-05
-0.00031673078
-5.8607284e-05
6.8132053e-05
-0.00053686468
-0.00016848146
8.1376724e-05
-0.00076628849
-0.00034686036
4.1060189e-05
-0.00092331752
-0.00053674455
-6.511924e-05
-0.00096413282
-0.00066939595
-0.00019639023
-0.00091506642
-0.00072455746
-0.0002911262
-0.00070920152
-0.00031786376
-0.00083416958
-4.5998175e-05
-2.159476e-07
8.3999031e-06
-0.00013261903
-8.6083478e-06
3.0319743e-05
-0.00027608663
-4.2347835e-05
5.657527e-05
-0.0004785651
-0.00012835175
7.0140475e-05
-0.00070133537
-0.0002784877
4.029108e-05
-0.00086989635
-0.00045288459
-4.7151424e-05
-0.00093372722
-0.00058479107
-0.00016110341
-0.00090703956
-0.00064130203
-0.0002463101
-0.00062431967
-0.00027055104
-0.00084232079
-3.8111268e-05
6.6654376e-06
8.98176e-07
-0.00011120035
2.4517765e-05
-2.4833305e-06
-0.00023451777
4.7184256e-05
-2.3946235e-05
-0.00041388052
6.2023364e-05
-8.6439512e-05
-0.00062326151
4.3971259e-05
-0.00020637202
-0.00080067985
-2.2316984e-05
-0.000360623
-0.00089189351
-0.00011524469
-0.00049190616
-0.00089671826
-0.00018807133
-0.00055742156
-0.00020890153
-0.00055761242
-0.00084942989
1.1052236e-06
1.4061204e-07
6.4552218e-06
-1.0356229e-06
4.4458118e-06
-4.7767179e-07
2.5376865e-05
-3.7220029e-06
1.0419669e-05
-4.8014856e-06
5.2376262e-05
-6.3643786e-06
2.0279418e-05
-2.0406852e-05
7.634013e-05
-3.7698372e-06
3.4870734e-05
-5.9677445e-05
7.4441081e-05
1.4615506e-05
5.3654102e-05
-0.00013011394
3.0344863e-05
5.8667294e-05
7.8247126e-05
-0.00021806533
-4.496055e-05
0.0001231876
0.00010793711
-0.0002915302
-0.00011214229
0.00018591224
-0.00032801463
-0.0001388196
0.00022745016
0.00013841915
1.7804076e-06
-1.1066936e-06
7.8668611e-06
7.5829214e-06
-6.4586499e-06
3.0498533e-05
1.8248095e-05
-2.0621644e-05
6.1731053e-05
3.4939047e-05
-5.35476e-05
8.6591506e-05
5.5842722e-05
-0.0001178186
7.7529613e-05
7.7212392e-05
-0.00021561511
1.6980981e-05
9.9676853e-05
-0.00032358402
-7.8047483e-05
0.00012493535
-0.00040412366
-0.00015897602
-0.00043586026
-0.00018990591
0.00015213514
2.7493227e-06
-2.8149249e-06
9.3610886e-06
1.1953054e-05
-1.444657e-05
3.59777e-05
2.8776113e-05
-4.1206698e-05
7.1893919e-05
5.3087672e-05
-9.5152939e-05
9.8669421e-05
7.984099e-05
-0.00018711992
8.360599e-05
0.00010147444
-0.00031123268
8.8653806e-06
0.00011894504
-0.00043465926
-0.00010278656
0.00013690937
-0.00051812942
-0.00019508427
-0.00054360752
-0.00022970682
0.00015649858
3.9612086e-06
-5.0012953e-06
1.0792355e-05
1.7513002e-05
-2.4424736e-05
4.1222885e-05
4.2420499e-05
-6.6177955e-05
8.1619848e-05
7.5614518e-05
-0.00014360491
0.00011052319
0.00010871678
-0.00026376104
9.0311176e-05
0.00012973559
-0.00041102807
3.6506677e-06
0.00014085918
-0.00054484539
-0.00012135073
0.00014999307
-0.00062756892
-0.00022227215
-0.00064549458
-0.00025969352
0.00016027246
5.3128519e-06
-7.5248683e-06
1.2110165e-05
2.3824295e-05
-3.5749896e-05
4.6059271e-05
5.8507689e-05
-9.3872998e-05
9.0588533e-05
0.0001011093
-0.0001957121
0.00012170932
0.00014115623
-0.00034193034
9.7015575e-05
0.0001614091
-0.00050738466
3.2557404e-07
0.00016601464
-0.00064684836
-0.00013532934
0.0001662391
-0.00072633522
-0.0002425349
-0.00073586564
-0.00028174562
0.00016714408
6.9197258e-06
-1.0301922e-05
1.3307218e-05
3.1363467e-05
-4.7823926e-05
5.0455374e-05
7.7557128e-05
-0.00012232859
9.8736313e-05
0.00013216389
-0.00024654452
0.00013210409
0.00017971428
-0.00041402549
0.00010339178
0.00019904291
-0.00059105414
-1.8967067e-06
0.0001971018
-0.00073115325
-0.00014622103
0.0001885599
-0.00080507604
-0.00025793618
-0.00080574622
-0.00029795924
0.00017987277
8.5624807e-06
-1.2965386e-05
1.4364431e-05
3.9198678e-05
-5.8949067e-05
5.4350425e-05
9.7382774e-05
-0.0001472945
0.00010597427
0.00016482881
-0.00028820519
0.00014155766
0.00021952531
-0.00046821207
0.00010936204
0.00023787731
-0.0006482753
-3.2931349e-06
0.00023039514
-0.00078430387
-0.00015479112
0.00021461563
-0.00085126091
-0.00026979275
-0.00084353086
-0.00030992461
0.000197492
1.0005256e-05
-1.4851051e-05
1.5325287e-05
4.6294213e-05
-6.6302406e-05
5.7945647e-05
0.00011565304
-0.00016219882
0.00011275428
0.00019753672
-0.0003088967
0.00015030195
0.00025737349
-0.00048878604
0.00011573839
0.00027511471
-0.00066185532
-3.3397956e-06
0.00026365477
-0.00078862585
-0.00016113163
0.00024267839
-0.00084760132
-0.00027883382
-0.0008330379
-0.00031873377
0.00021872302
1.1079996e-05
-1.5149572e-05
1.6225335e-05
5.1857042e-05
-6.6517016e-05
6.140851e-05
0.00013072303
-0.00015968371
0.00011952172
0.00022642379
-0.00029713274
0.00015934854
0.00028829369
-0.00046056647
0.00012296893
0.00030589801
-0.00061196701
-1.6069452e-06
0.00029261614
-0.00072261544
-0.00016495888
0.00026916949
-0.00077230836
-0.00028509526
-0.00075397721
-0.00032479664
0.0002407425
1.1440648e-05
-1.2933267e-05
1.7060974e-05
5.4238143e-05
-5.5943707e-05
6.4725877e-05
0.00013828213
-0.00013218763
0.00012629103
0.00024202397
-0.00024133405
0.00016886611
0.00030781634
-0.00036704164
0.00013102854
0.00032495126
-0.0004807643
1.7357319e-06
0.00031291371
-0.00056647196
-0.00016637045
0.00029008616
-0.00060406572
-0.00028865495
-0.00058657394
-0.00032829387
0.00025982761
1.0957759e-05
-7.6463212e-06
1.7758193e-05
5.2702103e-05
-3.2667657e-05
6.7547487e-05
0.00013616989
-7.6236265e-05
0.00013224927
0.00024091314
-0.00013710807
0.000177613
0.00031358436
-0.00020522855
0.0001388689
0.00032976118
-0.00026780512
5.7103512e-06
0.00032162116
-0.00031559725
-0.00016588275
0.00030165411
-0.00033637051
-0.00028975519
-0.00032537821
-0.00032946124
0.00027179531
1.016945e-05
8.5525814e-12
1.8180607e-05
4.9686498e-05
7.1436057e-11
6.9308922e-05
0.00013028981
2.3958146e-10
0.00013609642
0.0002333756
5.9482753e-10
0.00018347776
0.00030968892
1.4032397e-09
0.00014435238
0.00032589247
2.4357601e-09
8.5493289e-06
0.00032141725
3.0989401e-09
-0.00016517606
0.00030469877
2.9628372e-09
-0.00029002434
2.1173117e-09
-0.00032979494
0.00027634483
1.0169456e-05
7.6463064e-06
1.8180604e-05
4.9686566e-05
3.2667729e-05
6.9308909e-05
0.00013028979
7.6236697e-05
0.00013609639
0.00023337564
0.00013710932
0.00018347772
0.00030968892
0.00020523159
0.00014435234
0.00032589247
0.00026781026
8.5493161e-06
0.00032141717
0.00031560367
-0.00016517607
0.00030469861
0.00033637649
-0.00029002435
0.00032538242
-0.00032979497
0.00027634467
1.0957982e-05
1.2933191e-05
1.775819e-05
5.2702407e-05
5.5943602e-05
6.7547476e-05
0.00013616981
0.00013218791
0.00013224924
0.00024091341
0.00024133551
0.00017761295
0.00031358441
0.00036704526
0.00013886884
0.00032976113
0.00048076997
5.710302e-06
0.00032162079
0.00056647871
-0.00016588281
0.00030165361
0.00060407168
-0.00028975526
0.00058657806
-0.00032946131
0.00027179491
1.1441288e-05
1.5149527e-05
1.7060969e-05
5.4238859e-05
6.6516946e-05
6.4725851e-05
0.00013828217
0.00015968407
0.00012629097
0.00024202458
0.00029713454
0.00016886603
0.00030781628
0.00046057029
0.00013102844
0.00032495098
0.00061197255
1.7356492e-06
0.00031291287
0.00072262184
-0.00016637053
0.00029008539
0.00077231395
-0.00028865504
0.00075398106
-0.00032829397
0.0002598272
1.1080668e-05
1.4851136e-05
1.6225331e-05
5.1857683e-05
6.6302664e-05
6.1408491e-05
0.00013072312
0.00016219943
0.00011952166
0.00022642447
0.00030889839
0.00015934846
0.00028829319
0.00048878915
0.00012296882
0.00030589739
0.00066186024
-1.6070591e-06
0.00029261488
0.00078863165
-0.00016495899
0.0002691686
0.00084760653
-0.00028509537
0.0008330413
-0.00032479676
0.00024074221
1.0005347e-05
1.2965418e-05
1.5325282e-05
4.6293809e-05
5.8949222e-05
5.7945626e-05
0.00011565287
0.00014729471
0.00011275423
0.00019753717
0.00028820604
0.00015030187
0.00025737278
0.0004682144
0.00011573828
0.00027511402
0.00064828016
-3.3399237e-06
0.00026365346
0.00078430962
-0.00016113175
0.00024267761
0.00085126594
-0.00027883395
0.0008435332
-0.00031873391
0.00021872279
8.5620115e-06
1.0301899e-05
1.4364426e-05
3.9197886e-05
4.782412e-05
5.4350407e-05
9.7383275e-05
0.00012232908
0.00010597423
0.00016482948
0.00024654552
0.00014155759
0.00021952502
0.00041402813
0.00010936193
0.00023787675
0.00059105932
-3.2932784e-06
0.000230394
0.00073115901
-0.00015479128
0.00021461486
0.00080508054
-0.00026979291
0.00080574671
-0.00030992476
0.00019749132
6.9195846e-06
7.524895e-06
1.3307215e-05
3.1363395e-05
3.5750188e-05
5.0455361e-05
7.7557378e-05
9.3873583e-05
9.8736281e-05
0.00013216432
0.0001957131
0.00013210402
0.00017971427
0.00034193314
0.00010339166
0.00019904241
0.00050738944
-1.8968799e-06
0.00019710087
0.00064685355
-0.00014622124
0.0001885592
0.00072633865
-0.00025793638
0.0007358648
-0.00029795937
0.00017987183
5.3127242e-06
5.001245e-06
1.2110158e-05
2.3823913e-05
2.4424794e-05
4.6059242e-05
5.8507504e-05
6.6178532e-05
9.0588471e-05
0.00010111052
0.00014360649
0.0001217092
0.00014115617
0.00026376387
9.7015405e-05
0.00016140881
0.00041103294
3.2537161e-07
0.00016601414
0.00054485007
-0.00013532957
0.00016623901
0.00062757094
-0.00024253509
0.00064549347
-0.00028174574
0.00016714411
3.96116e-06
2.814915e-06
1.0792345e-05
1.7512879e-05
1.4446684e-05
4.1222847e-05
4.2420355e-05
4.1207275e-05
8.1619763e-05
7.5614831e-05
9.5154206e-05
0.00011052303
0.00010871687
0.00018712205
9.0310976e-05
0.00012973544
0.00031123685
3.650424e-06
0.00014085898
0.00043466338
-0.00012135098
0.00014999341
0.00051813108
-0.00022227234
0.0005436068
-0.00025969365
0.00016027379
2.7494307e-06
1.1067183e-06
9.361079e-06
1.1953106e-05
6.4588857e-06
3.5977661e-05
2.8775763e-05
2.062237e-05
7.189383e-05
5.3087477e-05
5.3549132e-05
9.8669253e-05
7.984163e-05
0.00011782154
8.3605773e-05
0.00010147399
0.00021561964
8.8651172e-06
0.0001189444
0.00032358877
-0.0001027868
0.0001369088
0.0004041249
-0.00019508448
0.00043585814
-0.00022970698
0.00015649854
1.780384e-06
-1.4059707e-07
7.8668532e-06
7.5826769e-06
4.7783253e-07
3.0498501e-05
1.8247273e-05
4.8019468e-06
6.1730979e-05
3.4938002e-05
2.0407886e-05
8.6591359e-05
5.5841967e-05
5.9679865e-05
7.7529411e-05
7.7211508e-05
0.00013011791
1.6980741e-05
9.967544e-05
0.00021806883
-7.8047734e-05
0.00012493626
0.00029153278
-0.00015897623
0.00032801332
-0.00018990606
0.00015213666
1.1051282e-06
6.4552165e-06
-1.0355936e-06
4.4454103e-06
2.5376843e-05
-3.7218292e-06
1.0418868e-05
5.2376214e-05
-6.363879e-06
2.0278815e-05
7.6340039e-05
-3.7686085e-06
3.4869971e-05
7.4440954e-05
1.4618027e-05
5.3653834e-05
3.034471e-05
5.8671234e-05
7.824874e-05
-4.4960702e-05
0.00012319158
0.00010793789
-0.00011214242
0.00018591271
-0.00013881967
0.00022744934
0.00013842057
1.1013285e-07
-1.2339373e-06
6.4120996e-06
1.1669241e-06
1.0236758e-06
-5.1639487e-06
2.4688096e-05
4.9391555e-06
3.1984867e-06
-1.1937554e-05
5.0573776e-05
1.1565163e-05
5.9060681e-06
-2.1412123e-05
7.3853589e-05
2.1190911e-05
6.425339e-06
-3.1520294e-05
7.3131814e-05
3.2309881e-05
4.5662647e-06
-3.838213e-05
2.9049354e-05
4.1536072e-05
2.2951363e-06
-3.9157085e-05
-4.8948081e-05
4.5415327e-05
2.4736239e-06
-3.5111643e-05
-0.00012089659
4.3687485e-05
-3.0980553e-05
-0.00015090623
3.8378114e-05
7.1623816e-06
1.1259573e-07
-1.33329e-06
7.8536232e-06
1.15965e-06
-5.4883544e-06
2.9775906e-05
3.644999e-06
-1.2419323e-05
5.9727531e-05
6.2024318e-06
-2.1597581e-05
8.421959e-05
5.5271999e-06
-3.0353283e-05
7.7037696e-05
1.6405431e-06
-3.4544318e-05
1.7029556e-05
-2.8613201e-06
-3.2089654e-05
-8.0613023e-05
-4.3750682e-06
-2.580159e-05
-0.00016677282
-2.1209661e-05
-0.00020236797
-1.6840919e-06
1.1770864e-07
-1.4581638e-06
9.3682194e-06
1.3508572e-06
-5.9194622e-06
3.5175567e-05
4.3451342e-06
-1.3146284e-05
6.9626397e-05
7.5577416e-06
-2.2131962e-05
9.599059e-05
6.6402952e-06
-2.9452195e-05
8.3621286e-05
1.6576715e-06
-3.0685944e-05
9.9893033e-06
-4.5262046e-06
-2.4723646e-05
-0.00010396949
-8.0295023e-06
-1.5819369e-05
-0.00020156335
-9.8748422e-06
-0.00024169639
-7.3752655e-06
1.2540086e-07
-1.5967155e-06
1.0805503e-05
1.575733e-06
-6.4307303e-06
4.0283808e-05
5.1689674e-06
-1.4095421e-05
7.8975689e-05
9.4490686e-06
-2.3052731e-05
0.00010716351
8.8541415e-06
-2.8991437e-05
9.0445053e-05
3.4276026e-06
-2.7142104e-05
5.5331514e-06
-3.9960762e-06
-1.7461939e-05
-0.00012118902
-9.247412e-06
-5.7295349e-06
-0.0002271108
1.7363677e-06
-0.00027047055
-1.0081642e-05
1.3434234e-07
-1.7321766e-06
1.2111299e-05
1.8228005e-06
-6.9754751e-06
4.4915539e-05
6.0733792e-06
-1.519448e-05
8.7436708e-05
1.1760882e-05
-2.43039e-05
0.00011727209
1.1911584e-05
-2.9058393e-05
9.6931739e-05
6.498514e-06
-2.4261003e-05
2.8570333e-06
-1.8386509e-06
-1.0950066e-05
-0.0001335043
-8.6155672e-06
3.507952e-06
-0.00024499528
1.2371517e-05
-0.00029023724
-1.0759027e-05
1.6949201e-07
-1.8631296e-06
1.3268677e-05
2.1715854e-06
-7.5260674e-06
4.9003775e-05
7.2006772e-06
-1.6356024e-05
9.4868449e-05
1.4634036e-05
-2.572442e-05
0.0001260909
1.5804842e-05
-2.9538503e-05
0.000102701
1.0608023e-05
-2.2205377e-05
1.244739e-06
1.4558629e-06
-5.8187396e-06
-0.00014219997
-6.7931143e-06
1.0831951e-05
-0.00025701103
2.0692413e-05
-0.00030288909
-1.0183971e-05
2.1881953e-07
-1.9577986e-06
1.4240359e-05
2.5687701e-06
-7.9475907e-06
5.2421944e-05
8.4216985e-06
-1.7292204e-05
0.00010105686
1.7721134e-05
-2.6853967e-05
0.00013338747
2.0086055e-05
-3.0064178e-05
0.00010752283
1.5255594e-05
-2.10121e-05
3.4420844e-07
5.357784e-06
-2.6568305e-06
-0.00014805477
-4.3589182e-06
1.5249972e-05
-0.0002644938
2.5514627e-05
-0.00031010325
-9.0020946e-06
3.0063861e-07
-1.9824788e-06
1.5049352e-05
3.0992894e-06
-8.0774882e-06
5.5277018e-05
9.9107318e-06
-1.7602056e-05
0.00010625257
2.0921076e-05
-2.7147246e-05
0.00013958491
2.4674852e-05
-2.9962412e-05
0.0001118834
2.021808e-05
-2.0247701e-05
3.5279843e-07
9.4555645e-06
-1.5056338e-06
-0.00015151976
-1.7653092e-06
1.6249201e-05
-0.0002686118
2.6175244e-05
-0.00031349293
-7.6663593e-06
3.8505131e-07
-1.8540005e-06
1.5711667e-05
3.6592289e-06
-7.5813232e-06
5.763818e-05
1.1532837e-05
-1.6566787e-05
0.00011061297
2.4356571e-05
-2.5524088e-05
0.00014490175
2.9395929e-05
-2.8019661e-05
0.00011598762
2.5112102e-05
-1.882797e-05
1.2576161e-06
1.3420072e-05
-1.7288115e-06
-0.00015304313
7.2535456e-07
1.4160278e-05
-0.00027031134
2.2836024e-05
-0.00031435752
-6.3743788e-06
4.7289626e-07
-1.4920251e-06
1.6225966e-05
4.2398124e-06
-6.1162761e-06
5.9494058e-05
1.3270443e-05
-1.3402011e-05
0.00011409604
2.8049043e-05
-2.067764e-05
0.00014924121
3.4159713e-05
-2.2721857e-05
0.00011962064
2.9730866e-05
-1.5341459e-05
2.6784882e-06
1.6980975e-05
-2.1058481e-06
-0.00015324318
2.9579221e-06
1.0004963e-05
-0.00027047653
1.64671e-05
-0.00031378695
-5.1801826e-06
5.4670875e-07
-8.5248941e-07
1.6571919e-05
4.7339287e-06
-3.4934419e-06
6.073763e-05
1.4810032e-05
-7.6587482e-06
0.00011643039
3.1400219e-05
-1.1820937e-05
0.00015216639
3.8368239e-05
-1.2980243e-05
0.00012215965
3.3595105e-05
-8.7782265e-06
3.9205093e-06
1.9885764e-05
-1.423793e-06
-0.00015285531
4.9065537e-06
5.1273622e-06
-0.00026989847
8.5248945e-06
-0.0003126521
-3.9605714e-06
5.726284e-07
-3.7950929e-11
1.6755567e-05
4.9674464e-06
-9.3446592e-11
6.1420877e-05
1.5644388e-05
-1.1908603e-10
0.00011776118
3.3408726e-05
-3.6089881e-11
0.0001538929
4.0985547e-05
3.3820894e-10
0.00012379537
3.58556e-05
8.4098303e-10
4.90046e-06
2.161051e-05
1.1098989e-09
-0.00015235573
6.0739478e-06
8.2345926e-10
-0.00026936134
7.7300431e-11
-0.00031188049
-3.3158153e-06
5.7264554e-07
8.5240694e-07
1.6755564e-05
4.9674843e-06
3.493244e-06
6.1420868e-05
1.5644417e-05
7.6585138e-06
0.00011776116
3.340881e-05
1.182093e-05
0.00015389288
4.0985602e-05
1.2981084e-05
0.00012379535
3.5855585e-05
8.7801452e-06
4.9004484e-06
2.1610374e-05
1.4262487e-06
-0.00015235574
6.0737073e-06
-5.1255736e-06
-0.00026936134
-8.5246885e-06
-0.0003118805
-3.3160462e-06
5.4680016e-07
1.4919379e-06
1.6571918e-05
4.7340453e-06
6.1160679e-06
6.0737627e-05
1.4810077e-05
1.3401801e-05
0.00011643038
3.1400423e-05
2.067782e-05
0.00015216638
3.8368293e-05
2.2723099e-05
0.00012215962
3.3594922e-05
1.5343874e-05
3.9204744e-06
1.9885225e-05
2.1087633e-06
-0.00015285535
4.9057839e-06
-1.000292e-05
-0.00026989851
-1.6466846e-05
-0.00031265212
-3.9612389e-06
4.7310396e-07
1.8539299e-06
1.6225962e-05
4.2400956e-06
7.5811563e-06
5.949404e-05
1.3270664e-05
1.6566667e-05
0.000114096
2.8049481e-05
2.5524506e-05
0.00014924115
3.4159773e-05
2.8021234e-05
0.00011962058
2.9730492e-05
1.8830765e-05
2.6784314e-06
1.6979978e-05
1.7320981e-06
-0.00015324322
2.9566848e-06
-1.4158055e-05
-0.00027047657
-2.2835749e-05
-0.00031378698
-5.1812192e-06
3.8525461e-07
1.9824424e-06
1.5711664e-05
3.6595322e-06
8.0774186e-06
5.7638167e-05
1.1533181e-05
1.7602049e-05
0.00011061294
2.4357077e-05
2.7147748e-05
0.0001449017
2.9395836e-05
2.996401e-05
0.00011598754
2.5111488e-05
2.025066e-05
1.2575404e-06
1.3418759e-05
1.509107e-06
-0.0001530432
7.2381848e-07
-1.6246795e-05
-0.00027031139
-2.6174975e-05
-0.00031435756
-6.3756794e-06
3.0069277e-07
1.9577455e-06
1.504935e-05
3.0993181e-06
7.9474867e-06
5.5277009e-05
9.9109734e-06
1.7292111e-05
0.00010625255
2.0921439e-05
2.6854322e-05
0.00013958487
2.4674632e-05
3.0065745e-05
0.00011188332
2.0217346e-05
2.1015346e-05
3.5270465e-07
9.4541247e-06
2.6606166e-06
-0.00015151985
-1.7669067e-06
-1.5247401e-05
-0.00026861188
-2.551459e-05
-0.00031349297
-7.6677948e-06
2.1874527e-07
1.8630755e-06
1.4240357e-05
2.5686484e-06
7.5260052e-06
5.2421938e-05
8.4219775e-06
1.6356051e-05
0.00010105684
1.7721448e-05
2.5724905e-05
0.00013338743
2.0085898e-05
2.9540387e-05
0.00010752275
1.5254856e-05
2.2209031e-05
3.4409384e-07
5.3564526e-06
5.8227894e-06
-0.0001480549
-4.3604159e-06
-1.082946e-05
-0.0002644939
-2.0693058e-05
-0.0003101033
-9.003505e-06
1.6945685e-07
1.7321279e-06
1.3268677e-05
2.1715338e-06
6.9754376e-06
4.9003774e-05
7.2007713e-06
1.5194558e-05
9.486844e-05
1.4634264e-05
2.4304526e-05
0.00012609087
1.580478e-05
2.906061e-05
0.00010270092
1.0607416e-05
2.4264873e-05
1.2445965e-06
1.4547573e-06
1.0954227e-05
-0.00014220013
-6.7944485e-06
-3.5057906e-06
-0.00025701115
-1.237298e-05
-0.00030288914
-1.0185125e-05
1.3430987e-07
1.5966622e-06
1.2111296e-05
1.8227321e-06
6.4306954e-06
4.4915523e-05
6.0733943e-06
1.4095636e-05
8.743667e-05
1.1761245e-05
2.3053745e-05
0.00011727202
1.1911468e-05
2.8993945e-05
9.693161e-05
6.4981557e-06
2.7146364e-05
2.856862e-06
-1.8393836e-06
1.7466267e-05
-0.00013350447
-8.6165445e-06
5.7313293e-06
-0.00024499539
-1.7384784e-06
-0.00029023726
-1.0759588e-05
1.2539074e-07
1.4581318e-06
1.0805497e-05
1.5756902e-06
5.9194876e-06
4.0283784e-05
5.1688458e-06
1.3146602e-05
7.8975632e-05
9.4490303e-06
2.2133044e-05
0.00010716341
8.8540907e-06
2.945469e-05
9.0444898e-05
3.427455e-06
3.0690193e-05
5.5329601e-06
-3.9964315e-06
2.4728003e-05
-0.0001211892
-9.2479543e-06
1.5821221e-05
-0.00022711089
9.8724086e-06
-0.00027047057
-1.0081608e-05
1.1772389e-07
1.3332835e-06
9.3682131e-06
1.3508238e-06
5.4884776e-06
3.5175543e-05
4.3449106e-06
1.2419824e-05
6.962634e-05
7.5574652e-06
2.1598935e-05
9.5990486e-05
6.6402873e-06
3.0356168e-05
8.3621135e-05
1.6574335e-06
3.4548711e-05
9.9891198e-06
-4.5264165e-06
3.2094208e-05
-0.00010396964
-8.0298029e-06
2.5803337e-05
-0.00020156344
2.1206966e-05
-0.00024169642
-7.375633e-06
1.1256258e-07
1.2339537e-06
7.8536196e-06
1.159494e-06
5.1641248e-06
2.9775892e-05
3.6445747e-06
1.1938118e-05
5.9727497e-05
6.2018315e-06
2.1413507e-05
8.4219524e-05
5.5266643e-06
3.1523168e-05
7.7037592e-05
1.6399389e-06
3.8386433e-05
1.7029419e-05
-2.8622475e-06
3.9161423e-05
-8.0613159e-05
-4.3753865e-06
3.5113748e-05
-0.00016677292
3.0978355e-05
-0.00020236802
-1.6847166e-06
1.100914e-07
6.4120984e-06
1.1669579e-06
1.0235321e-06
2.4688092e-05
4.9393597e-06
3.198226e-06
5.0573767e-05
1.1565756e-05
5.9058739e-06
7.385357e-05
2.1192333e-05
6.425012e-06
7.3131781e-05
3.2312769e-05
4.565697e-06
2.9049309e-05
4.1540566e-05
2.2946183e-06
-4.8948129e-05
4.5420276e-05
2.4719332e-06
-0.00012089664
4.3690015e-05
-0.00015090625
3.8376412e-05
7.160598e-06
-2.526872e-08
-3.0563063e-07
6.60398e-06
1.390187e-07
-3.758121e-07
-1.4159329e-06
2.5767013e-05
6.8755148e-07
-1.228519e-06
-3.7052121e-06
5.3230195e-05
1.901471e-06
-2.1500029e-06
-7.8360957e-06
7.8358031e-05
4.2530655e-06
-2.089084e-06
-1.4309882e-05
7.9141865e-05
8.2387641e-06
-4.372958e-07
-2.2885583e-05
3.6361117e-05
1.3921811e-05
2.8013099e-06
-3.2160337e-05
-4.0533231e-05
2.0506664e-05
6.9452259e-06
-3.9718532e-05
-0.00011179063
2.6468502e-05
-4.3041126e-05
-0.00014214874
3.0371815e-05
1.0856885e-05
-2.913321e-08
-4.674416e-07
8.0445652e-06
-4.4535545e-07
-2.1442748e-06
3.0920449e-05
-1.4464242e-06
-5.5269386e-06
6.2550265e-05
-2.4454452e-06
-1.1421861e-05
8.8804239e-05
-2.2338329e-06
-2.0257641e-05
8.2773605e-05
-2.665511e-07
-3.140659e-05
2.358299e-05
3.2190745e-06
-4.289654e-05
-7.3362721e-05
7.3764595e-06
-5.1691253e-05
-0.00015895781
-5.4815821e-05
-0.00019452439
1.1307399e-05
-2.4471102e-08
-6.1919271e-07
9.5444349e-06
-4.9533075e-07