/*--------------------------------*- C++ -*----------------------------------*\
| =========                 |                                                 |
| \\      /  F ield         | OpenFOAM: The Open Source CFD Toolbox           |
|  \\    /   O peration     | Version:  2406                                  |
|   \\  /    A nd           | Website:  www.openfoam.com                      |
|    \\/     M anipulation  |                                                 |
\*---------------------------------------------------------------------------*/
FoamFile
{
    version     2.0;
    format      ascii;
    arch        "LSB;label=32;scalar=64";
    class       volVectorField;
    location    "6.25";
    object      U;
}
// * * * * * * * * * * * * * * * * * * * * * * * * * * * * * * * * * * * * * //

dimensions      [0 1 -1 0 0 0 0];

internalField   nonuniform List<vector> 
34560
(
(0.015624767 -0.0021153216 0.0017253297)
(0.031777592 -0.0048893179 0.0099305974)
(0.017467501 -0.0063064092 0.02836183)
(-0.054452004 -0.0062997108 0.061137021)
(-0.20298008 -0.0055769596 0.10565311)
(-0.41183638 -0.0065712988 0.15062987)
(-0.63245424 -0.0082309827 0.18277703)
(-0.81874775 -0.0059950011 0.1961408)
(-0.94769413 0.0012745059 0.19386496)
(0.018366163 -0.0014332482 0.0030944013)
(0.035629541 -0.0017765595 0.014909973)
(0.013893291 0.00077123865 0.038845827)
(-0.078435838 0.0057644476 0.078446204)
(-0.25632422 0.010577503 0.12800139)
(-0.48898065 0.011390633 0.17292885)
(-0.71644773 0.01032948 0.20019656)
(-0.89418103 0.013626683 0.20700836)
(-1.0102755 0.022450107 0.19859707)
(0.0228558 -0.0016774465 0.0036207042)
(0.045166209 -0.0013096766 0.017308903)
(0.020446839 0.0037287825 0.044840313)
(-0.088130367 0.01307844 0.089406579)
(-0.29114461 0.022102397 0.14259051)
(-0.54221478 0.02531465 0.18725587)
(-0.77194582 0.025890095 0.21129227)
(-0.94053436 0.031290962 0.2145387)
(-1.0456764 0.042752322 0.20384423)
(0.028973023 -0.0018904457 0.0041733796)
(0.060283024 -0.001052957 0.019443265)
(0.037496887 0.0058452715 0.049806646)
(-0.082236545 0.018634395 0.097800614)
(-0.30505951 0.031448222 0.15309822)
(-0.57022727 0.037278342 0.19700262)
(-0.80057863 0.040082816 0.21909042)
(-0.96128198 0.047807536 0.22110046)
(-1.0572043 0.061609486 0.21012859)
(0.037092461 -0.0026419729 0.0043724766)
(0.082342363 -0.0024766523 0.020334806)
(0.067681767 0.0051688777 0.052312586)
(-0.057388003 0.020757283 0.102563)
(-0.29553517 0.036866489 0.15883369)
(-0.57197115 0.04593232 0.20293647)
(-0.80332259 0.051969065 0.22530538)
(-0.95810966 0.063040503 0.22863784)
(-1.0450777 0.079413581 0.21944515)
(0.047629521 -0.0041273176 0.0042895884)
(0.11280038 -0.006228653 0.02026154)
(0.11379037 0.00048519449 0.05290019)
(-0.00992145 0.017888716 0.10473574)
(-0.2602658 0.037988579 0.16284589)
(-0.54722656 0.051619861 0.20869851)
(-0.77869786 0.06206705 0.23352951)
(-0.92633912 0.076382675 0.23989095)
(-1.0041291 0.09423548 0.23345651)
(0.061192128 -0.0063171335 0.0041023459)
(0.15391999 -0.01227922 0.019939345)
(0.18021205 -0.0083655517 0.053029613)
(0.067021112 0.0093965086 0.10672634)
(-0.19081114 0.033318742 0.16793188)
(-0.48647314 0.052570748 0.21761472)
(-0.71753145 0.068364289 0.24714627)
(-0.85797657 0.086131987 0.25806904)
(-0.92659493 0.10523322 0.25518798)
(0.078382716 -0.0091224094 0.0040376801)
(0.20791277 -0.02041502 0.020007432)
(0.27121326 -0.020957366 0.054458272)
(0.18019531 -0.0042819867 0.11201729)
(-0.079258696 0.023244406 0.17945055)
(-0.38098181 0.048703792 0.23571518)
(-0.61006058 0.0701183 0.2719915)
(-0.74224147 0.090916164 0.28828978)
(-0.80113209 0.11053682 0.28867948)
(0.099057634 -0.011874536 0.0044160479)
(0.27445023 -0.0287071 0.021680354)
(0.38585024 -0.034222737 0.060239004)
(0.3299644 -0.019913533 0.12539625)
(0.077463828 0.0099322133 0.20363797)
(-0.22471189 0.040263205 0.2695236)
(-0.44740836 0.066022026 0.31396349)
(-0.56852507 0.08837782 0.33542459)
(-0.61676348 0.10735591 0.33760489)
(0.12141785 -0.013064509 0.0055269107)
(0.3475785 -0.032784786 0.025715741)
(0.51453145 -0.041500094 0.072820537)
(0.50336467 -0.030627744 0.14924089)
(0.2690257 -0.002224397 0.24313598)
(-0.024211949 0.02863495 0.32182806)
(-0.23292766 0.055087619 0.37456832)
(-0.33901027 0.076150398 0.39983213)
(-0.37615778 0.09258505 0.40161364)
(0.14157901 -0.01069558 0.0071501543)
(0.41396943 -0.027247099 0.031864402)
(0.63347489 -0.035516834 0.088760817)
(0.66656546 -0.028807932 0.17893455)
(0.45829318 -0.0077445853 0.29047895)
(0.1843054 0.016378576 0.38317679)
(-0.00364604 0.037086302 0.44287771)
(-0.092551162 0.05280334 0.46968736)
(-0.12016736 0.063550463 0.46996761)
(0.15382165 -0.0041535243 0.0084057443)
(0.45470081 -0.010634475 0.036566746)
(0.70739068 -0.014014243 0.10063724)
(0.76904779 -0.011725934 0.20084213)
(0.58087796 -0.003863416 0.32472274)
(0.32432462 0.0054164816 0.42695354)
(0.15282346 0.013394799 0.49071481)
(0.076000459 0.019326347 0.51759758)
(0.05314035 0.023055894 0.51621701)
(0.15382161 0.0041532921 0.0084057541)
(0.45470068 0.010633761 0.036566733)
(0.7073904 0.014013023 0.10063727)
(0.76904738 0.011724259 0.20084217)
(0.58087747 0.0038616233 0.32472274)
(0.32432417 -0.0054181621 0.42695355)
(0.15282307 -0.013396256 0.49071486)
(0.076000079 -0.019327684 0.51759763)
(0.053139935 -0.023057256 0.51621705)
(0.1415789 0.0106953 0.0071501906)
(0.41396907 0.027246294 0.031864385)
(0.63347415 0.035515546 0.088760907)
(0.66656445 0.028806272 0.17893469)
(0.45829197 0.0077429253 0.29047898)
(0.18430427 -0.016380069 0.38317687)
(-0.0036470427 -0.037087591 0.44287786)
(-0.092552121 -0.052804592 0.46968755)
(-0.12016837 -0.063551797 0.46996779)
(0.12141773 0.013064257 0.0055269468)
(0.34757806 0.032784055 0.025715728)
(0.51453056 0.041498921 0.072820648)
(0.50336345 0.030626285 0.14924111)
(0.26902416 0.0022229613 0.24313614)
(-0.024213385 -0.028636216 0.32182829)
(-0.23292894 -0.055088719 0.37456859)
(-0.33901149 -0.076151545 0.39983249)
(-0.37615904 -0.092586322 0.40161407)
(0.099057524 0.011874371 0.0044160817)
(0.2744498 0.028706547 0.021680469)
(0.38584935 0.034221728 0.060239316)
(0.32996313 0.019912274 0.12539673)
(0.077462298 -0.0099334751 0.20363841)
(-0.22471331 -0.040264275 0.26952404)
(-0.44740957 -0.066022962 0.3139639)
(-0.56852629 -0.088378857 0.33542508)
(-0.61676477 -0.10735708 0.33760555)
(0.078382597 0.0091223057 0.0040377158)
(0.20791234 0.020414641 0.020007762)
(0.27121242 0.020956526 0.054458857)
(0.1801941 0.0042809532 0.11201793)
(-0.079260081 -0.023245419 0.17945113)
(-0.38098313 -0.048704571 0.23571569)
(-0.61006164 -0.070119023 0.27199195)
(-0.74224261 -0.090917056 0.28829031)
(-0.8011333 -0.11053792 0.28868018)
(0.061192022 0.0063170339 0.0041023797)
(0.15391964 0.012279003 0.019939744)
(0.18021138 0.008365017 0.053029999)
(0.067020079 -0.0093972241 0.10672663)
(-0.19081238 -0.033319393 0.16793228)
(-0.48647434 -0.052571188 0.21761513)
(-0.71753238 -0.068364762 0.24714671)
(-0.85797758 -0.086132717 0.25806952)
(-0.92659586 -0.10523439 0.25518867)
(0.047629434 0.0041272364 0.0042895858)
(0.1128001 0.0062284473 0.020261525)
(0.11378982 -0.00048555331 0.052900176)
(-0.0099222665 -0.017889217 0.1047359)
(-0.26026675 -0.03798887 0.16284613)
(-0.54722753 -0.051620115 0.20869879)
(-0.77869871 -0.06206736 0.23352987)
(-0.92633999 -0.07638332 0.23989142)
(-1.0041297 -0.094236863 0.23345731)
(0.037092386 0.0026419115 0.0043725052)
(0.082342122 0.0024765339 0.020334955)
(0.067681335 -0.0051690674 0.052312872)
(-0.057388616 -0.020757624 0.10256313)
(-0.2955359 -0.036866706 0.15883372)
(-0.57197201 -0.045932462 0.20293668)
(-0.80332335 -0.051969276 0.22530557)
(-0.95811032 -0.063041246 0.22863841)
(-1.0450783 -0.079415132 0.21944587)
(0.028972963 0.0018903894 0.004173415)
(0.060282835 0.001052837 0.019443354)
(0.037496539 -0.0058454265 0.049806683)
(-0.082237068 -0.018634573 0.097800507)
(-0.30506023 -0.031448512 0.15309819)
(-0.57022801 -0.037278481 0.19700253)
(-0.80057939 -0.040083127 0.21909067)
(-0.96128256 -0.047808331 0.22110116)
(-1.0572049 -0.061610851 0.21012899)
(0.02285575 0.0016774234 0.0036206977)
(0.045166054 0.0013096406 0.017308913)
(0.020446556 -0.0037288151 0.044840322)
(-0.088130754 -0.013078434 0.089406644)
(-0.29114506 -0.022102593 0.1425904)
(-0.5422153 -0.025314983 0.18725579)
(-0.77194639 -0.025890594 0.21129255)
(-0.94053504 -0.031291899 0.21453916)
(-1.0456772 -0.042753796 0.2038449)
(0.018366117 0.0014332446 0.0030943986)
(0.035629403 0.0017766132 0.014910043)
(0.013893048 -0.00077120998 0.038845923)
(-0.078436165 -0.0057643909 0.078446376)
(-0.2563246 -0.010577509 0.12800149)
(-0.48898114 -0.011391098 0.172929)
(-0.71644818 -0.010330354 0.200197)
(-0.89418159 -0.01362754 0.20700898)
(-1.0102762 -0.022451676 0.19859792)
(0.015624721 0.002115303 0.0017253453)
(0.031777456 0.0048893273 0.0099306754)
(0.017467269 0.0063064552 0.028361997)
(-0.054452314 0.006299818 0.06113728)
(-0.20298044 0.0055771485 0.10565342)
(-0.41183669 0.0065714308 0.15063024)
(-0.6324546 0.0082305501 0.18277707)
(-0.81874806 0.0059941348 0.19614146)
(-0.94769443 -0.0012754253 0.19386639)
(0.051464298 0.00052078858 0.00035689423)
(0.14906921 0.0012591657 0.0006430617)
(0.24007463 0.0014961486 -0.00018898301)
(0.29777316 3.6328933e-05 -0.0030029625)
(0.29230198 -0.0045211469 -0.0086518012)
(0.2095172 -0.013024214 -0.016578097)
(0.068641452 -0.024580942 -0.024501789)
(-0.084578859 -0.036818636 -0.030325819)
(-0.20502694 -0.048735101 -0.03328185)
(0.057951833 -0.00020212753 -0.00033943535)
(0.16533475 -0.0011660443 -0.0016748277)
(0.2611085 -0.0031063401 -0.0047171501)
(0.31471211 -0.0072463359 -0.010201989)
(0.29524336 -0.014850039 -0.018502902)
(0.19337535 -0.026311095 -0.028115504)
(0.037158492 -0.039984384 -0.036116772)
(-0.12174905 -0.053081467 -0.040753618)
(-0.24191849 -0.064330433 -0.042714788)
(0.064659109 -0.0010740102 -0.0010042404)
(0.18256219 -0.0040807641 -0.0039515112)
(0.28443496 -0.0085668175 -0.0092537771)
(0.33624745 -0.015590565 -0.017376188)
(0.30624098 -0.025991595 -0.027940981)
(0.18987001 -0.039455844 -0.038466833)
(0.022978954 -0.053859771 -0.045759601)
(-0.13903772 -0.066690623 -0.049049774)
(-0.25834675 -0.07722322 -0.049677716)
(0.070886851 -0.0022712169 -0.0017214983)
(0.19857226 -0.0079480498 -0.0063882754)
(0.30624572 -0.015549051 -0.014104893)
(0.35699712 -0.025754749 -0.024974688)
(0.31845705 -0.038743491 -0.037633631)
(0.19060288 -0.053440397 -0.048669908)
(0.015984836 -0.067659564 -0.054879087)
(-0.14760877 -0.07968364 -0.056658227)
(-0.26600638 -0.089562957 -0.05604109)
(0.076475698 -0.0037054194 -0.0023833216)
(0.21296533 -0.012515676 -0.0086679585)
(0.32591256 -0.023645394 -0.018737211)
(0.3759548 -0.037208502 -0.032288573)
(0.33007301 -0.052450805 -0.046800157)
(0.19241881 -0.067664056 -0.05811294)
(0.011495698 -0.081056091 -0.063174008)
(-0.153091 -0.091945029 -0.063548443)
(-0.27051776 -0.10097465 -0.061814218)
(0.081496887 -0.0053481442 -0.0029050364)
(0.22590042 -0.017647077 -0.010499287)
(0.34359572 -0.03252604 -0.022636533)
(0.39308003 -0.04931981 -0.038656068)
(0.34055339 -0.066182071 -0.054775127)
(0.19385128 -0.081171514 -0.066143462)
(0.006930834 -0.093220507 -0.070108045)
(-0.15881289 -0.10269264 -0.069333442)
(-0.27533632 -0.11065454 -0.066749542)
(0.086000739 -0.0070991699 -0.0032490802)
(0.23757106 -0.022944779 -0.011732693)
(0.35961743 -0.041373241 -0.02543854)
(0.40856531 -0.060792597 -0.043380277)
(0.35014384 -0.078415127 -0.060821862)
(0.19464016 -0.092490536 -0.072040334)
(0.0013836838 -0.10285574 -0.075106139)
(-0.16614102 -0.11075139 -0.073562838)
(-0.28202673 -0.11743078 -0.070464361)
(0.090253051 -0.0086282074 -0.0032871145)
(0.24887545 -0.027390887 -0.01196234)
(0.3755049 -0.04842797 -0.026404886)
(0.42416742 -0.069178852 -0.045539567)
(0.36055882 -0.08646009 -0.064021407)
(0.19602656 -0.099033326 -0.074868835)
(-0.004388658 -0.10769644 -0.077402145)
(-0.17461215 -0.11404105 -0.075600514)
(-0.29023678 -0.1193012 -0.072398291)
(0.094497096 -0.00945988 -0.0029567759)
(0.26064124 -0.029566662 -0.011003455)
(0.39292808 -0.051374786 -0.025223652)
(0.44193836 -0.07165223 -0.044700222)
(0.3730694 -0.087541632 -0.063790124)
(0.19951163 -0.098068534 -0.074092622)
(-0.0086076056 -0.10495729 -0.076380999)
(-0.18230798 -0.1098576 -0.074884672)
(-0.29821771 -0.11367135 -0.072042191)
(0.098743752 -0.009020593 -0.0022680886)
(0.27294591 -0.027807165 -0.0088672496)
(0.41221557 -0.047600878 -0.021771755)
(0.46295765 -0.06508956 -0.04036703)
(0.38806365 -0.077848523 -0.059280781)
(0.2057691 -0.085629323 -0.06965583)
(-0.010052639 -0.090942276 -0.071920748)
(-0.18746013 -0.094507448 -0.071252382)
(-0.30394167 -0.096890005 -0.069204847)
(0.10258981 -0.0067527401 -0.0014136554)
(0.28438573 -0.020548654 -0.0061542789)
(0.43090485 -0.034717416 -0.01701002)
(0.48452671 -0.046652912 -0.03372122)
(0.40420682 -0.054692712 -0.051845781)
(0.21408408 -0.059481697 -0.063306452)
(-0.0082154196 -0.06298561 -0.065504827)
(-0.18876227 -0.065194344 -0.065884865)
(-0.30586378 -0.066402373 -0.064823861)
(0.10499825 -0.0025318811 -0.00082312328)
(0.29181522 -0.0076483403 -0.0042551078)
(0.4435599 -0.012813398 -0.013545723)
(0.49990675 -0.017030513 -0.028709206)
(0.41663479 -0.019736429 -0.046087337)
(0.22106794 -0.021382808 -0.058456145)
(-0.005260226 -0.022635465 -0.060595052)
(-0.18775646 -0.023384399 -0.061715997)
(-0.30532339 -0.023728738 -0.061353038)
(0.10499825 0.0025318861 -0.00082312748)
(0.2918152 0.0076484019 -0.0042551131)
(0.44355986 0.01281356 -0.013545741)
(0.4999067 0.017030814 -0.028709227)
(0.41663474 0.01973699 -0.046087362)
(0.22106791 0.021383616 -0.05845616)
(-0.0052602468 0.022636381 -0.060595058)
(-0.1877565 0.023385237 -0.061715988)
(-0.30532344 0.023729368 -0.06135302)
(0.1025898 0.0067527144 -0.0014136592)
(0.28438569 0.020548664 -0.0061543162)
(0.43090476 0.034717543 -0.017010063)
(0.48452661 0.046653218 -0.03372127)
(0.40420672 0.05469333 -0.051845857)
(0.21408401 0.059482574 -0.063306497)
(-0.0082154846 0.062986585 -0.065504837)
(-0.18876238 0.065195207 -0.06588483)
(-0.30586393 0.066403003 -0.064823786)
(0.098743746 0.0090205658 -0.0022680924)
(0.27294588 0.027807165 -0.0088673447)
(0.41221547 0.047601003 -0.021771842)
(0.46295758 0.065089906 -0.040367122)
(0.38806354 0.0778492 -0.059280902)
(0.205769 0.085630238 -0.069655883)
(-0.010052748 0.090943272 -0.071920735)
(-0.18746029 0.094508306 -0.071252305)
(-0.30394187 0.096890618 -0.069204708)
(0.094497096 0.0094598957 -0.0029567868)
(0.26064122 0.029566727 -0.011003528)
(0.392928 0.051374933 -0.025223703)
(0.44193831 0.071652583 -0.044700276)
(0.37306927 0.087542273 -0.063790202)
(0.19951149 0.098069411 -0.074092648)
(-0.0086077488 0.10495824 -0.076380961)
(-0.18230816 0.10985843 -0.074884584)
(-0.29821795 0.11367194 -0.072042041)
(0.090253038 0.0086282336 -0.0032871252)
(0.2488754 0.02739099 -0.011962261)
(0.3755048 0.0484281 -0.02640477)
(0.42416732 0.069179157 -0.04553953)
(0.36055867 0.086460655 -0.064021442)
(0.19602641 0.099034167 -0.074868887)
(-0.004388818 0.10769735 -0.077402142)
(-0.17461235 0.11404186 -0.075600491)
(-0.29023706 0.11930173 -0.072398196)
(0.086000717 0.0070991749 -0.003249091)
(0.237571 0.022944902 -0.011732564)
(0.35961735 0.041373408 -0.025438488)
(0.40856521 0.060792896 -0.043380384)
(0.35014371 0.078415691 -0.060822009)
(0.19464001 0.092491394 -0.0720405)
(0.0013835087 0.10285665 -0.075106226)
(-0.16614124 0.11075215 -0.073562915)
(-0.282027 0.11743112 -0.070464278)
(0.081496857 0.0053481345 -0.0029050484)
(0.22590033 0.017647148 -0.010499298)
(0.34359557 0.032526195 -0.022636604)
(0.39307987 0.049320095 -0.038656203)
(0.3405532 0.066182669 -0.054775336)
(0.19385109 0.081172341 -0.066143701)
(0.0069306183 0.093221384 -0.070108227)
(-0.15881315 0.10269331 -0.069333558)
(-0.27533657 0.1106546 -0.066749401)
(0.076475658 0.0037054025 -0.0023833237)
(0.21296522 0.01251573 -0.008667946)
(0.32591238 0.023645555 -0.018737222)
(0.37595459 0.037208794 -0.032288761)
(0.33007275 0.05245137 -0.04680047)
(0.19241856 0.067664869 -0.058113254)
(0.011495404 0.081056889 -0.063174307)
(-0.15309131 0.09194545 -0.063548497)
(-0.27051802 0.1009745 -0.061814153)
(0.070886809 0.0022711948 -0.0017214727)
(0.19857214 0.0079480586 -0.0063882572)
(0.3062455 0.015549172 -0.014104943)
(0.35699682 0.025755067 -0.024974862)
(0.31845674 0.038743994 -0.037633913)
(0.19060251 0.053441166 -0.048670308)
(0.015984433 0.067660234 -0.054879336)
(-0.14760914 0.079683892 -0.05665831)
(-0.26600666 0.089562814 -0.056041398)
(0.064659064 0.0010740011 -0.0010042396)
(0.18256206 0.0040808174 -0.0039515256)
(0.28443472 0.0085669928 -0.0092538589)
(0.33624709 0.015590953 -0.017376328)
(0.30624057 0.025992111 -0.02794137)
(0.18986952 0.039456483 -0.038467308)
(0.022978453 0.053860346 -0.045759966)
(-0.13903819 0.066690816 -0.049050322)
(-0.25834712 0.077222907 -0.049678151)
(0.057951781 0.00020214961 -0.00033945477)
(0.16533459 0.0011661954 -0.0016748664)
(0.26110823 0.0031066165 -0.0047172616)
(0.3147117 0.0072468173 -0.010202153)
(0.29524286 0.014850692 -0.01850326)
(0.19337483 0.026311628 -0.028115987)
(0.03715796 0.039984699 -0.036117347)
(-0.12174951 0.053081456 -0.040754261)
(-0.24191884 0.064329617 -0.042715042)
(0.051464247 -0.00052077581 0.00035688344)
(0.14906906 -0.0012590685 0.00064302582)
(0.24007437 -0.0014959398 -0.00018906298)
(0.29777281 -3.5967937e-05 -0.0030031346)
(0.29230156 0.0045217007 -0.0086521291)
(0.20951675 0.013024798 -0.016578625)
(0.068641071 0.024581236 -0.024502708)
(-0.084579196 0.036818395 -0.030326446)
(-0.20502713 0.048734637 -0.033281803)
(0.030887362 -0.00078524297 -0.0007173098)
(0.085631519 -0.0023598039 -0.0021721638)
(0.12853147 -0.004007237 -0.0037564866)
(0.13848082 -0.0055390173 -0.0052085197)
(0.09341754 -0.0068447394 -0.0060061763)
(-0.015843427 -0.0078775965 -0.0056525776)
(-0.17086319 -0.0085103899 -0.0042805831)
(-0.33113906 -0.0086530041 -0.0027980963)
(-0.45557002 -0.0085741836 -0.0021519275)
(0.034373138 -0.00082874211 -0.00066783012)
(0.093422105 -0.0024265657 -0.0020067388)
(0.13613778 -0.0039853846 -0.0034516179)
(0.13871467 -0.0052632909 -0.0047063121)
(0.078891234 -0.0061415063 -0.0051752762)
(-0.048164659 -0.0066138311 -0.0043735146)
(-0.21624562 -0.0066631237 -0.0026222867)
(-0.37976231 -0.0063774878 -0.00097425979)
(-0.50188457 -0.0060788185 -0.00051744789)
(0.038134848 -0.00088144736 -0.00061558754)
(0.10244313 -0.0025333133 -0.0018485034)
(0.14668132 -0.0040488862 -0.0032006878)
(0.14464383 -0.0051057043 -0.0043809306)
(0.074130662 -0.0055554183 -0.0047145825)
(-0.065495077 -0.0054674609 -0.0036712531)
(-0.24146416 -0.0049747215 -0.0016800302)
(-0.40538072 -0.0043237293 0.00016172372)
(-0.5243845 -0.0038002868 0.0007937382)
(0.041615248 -0.00095414519 -0.00057674873)
(0.11091949 -0.0027078236 -0.0017392203)
(0.15699016 -0.0042398787 -0.0030524887)
(0.15166747 -0.0051185725 -0.0042408368)
(0.07313556 -0.0051397033 -0.0045507595)
(-0.075328583 -0.004460643 -0.0033746782)
(-0.255596 -0.0033981288 -0.0012143886)
(-0.41787751 -0.0023631797 0.00084089283)
(-0.53330145 -0.0015920001 0.0017153486)
(0.044729715 -0.0010316771 -0.00053893992)
(0.1186104 -0.0029169719 -0.0016454367)
(0.16661774 -0.0045198083 -0.0029562176)
(0.15895629 -0.0052732648 -0.0042249754)
(0.074351938 -0.0048928808 -0.0046183744)
(-0.080382209 -0.0036211109 -0.0034117075)
(-0.26261622 -0.0019802346 -0.0011487067)
(-0.42194767 -0.00055829842 0.0011065329)
(-0.5333146 0.00044318986 0.0022590391)
(0.047474328 -0.001113604 -0.00049155928)
(0.12545416 -0.0031575769 -0.0015345443)
(0.17536591 -0.0048757234 -0.0028529129)
(0.16603547 -0.0055550619 -0.0042635841)
(0.076789308 -0.0048245193 -0.0048502031)
(-0.082418363 -0.0029982066 -0.0037239743)
(-0.26513838 -0.00081483648 -0.0014316664)
(-0.42078042 0.00095660659 0.00099786441)
(-0.52775017 0.0021383902 0.0024390258)
(0.049827896 -0.0011871888 -0.00043738964)
(0.13138385 -0.0033854914 -0.0014090049)
(0.18313368 -0.005235148 -0.0027420666)
(0.17273376 -0.0058763966 -0.0043172987)
(0.080046988 -0.0048771856 -0.0051806026)
(-0.082279803 -0.0026021453 -0.0042394753)
(-0.26460753 5.4705232e-06 -0.0019943849)
(-0.41636421 0.0020377064 0.00057644455)
(-0.51893221 0.0033207339 0.0023039949)
(0.051904945 -0.0012326409 -0.00037132178)
(0.13673861 -0.0035360359 -0.0012491489)
(0.19042194 -0.0054894128 -0.0026060474)
(0.17965021 -0.0061214855 -0.0043427634)
(0.084550094 -0.0049672629 -0.0055376687)
(-0.079978818 -0.0024234809 -0.0048788486)
(-0.26165207 0.0004209268 -0.0027475144)
(-0.40987371 0.0025727771 -6.7629568e-05)
(-0.50844116 0.0038642056 0.0019285672)
(0.053763241 -0.001212918 -0.00028845629)
(0.14167644 -0.0034969603 -0.0010363135)
(0.19745612 -0.0054514878 -0.0023825722)
(0.18688567 -0.0060814625 -0.0043179557)
(0.090200336 -0.0049061828 -0.005884228)
(-0.075905146 -0.0023368206 -0.0055543205)
(-0.25696026 0.0004757394 -0.0035771865)
(-0.40229362 0.0025508164 -0.00082275195)
(-0.49754069 0.0037427264 0.0014056907)
(0.055354772 -0.001073429 -0.00018939115)
(0.14601659 -0.0031089771 -0.00077274927)
(0.20386367 -0.0048683721 -0.0020840004)
(0.19383728 -0.0054468674 -0.0042325332)
(0.096204585 -0.0044082442 -0.0061907337)
(-0.071008665 -0.0021319206 -0.0061876185)
(-0.25156049 0.00031084373 -0.0043626224)
(-0.39473412 0.0020745453 -0.0015667483)
(-0.4874838 0.0030486796 0.00084208954)
(0.0565456 -0.0007647818 -9.1917065e-05)
(0.14927309 -0.0022192779 -0.00050759318)
(0.20873178 -0.0034840297 -0.0017677103)
(0.19924307 -0.0039063533 -0.0041042609)
(0.10111014 -0.0031746115 -0.0064200459)
(-0.066758561 -0.0015642983 -0.0067007169)
(-0.24685233 0.00012911249 -0.0049929736)
(-0.38853024 0.0013247017 -0.0021809471)
(-0.4796567 0.001940175 0.00032058578)
(0.057226043 -0.00028186672 -3.1290968e-05)
(0.15119648 -0.0008181584 -0.00034048077)
(0.2117045 -0.001283677 -0.0015613333)
(0.20265007 -0.0014356877 -0.0040129417)
(0.10430989 -0.0011630087 -0.0065567389)
(-0.063950982 -0.00057168898 -0.0070043665)
(-0.24390055 3.5850826e-05 -0.0053522992)
(-0.38492551 0.00044966451 -0.0025480995)
(-0.47531784 0.00066733026 2.9590005e-05)
(0.05722604 0.00028181817 -3.1289787e-05)
(0.15119647 0.00081807487 -0.00034047704)
(0.21170448 0.0012836017 -0.0015613324)
(0.20265005 0.0014356756 -0.0040129415)
(0.10430987 0.0011631518 -0.0065567425)
(-0.063951004 0.00057197708 -0.0070043627)
(-0.24390058 -3.5513272e-05 -0.0053522796)
(-0.38492554 -0.00044942412 -0.0025480589)
(-0.47531786 -0.0006673031 2.9649663e-05)
(0.056545592 0.00076472898 -9.1913045e-05)
(0.14927306 0.0022191891 -0.000507591)
(0.20873173 0.0034839558 -0.0017677116)
(0.19924302 0.0039063614 -0.004104266)
(0.10111007 0.0031748002 -0.0064200651)
(-0.066758631 0.0015646468 -0.0067007115)
(-0.2468524 -0.00012871479 -0.0049929166)
(-0.38853031 -0.001324419 -0.0021808273)
(-0.47965675 -0.0019401273 0.00032076628)
(0.055354764 0.0010733815 -0.0001893873)
(0.14601656 0.0031089002 -0.00077275193)
(0.20386361 0.0048683154 -0.0020840135)
(0.19383719 0.0054469155 -0.0042325542)
(0.096204475 0.0044084972 -0.0061907722)
(-0.071008778 0.0021323477 -0.0061876116)
(-0.25156059 -0.00031036747 -0.0043625299)
(-0.39473422 -0.0020742095 -0.0015665578)
(-0.48748388 -0.0030486053 0.000842382)
(0.053763231 0.0012128844 -0.00028845456)
(0.1416764 0.003496914 -0.0010362996)
(0.19745603 0.0054514557 -0.0023825773)
(0.18688555 0.0060815447 -0.0043179746)
(0.090200187 0.0049064769 -0.0058842655)
(-0.075905298 0.0023373053 -0.0055543111)
(-0.2569604 -0.00047520099 -0.0035770735)
(-0.40229374 -0.0025504309 -0.00082252481)
(-0.49754079 -0.0037426267 0.0014060401)
(0.051904928 0.0012326115 -0.00037131738)
(0.13673855 0.0035360127 -0.001249091)
(0.19042184 0.0054893995 -0.0026060049)
(0.17965007 0.0061215888 -0.0043427556)
(0.084549915 0.0049675828 -0.0055377002)
(-0.079979004 0.0024240159 -0.0048788607)
(-0.26165224 -0.00042033781 -0.0027474247)
(-0.40987386 -0.0025723532 -6.7433711e-05)
(-0.50844129 -0.0038641127 0.0019289013)
(0.049827873 0.0011871587 -0.00043738477)
(0.13138379 0.003385487 -0.0014089398)
(0.18313357 0.0052351675 -0.0027420322)
(0.17273359 0.0058765306 -0.004317319)
(0.080046781 0.0048775523 -0.0051806767)
(-0.082280029 0.0026027426 -0.0042395534)
(-0.26460774 -4.8319555e-06 -0.001994368)
(-0.4163644 -0.0020372757 0.00057654954)
(-0.51893235 -0.0033207348 0.0023042826)
(0.047474301 0.00111357 -0.00049155288)
(0.12545408 0.0031575667 -0.0015345009)
(0.17536577 0.0048757606 -0.0028528898)
(0.16603527 0.0055552323 -0.0042636135)
(0.076789059 0.0048249542 -0.0048503312)
(-0.08241864 0.0029988539 -0.0037241304)
(-0.26513864 0.00081550881 -0.0014317561)
(-0.42078064 -0.00095622256 0.00099786553)
(-0.52775031 -0.0021385719 0.0024392667)
(0.044729686 0.0010316441 -0.00053892777)
(0.11861031 0.0029169684 -0.0016453969)
(0.16661759 0.0045198718 -0.0029562101)
(0.15895607 0.0052734889 -0.0042250624)
(0.074351642 0.0048933718 -0.004618577)
(-0.080382543 0.0036218131 -0.0034119626)
(-0.26261655 0.001980915 -0.0011489371)
(-0.42194793 0.00055857366 0.0011064489)
(-0.53331476 -0.00044354089 0.0022591725)
(0.041615218 0.00095411644 -0.00057673017)
(0.1109194 0.0027078243 -0.0017391925)
(0.15698999 0.0042399657 -0.0030525051)
(0.15166721 0.0051188544 -0.0042409358)
(0.073135226 0.0051402266 -0.0045509991)
(-0.07532897 0.0044613652 -0.0033750537)
(-0.25559638 0.0033987568 -0.0012147099)
(-0.41787779 0.0023633607 0.00084068238)
(-0.53330164 0.0015916182 0.0017152221)
(0.03813482 0.00088142936 -0.00061557681)
(0.10244304 0.00253335 -0.0018484919)
(0.14668115 0.0040490268 -0.0032007351)
(0.14464357 0.0051060553 -0.0043810658)
(0.074130325 0.005555996 -0.0047149218)
(-0.065495486 0.005468162 -0.0036717405)
(-0.24146455 0.004975272 -0.0016805159)
(-0.40538104 0.0043238331 0.0001611762)
(-0.52438475 0.0037999122 0.00079336074)
(0.03437311 0.00082875047 -0.00066783724)
(0.093422021 0.0024266734 -0.0020067751)
(0.13613763 0.0039856243 -0.0034517376)
(0.13871443 0.0052637518 -0.0047065415)
(0.078890924 0.0061422027 -0.0051757122)
(-0.048165027 0.0066145438 -0.0043741237)
(-0.21624599 0.006663533 -0.0026229718)
(-0.37976265 0.0063773407 -0.00097501506)
(-0.50188481 0.0060782755 -0.00051794574)
(0.030887339 0.00078526246 -0.00071732647)
(0.085631454 0.0023599079 -0.0021722389)
(0.12853136 0.0040074601 -0.003756655)
(0.13848067 0.0055394115 -0.0052088428)
(0.093417349 0.0068453484 -0.0060067087)
(-0.01584363 0.0078782958 -0.0056532801)
(-0.1708634 0.0085108476 -0.0042814748)
(-0.33113929 0.0086528057 -0.0027992296)
(-0.45557016 0.0085737499 -0.0021522811)
(0.041170715 -0.0001443803 -0.00012986813)
(0.11728521 -0.00050692418 -0.00041845384)
(0.18412168 -0.0010652987 -0.00073486774)
(0.21775923 -0.0018685455 -0.0010662893)
(0.19185133 -0.0028926238 -0.0014555035)
(0.094156145 -0.0040548204 -0.0019341486)
(-0.056814986 -0.0053002467 -0.0024384612)
(-0.21794096 -0.0066128466 -0.0028154877)
(-0.3449382 -0.0079439529 -0.002940299)
(0.045849536 -0.00025648662 -0.00020560485)
(0.12834827 -0.00086006589 -0.00064572238)
(0.19671285 -0.0017079218 -0.001110717)
(0.22377525 -0.0028237805 -0.0015710987)
(0.18257659 -0.0041338966 -0.0020710046)
(0.065585325 -0.0055147152 -0.0026473905)
(-0.1001571 -0.0069017377 -0.0032311454)
(-0.26599082 -0.0082604198 -0.0036630425)
(-0.39197792 -0.0094715532 -0.0038313892)
(0.050650963 -0.0003460527 -0.00024221045)
(0.14016267 -0.0011486966 -0.00075920851)
(0.21139886 -0.0022379935 -0.0012964936)
(0.23433612 -0.0036081728 -0.0018115545)
(0.18169855 -0.0051302978 -0.0023598136)
(0.050587064 -0.0066347335 -0.0029991655)
(-0.1246041 -0.008053531 -0.0036639114)
(-0.29205342 -0.0093575736 -0.0041996754)
(-0.41596371 -0.01043488 -0.0044622158)
(0.054962651 -0.00043347829 -0.00026502303)
(0.15077823 -0.00142367 -0.0008277062)
(0.22470385 -0.0027256881 -0.0014028)
(0.24442783 -0.0042984949 -0.0019373934)
(0.18279116 -0.0059615947 -0.0025024595)
(0.041298892 -0.0075101144 -0.0031865067)
(-0.13957864 -0.0088895672 -0.0039311005)
(-0.30640994 -0.010093292 -0.0045755221)
(-0.4275859 -0.011044242 -0.0049417791)
(0.058653343 -0.00050520834 -0.00026912342)
(0.159842 -0.0016501877 -0.00083969771)
(0.23603441 -0.0031224084 -0.001415486)
(0.25308198 -0.0048432771 -0.0019395244)
(0.18419572 -0.0065836319 -0.002503511)
(0.034944615 -0.0081166988 -0.0032290511)
(-0.14914024 -0.0094085227 -0.0040547458)
(-0.31388405 -0.010482924 -0.0048039079)
(-0.43166632 -0.011293949 -0.0052643757)
(0.06173296 -0.00056037982 -0.00025391421)
(0.16732683 -0.0018216679 -0.00079176407)
(0.24523808 -0.0034099667 -0.0013288928)
(0.25987935 -0.0052093866 -0.0018117504)
(0.18500963 -0.0069503634 -0.0023584825)
(0.029867447 -0.0084023071 -0.0031235711)
(-0.15582191 -0.0095658167 -0.0040334867)
(-0.31762363 -0.010488132 -0.0048816132)
(-0.43152151 -0.011154375 -0.0054318082)
(0.064177272 -0.000591785 -0.00022521759)
(0.17317745 -0.0019141567 -0.00070015008)
(0.25224603 -0.0035480371 -0.0011662468)
(0.26471353 -0.0053458278 -0.0015809518)
(0.18495705 -0.0070140183 -0.0020958588)
(0.025369096 -0.0083298339 -0.0028960592)
(-0.16093329 -0.0093231948 -0.0038830223)
(-0.31947334 -0.010072235 -0.0048247047)
(-0.42932714 -0.01059096 -0.0054622616)
(0.066097238 -0.00058723034 -0.00018370825)
(0.17774585 -0.0018919725 -0.0005688723)
(0.25765427 -0.0034783185 -0.00093727581)
(0.26831384 -0.0051782758 -0.0012628504)
(0.18465855 -0.0066955529 -0.0017357835)
(0.021655287 -0.0078223389 -0.0025640512)
(-0.16481406 -0.0086244931 -0.0036251595)
(-0.32029844 -0.009200867 -0.0046643071)
(-0.42635386 -0.0095838166 -0.0053904478)
(0.067576319 -0.00053801203 -0.0001342215)
(0.1812741 -0.0017276928 -0.00041329064)
(0.2618444 -0.0031543243 -0.00066910415)
(0.27112094 -0.0046475857 -0.00089438207)
(0.18446825 -0.0059313559 -0.0013179456)
(0.018866219 -0.0068332376 -0.0021726643)
(-0.16762631 -0.007438059 -0.0033085788)
(-0.3205521 -0.0078599164 -0.0044476841)
(-0.42334717 -0.0081210775 -0.0052558476)
(0.06865033 -0.00043797085 -8.3159604e-05)
(0.18384586 -0.0014028895 -0.00025370352)
(0.26491156 -0.0025471753 -0.00039737442)
(0.27319569 -0.003720878 -0.00052822271)
(0.18436539 -0.0046981423 -0.00090726069)