/*--------------------------------*- C++ -*----------------------------------*\
  =========                 |
  \\      /  F ield         | OpenFOAM: The Open Source CFD Toolbox
   \\    /   O peration     | Website:  https://openfoam.org
    \\  /    A nd           | Version:  10
     \\/     M anipulation  |
\*---------------------------------------------------------------------------*/
FoamFile
{
    format      ascii;
    class       volScalarField;
    location    "27.5";
    object      ddt0(T);
}
// * * * * * * * * * * * * * * * * * * * * * * * * * * * * * * * * * * * * * //

dimensions      [0 0 -1 1 0 0 0];

internalField   nonuniform List<scalar> 
10000
(
1068.22
183.135
280.215
282.032
281.069
281.109
281.161
281.172
281.175
281.177
281.178
281.18
281.181
281.183
281.184
281.186
281.187
281.188
281.189
281.191
281.192
281.193
281.195
281.196
281.197
281.198
281.199
281.2
281.201
281.203
281.204
281.205
281.206
281.207
281.208
281.209
281.21
281.211
281.212
281.212
281.213
281.214
281.215
281.216
281.217
281.217
281.218
281.219
281.22
281.22
281.221
281.222
281.222
281.223
281.223
281.224
281.224
281.225
281.226
281.226
281.226
281.227
281.227
281.228
281.228
281.229
281.229
281.229
281.23
281.23
281.23
281.23
281.231
281.231
281.231
281.231
281.232
281.232
281.232
281.232
281.232
281.233
281.233
281.233
281.233
281.233
281.233
281.233
281.233
281.233
281.234
281.234
281.234
281.233
281.233
281.247
281.369
281.291
268.192
248.666
239.698
-226.421
-89.3679
-96.2041
-99.0063
-98.9985
-98.9172
-98.9035
-98.9005
-98.897
-98.8929
-98.8888
-98.8847
-98.8807
-98.8767
-98.8727
-98.8688
-98.8649
-98.861
-98.8572
-98.8534
-98.8497
-98.846
-98.8424
-98.8388
-98.8353
-98.8318
-98.8284
-98.825
-98.8217
-98.8185
-98.8153
-98.8121
-98.8091
-98.806
-98.8031
-98.8002
-98.7974
-98.7946
-98.7919
-98.7893
-98.7867
-98.7842
-98.7817
-98.7794
-98.7771
-98.7748
-98.7726
-98.7705
-98.7684
-98.7664
-98.7645
-98.7626
-98.7608
-98.7591
-98.7574
-98.7558
-98.7542
-98.7527
-98.7512
-98.7498
-98.7485
-98.7472
-98.7459
-98.7448
-98.7436
-98.7425
-98.7415
-98.7405
-98.7396
-98.7387
-98.7378
-98.737
-98.7362
-98.7355
-98.7348
-98.7342
-98.7335
-98.733
-98.7324
-98.7319
-98.7314
-98.731
-98.7306
-98.7302
-98.7299
-98.7296
-98.7293
-98.729
-98.7288
-98.7286
-98.7284
-98.7283
-98.7287
-98.7312
-98.7247
-98.5675
-97.896
-101.449
-84.8604
320.187
-105.096
24.1149
14.1577
11.1536
11.2443
11.3529
11.3721
11.3778
11.3841
11.3909
11.3978
11.4046
11.4113
11.4181
11.4247
11.4313
11.4378
11.4443
11.4507
11.457
11.4632
11.4693
11.4754
11.4814
11.4872
11.493
11.4987
11.5044
11.5099
11.5153
11.5206
11.5259
11.531
11.536
11.541
11.5458
11.5505
11.5551
11.5596
11.564
11.5683
11.5725
11.5766
11.5805
11.5844
11.5881
11.5918
11.5953
11.5988
11.6021
11.6053
11.6084
11.6114
11.6144
11.6172
11.6199
11.6225
11.625
11.6275
11.6298
11.632
11.6342
11.6363
11.6382
11.6401
11.642
11.6437
11.6453
11.6469
11.6484
11.6498
11.6512
11.6525
11.6537
11.6548
11.6559
11.6569
11.6579
11.6588
11.6597
11.6605
11.6612
11.6619
11.6625
11.6631
11.6636
11.6641
11.6645
11.6649
11.6653
11.6656
11.6658
11.6651
11.6594
11.6443
11.6957
12.0773
9.39746
12.284
322.022
-110.705
15.4392
5.04314
2.10615
2.23836
2.35706
2.37952
2.38784
2.39684
2.4064
2.41598
2.4255
2.43494
2.4443
2.45358
2.46278
2.47188
2.48089
2.48979
2.49859
2.50729
2.51587
2.52434
2.53269
2.54093
2.54904
2.55702
2.56487
2.5726
2.58019
2.58764
2.59496
2.60213
2.60917
2.61606
2.6228
2.6294
2.63585
2.64215
2.6483
2.6543
2.66015
2.66585
2.6714
2.6768
2.68204
2.68714
2.69209
2.69689
2.70155
2.70606
2.71042
2.71464
2.71872
2.72266
2.72646
2.73012
2.73365
2.73705
2.74032
2.74345
2.74647
2.74936
2.75213
2.75478
2.75731
2.75973
2.76205
2.76425
2.76635
2.76834
2.77023
2.77203
2.77373
2.77534
2.77686
2.77829
2.77964
2.7809
2.78208
2.78319
2.78421
2.78517
2.78605
2.78686
2.7876
2.78828
2.78889
2.78944
2.78993
2.79041
2.79093
2.79123
2.78818
2.77326
2.78353
3.10097
2.86242
2.68797
321.245
-113.125
12.8003
2.46705
-0.421306
-0.274275
-0.151463
-0.126415
-0.115453
-0.103733
-0.0914478
-0.0791419
-0.0669219
-0.0547955
-0.0427659
-0.0308392
-0.0190226
-0.00732282
0.00425404
0.0157024
0.0270173
0.0381939
0.0492278
0.0601149
0.0708511
0.0814325
0.0918555
0.102116
0.112212
0.122138
0.131892
0.141471
0.150872
0.160092
0.16913
0.177982
0.186647
0.195124
0.20341
0.211505
0.219407
0.227117
0.234633
0.241955
0.249084
0.256019
0.262761
0.269311
0.27567
0.281838
0.287818
0.293609
0.299215
0.304637
0.309877
0.314936
0.319818
0.324525
0.329059
0.333423
0.33762
0.341652
0.345523
0.349236
0.352793
0.356198
0.359455
0.362566
0.365534
0.368364
0.371058
0.37362
0.376053
0.378361
0.380546
0.382612
0.384563
0.386401
0.388129
0.389751
0.39127
0.392688
0.394008
0.395233
0.396365
0.397407
0.398362
0.39923
0.400015
0.400717
0.401341
0.401918
0.402569
0.403442
0.403049
0.392616
0.367665
0.436099
0.497225
0.414881
321.284
-113.121
12.876
2.58241
-0.291261
-0.139529
-0.0140507
0.0136035
0.0272714
0.0417274
0.0567427
0.0717641
0.0866821
0.101488
0.116176
0.130738
0.145167
0.159454
0.173592
0.187573
0.201391
0.215041
0.228516
0.241812
0.254924
0.267847
0.280577
0.293108
0.305437
0.317559
0.329471
0.341168
0.352649
0.363908
0.374944
0.385754
0.396335
0.406685
0.416803
0.426688
0.436337
0.445751
0.454928
0.463869
0.472573
0.481042
0.489274
0.497272
0.505035
0.512567
0.519867
0.526939
0.533784
0.540403
0.546801
0.552978
0.558939
0.564686
0.570221
0.575549
0.580673
0.585596
0.590322
0.594855
0.599198
0.603355
0.607331
0.611129
0.614753
0.618207
0.621497
0.624624
0.627594
0.630412
0.633079
0.635602
0.637983
0.640227
0.642337
0.644317
0.64617
0.647901
0.649513
0.651008
0.65239
0.653662
0.654827
0.655888
0.656846
0.657703
0.658458
0.659121
0.65978
0.660744
0.662119
0.66041
0.646759
0.642584
0.64873
0.660094
321.329
-113.05
12.9711
2.68737
-0.182182
-0.0277749
0.100299
0.130647
0.147049
0.164241
0.181979
0.199708
0.217316
0.234791
0.252129
0.269319
0.286351
0.303217
0.319906
0.336411
0.352724
0.368838
0.384747
0.400445
0.415925
0.431182
0.44621
0.461004
0.475559
0.48987
0.503933
0.517742
0.531295
0.544587
0.557615
0.570375
0.582866
0.595085
0.607029
0.618697
0.630087
0.6412
0.652033
0.662587
0.672861
0.682857
0.692575
0.702015
0.711179
0.720069
0.728686
0.737033
0.745112
0.752926
0.760477
0.767769
0.774804
0.781587
0.78812
0.794409
0.800457
0.806267
0.811845
0.817195
0.82232
0.827227
0.831919
0.836401
0.840678
0.844755
0.848637
0.852328
0.855834
0.859158
0.862306
0.865283
0.868093
0.870741
0.873231
0.875567
0.877755
0.879797
0.881699
0.883463
0.885094
0.886596
0.88797
0.889222
0.890353
0.891366
0.892258
0.893025
0.893685
0.894416
0.895648
0.896947
0.894545
0.888393
0.877425
0.899164
321.339
-113.038
12.9888
2.70828
-0.158664
-0.00164358
0.129125
0.162206
0.181346
0.201265
0.221717
0.242144
0.262431
0.282567
0.302545
0.322353
0.341979
0.361413
0.380645
0.399665
0.418464
0.437034
0.455368
0.473458
0.491297
0.50888
0.526198
0.543247
0.56002
0.576512
0.592717
0.608631
0.624248
0.639565
0.654577
0.669282
0.683675
0.697754
0.711517
0.724962
0.738087
0.750891
0.763374
0.775535
0.787374
0.798891
0.810088
0.820965
0.831524
0.841767
0.851696
0.861313
0.870621
0.879623
0.888323
0.896724
0.90483
0.912644
0.920172
0.927417
0.934384
0.941078
0.947504
0.953667
0.959572
0.965225
0.97063
0.975794
0.980721
0.985418
0.989889
0.994141
0.998179
1.00201
1.00564
1.00906
1.0123
1.01535
1.01822
1.02091
1.02343
1.02578
1.02797
1.03001
1.03188
1.03361
1.0352
1.03664
1.03794
1.03911
1.04014
1.04103
1.04177
1.0424
1.04316
1.04435
1.04532
1.04364
1.02989
1.05338
321.341
-113.035
12.9946
2.7168
-0.147492
0.0122368
0.145741
0.18156
0.20343
0.226066
0.249221
0.272333
0.295289
0.318075
0.340682
0.363097
0.385306
0.407298
0.429062
0.450585
0.47186
0.492875
0.513624
0.534097
0.554286
0.574183
0.593783
0.613077
0.632058
0.650722
0.669061
0.687069
0.704743
0.722076
0.739064
0.755704
0.771991
0.787923
0.803497
0.81871
0.833562
0.848051
0.862176
0.875936
0.889332
0.902364
0.915033
0.92734
0.939288
0.950877
0.962112
0.972993
0.983525
0.99371
1.00355
1.01306
1.02223
1.03107
1.03959
1.04778
1.05567
1.06324
1.07051
1.07748
1.08416
1.09056
1.09667
1.10251
1.10809
1.1134
1.11846
1.12327
1.12784
1.13217
1.13627
1.14015
1.14381
1.14726
1.1505
1.15355
1.1564
1.15906
1.16154
1.16384
1.16596
1.16792
1.16971
1.17134
1.17281
1.17413
1.1753
1.17632
1.17718
1.17787
1.17845
1.17921
1.18068
1.18145
1.16309
1.19226
321.343
-113.031
13.001
2.7259
-0.135666
0.0267998
0.163041
0.201589
0.226177
0.251517
0.277362
0.303148
0.328761
0.354184
0.379407
0.404416
0.429197
0.453735
0.478018
0.502033
0.525771
0.549221
0.572372
0.595216
0.617743
0.639946
0.661815
0.683343
0.704523
0.725347
0.745809
0.765903
0.785622
0.804961
0.823916
0.842481
0.860653
0.878429
0.895804
0.912778
0.929348
0.945513
0.961271
0.976622
0.991567
1.00611
1.02024
1.03397
1.0473
1.06023
1.07276
1.0849
1.09665
1.10801
1.11899
1.12959
1.13982
1.14969
1.15919
1.16833
1.17712
1.18557
1.19368
1.20146
1.20891
1.21604
1.22286
1.22937
1.23559
1.24152
1.24716
1.25252
1.25762
1.26245
1.26702
1.27135
1.27543
1.27928
1.2829
1.28629
1.28947
1.29244
1.2952
1.29776
1.30013
1.30231
1.30431
1.30613
1.30777
1.30925
1.31055
1.3117
1.31267
1.31347
1.31406
1.31463
1.31616
1.31879
1.2939
1.3307
321.345
-113.027
13.0078
2.73548
-0.123353
0.0418462
0.180813
0.222077
0.249368
0.277399
0.30592
0.334367
0.362622
0.390669
0.418494
0.446084
0.473421
0.500491
0.52728
0.553775
0.579964
0.605834
0.631375
0.656578
0.681431
0.705925
0.730052
0.753803
0.777169
0.800142
0.822716
0.844883
0.866637
0.887972
0.908882
0.929362
0.949408
0.969017
0.988184
1.00691
1.02519
1.04302
1.0604
1.07733
1.09382
1.10986
1.12545
1.14059
1.15529
1.16955
1.18338
1.19677
1.20972
1.22226
1.23437
1.24606
1.25734
1.26822
1.2787
1.28878
1.29848
1.3078
1.31674
1.32532
1.33353
1.3414
1.34892
1.3561
1.36296
1.36949
1.37571
1.38163
1.38725
1.39257
1.39762
1.40239
1.40689
1.41113
1.41512
1.41886
1.42237
1.42564
1.42869
1.43151
1.43412
1.43653
1.43873
1.44073
1.44255
1.44417
1.44561
1.44687
1.44795
1.44885
1.44951
1.45001
1.45161
1.45606
1.42453
1.46891
321.346
-113.023
13.0147
2.74508
-0.111026
0.0568916
0.198569
0.242533
0.272513
0.30322
0.334402
0.365493
0.396375
0.42703
0.457443
0.487598
0.517477
0.547065
0.576345
0.605305
0.633929
0.662206
0.690123
0.71767
0.744835
0.771608
0.797979
0.823939
0.849478
0.874588
0.899261
0.923489
0.947265
0.970583
0.993437
1.01582
1.03773
1.05916
1.08011
1.10057
1.12055
1.14003
1.15903
1.17754
1.19555
1.21308
1.23012
1.24667
1.26273
1.27832
1.29342
1.30805
1.32221
1.33591
1.34914
1.36192
1.37425
1.38613
1.39758
1.4086
1.41919
1.42937
1.43914
1.44851
1.45749
1.46608
1.4743
1.48215
1.48964
1.49678
1.50357
1.51003
1.51617
1.52199
1.5275
1.53271
1.53763
1.54226
1.54662
1.55071
1.55453
1.55811
1.56144
1.56452
1.56738
1.57
1.57241
1.5746
1.57657
1.57835
1.57992
1.5813
1.58248
1.58347
1.5842
1.58468
1.58631
1.59246
1.55514
1.60613
321.348
-113.019
13.0215
2.75462
-0.0987808
0.0718393
0.216211
0.262858
0.29551
0.328876
0.362702
0.396421
0.429914
0.46316
0.496144
0.528847
0.561253
0.593341
0.625097
0.656505
0.687549
0.718217
0.748495
0.778371
0.807834
0.83687
0.865471
0.893626
0.921324
0.948556
0.975315
1.00159
1.02738
1.05266
1.07745
1.10172
1.12548
1.14872
1.17144
1.19363
1.21529
1.23642
1.25702
1.27709
1.29663
1.31563
1.3341
1.35205
1.36947
1.38637
1.40275
1.41861
1.43396
1.44881
1.46316
1.47701
1.49038
1.50326
1.51568
1.52762
1.53911
1.55014
1.56073
1.57089
1.58062
1.58994
1.59885
1.60735
1.61547
1.62321
1.63058
1.63758
1.64423
1.65054
1.65651
1.66216
1.66749
1.67251
1.67723
1.68166
1.68581
1.68968
1.69329
1.69663
1.69973
1.70257
1.70518
1.70755
1.7097
1.71162
1.71332
1.71481
1.7161
1.71717
1.71797
1.71844
1.72008
1.72763
1.68573
1.74206
321.349
-113.015
13.0283
2.76409
-0.0866237
0.0866808
0.233728
0.283041
0.318346
0.354353
0.390805
0.427134
0.463219
0.499038
0.534575
0.56981
0.604723
0.639296
0.67351
0.707349
0.740796
0.773839
0.806461
0.83865
0.870393
0.901677
0.932492
0.962826
0.992668
1.02201
1.05084
1.07914
1.10692
1.13417
1.16087
1.18702
1.21262
1.23765
1.26212
1.28603
1.30937
1.33213
1.35432
1.37594
1.39698
1.41745
1.43735
1.45668
1.47545
1.49365
1.51129
1.52838
1.54491
1.56091
1.57636
1.59128
1.60568
1.61956
1.63292
1.64579
1.65816
1.67004
1.68145
1.69239
1.70287
1.7129
1.72249
1.73165
1.74039
1.74872
1.75665
1.76419
1.77136
1.77815
1.78458
1.79066
1.79639
1.8018
1.80689
1.81166
1.81612
1.82029
1.82417
1.82777
1.8311
1.83417
1.83697
1.83953
1.84184
1.8439
1.84574
1.84734
1.84873
1.84988
1.85075
1.85124
1.85286
1.86145
1.81624
1.87658
321.35
-113.011
13.035
2.77348
-0.0745582
0.101411
0.251115
0.303073
0.341013
0.379641
0.418699
0.457619
0.496277
0.53465
0.57272
0.610467
0.64787
0.684907
0.721561
0.757812
0.793645
0.829043
0.863992
0.898476
0.932483
0.965998
0.99901
1.03151
1.06347
1.09491
1.12579
1.15611
1.18587
1.21506
1.24366
1.27167
1.29909
1.32591
1.35212
1.37773
1.40273
1.42711
1.45088
1.47403
1.49657
1.5185
1.53981
1.56052
1.58061
1.60011
1.619
1.6373
1.65501
1.67214
1.68869
1.70467
1.72008
1.73495
1.74926
1.76303
1.77628
1.78901
1.80122
1.81293
1.82415
1.83489
1.84516
1.85497
1.86433
1.87325
1.88174
1.88982
1.89748
1.90475
1.91163
1.91814
1.92429
1.93007
1.93551
1.94062
1.9454
1.94986
1.95402
1.95787
1.96144
1.96472
1.96772
1.97045
1.97292
1.97514
1.9771
1.97882
1.9803
1.98154
1.98247
1.98299
1.98459
1.99385
1.94655
2.00966
321.352
-113.007
13.0417
2.78279
-0.0625903
0.116023
0.268361
0.322945
0.363498
0.404725
0.446369
0.487859
0.529069
0.569975
0.610559
0.650798
0.690669
0.730151
0.769225
0.807869
0.846068
0.883803
0.921059
0.95782
0.994072
1.0298
1.06499
1.09963
1.13371
1.16721
1.20013
1.23246
1.26418
1.29529
1.32578
1.35564
1.38486
1.41345
1.44139
1.46868
1.49532
1.52131
1.54665
1.57132
1.59535
1.61871
1.64143
1.6635
1.68491
1.70569
1.72582
1.74532
1.7642
1.78245
1.80008
1.81711
1.83354
1.84937
1.86463
1.8793
1.89342
1.90698
1.91999
1.93247
1.94442
1.95587
1.96681
1.97726
1.98723
1.99673
2.00577
2.01437
2.02254
2.03028
2.03762
2.04455
2.05109
2.05725
2.06305
2.06849
2.07358
2.07833
2.08276
2.08686
2.09066
2.09415
2.09735
2.10026
2.10289
2.10525
2.10734
2.10917
2.11075
2.11207
2.11307
2.11363
2.11521
2.12482
2.07647
2.14126
321.353
-113.003
13.0483
2.79203
-0.0507266
0.130508
0.285459
0.342645
0.385788
0.429594
0.473801
0.517838
0.561578
0.604996
0.648072
0.69078
0.733099
0.775005
0.816477
0.857495
0.898038
0.93809
0.977634
1.01665
1.05513
1.09305
1.1304
1.16717
1.20334
1.2389
1.27384
1.30814
1.34181
1.37483
1.40718
1.43887
1.46989
1.50022
1.52988
1.55884
1.58711
1.61469
1.64157
1.66776
1.69325
1.71805
1.74215
1.76557
1.78829
1.81034
1.8317
1.85239
1.87242
1.89178
1.91049
1.92856
1.94598
1.96278
1.97896
1.99454
2.00951
2.02389
2.03769
2.05093
2.06361
2.07575
2.08735
2.09844
2.10901
2.11909
2.12868
2.1378
2.14646
2.15468
2.16245
2.1698
2.17674
2.18328
2.18942
2.19519
2.20059
2.20563
2.21032
2.21467
2.2187
2.2224
2.22579
2.22888
2.23167
2.23417
2.23639
2.23833
2.24
2.2414
2.24248
2.24308
2.24465
2.25434
2.20583
2.27137
321.354
-112.999
13.0548
2.80117
-0.0389736
0.144859
0.302398
0.362162
0.407873
0.454233
0.50098
0.547541
0.593788
0.639695
0.685238
0.730395
0.775139
0.819446
0.863294
0.906662
0.94953
0.991877
1.03369
1.07494
1.11562
1.15571
1.1952
1.23408
1.27232
1.30991
1.34685
1.38313
1.41872
1.45362
1.48783
1.52133
1.55412
1.58619
1.61754
1.64816
1.67804
1.7072
1.73561
1.76329
1.79024
1.81645
1.84193
1.86668
1.8907
1.914
1.93658
1.95845
1.97961
2.00008
2.01985
2.03894
2.05736
2.07511
2.09221
2.10867
2.12449
2.13969
2.15427
2.16826
2.18166
2.19448
2.20674
2.21845
2.22963
2.24027
2.25041
2.26004
2.26919
2.27787
2.28608
2.29385
2.30117
2.30808
2.31457
2.32066
2.32636
2.33169
2.33664
2.34124
2.34549
2.3494
2.35298
2.35625
2.35919
2.36184
2.36418
2.36623
2.36799
2.36947
2.37062
2.37127
2.37283
2.38238
2.33445
2.39997
321.356
-112.995
13.0613
2.81023
-0.027337
0.159068
0.31917
0.381488
0.429741
0.47863
0.527893
0.576953
0.625683
0.674053
0.722041
0.769621
0.816767
0.863452
0.909654
0.955349
1.00052
1.04514
1.08919
1.13266
1.17552
1.21777
1.25937
1.30033
1.34062
1.38024
1.41915
1.45737
1.49487
1.53164
1.56768
1.60298
1.63752
1.67131
1.70433
1.73659
1.76807
1.79878
1.82872
1.85788
1.88626
1.91387
1.94071
1.96678
1.99208
2.01662
2.04041
2.06344
2.08573
2.10728
2.12811
2.14822
2.16761
2.18631
2.20432
2.22165
2.23831
2.25431
2.26967
2.2844
2.29851
2.31201
2.32492
2.33725
2.34901
2.36022
2.37089
2.38103
2.39066
2.39979
2.40844
2.41661
2.42433
2.4316
2.43843
2.44484
2.45084
2.45644
2.46166
2.4665
2.47097
2.47509
2.47886
2.48229
2.48539
2.48817
2.49064
2.4928
2.49466
2.49622
2.49743
2.49814
2.49969
2.50894
2.46215
2.52704
321.357
-112.991
13.0677
2.81919
-0.0158224
0.173128
0.335768
0.400613
0.451382
0.502774
0.554526
0.60606
0.657247
0.708056
0.758464
0.808442
0.857964
0.907003
0.955533
1.00353
1.05098
1.09785
1.14412
1.18978
1.2348
1.27917
1.32288
1.3659
1.40822
1.44983
1.4907
1.53084
1.57023
1.60885
1.6467
1.68377
1.72005
1.75554
1.79022
1.82409
1.85716
1.88941
1.92085
1.95147
1.98128
2.01027
2.03845
2.06582
2.09239
2.11816
2.14313
2.16732
2.19072
2.21335
2.23522
2.25633
2.27669
2.29632
2.31522
2.33342
2.3509
2.3677
2.38383
2.39929
2.41409
2.42827
2.44181
2.45475
2.4671
2.47886
2.49006
2.50071
2.51081
2.5204
2.52947
2.53805
2.54614
2.55377
2.56094
2.56766
2.57396
2.57984
2.58531
2.59039
2.59508
2.5994
2.60335
2.60696
2.61021
2.61313
2.61572
2.61798
2.61993
2.62157
2.62284
2.62363
2.62517
2.63398
2.58878
2.65255
321.358
-112.987
13.0741
2.82805
-0.00443447
0.187035
0.352183
0.419529
0.472786
0.526655
0.580869
0.63485
0.688467
0.741688
0.794489
0.84684
0.898712
0.950079
1.00091
1.05119
1.10089
1.14998
1.19845
1.24627
1.29343
1.33991
1.38569
1.43075
1.47508
1.51865
1.56147
1.60351
1.64476
1.68521
1.72486
1.76368
1.80167
1.83884
1.87516
1.91063
1.94526
1.97903
2.01196
2.04402
2.07524
2.1056
2.1351
2.16377
2.19159
2.21857
2.24471
2.27004
2.29454
2.31823
2.34112
2.36323
2.38454
2.40509
2.42488
2.44392
2.46223
2.47981
2.49669
2.51287
2.52837
2.5432
2.55738
2.57093
2.58385
2.59616
2.60787
2.61901
2.62959
2.63962
2.64911
2.65808
2.66655
2.67453
2.68203
2.68907
2.69566
2.70181
2.70753
2.71284
2.71775
2.72227
2.72641
2.73018
2.73358
2.73664
2.73934
2.74171
2.74376
2.74547
2.74681
2.74766
2.7492
2.7575
2.71418
2.7765
321.36
-112.983
13.0803
2.83681
0.00682213
0.200781
0.36841
0.438227
0.493945
0.550262
0.60691
0.66331
0.719329
0.774936
0.830102
0.884798
0.938994
0.992661
1.04577
1.0983
1.15022
1.20152
1.25216
1.30212
1.35139
1.39995
1.44778
1.49485
1.54116
1.58669
1.63142
1.67534
1.71843
1.76069
1.80211
1.84266
1.88235
1.92117
1.95911
1.99617
2.03234
2.06762
2.102
2.1355
2.1681
2.19981
2.23063
2.26056
2.28962
2.31779
2.3451
2.37155
2.39713
2.42188
2.44578
2.46886
2.49112
2.51258
2.53324
2.55312
2.57223
2.59059
2.60821
2.6251
2.64128
2.65677
2.67157
2.68571
2.69919
2.71204
2.72427
2.7359
2.74694
2.7574
2.76731
2.77668
2.78551
2.79384
2.80167
2.80901
2.81588
2.8223
2.82828
2.83382
2.83894
2.84366
2.84797
2.8519
2.85546
2.85864
2.86147
2.86394
2.86607
2.86786
2.86927
2.87019
2.87172
2.87945
2.83821
2.89886
321.361
-112.98
13.0865
2.84546
0.0179431
0.214361
0.384442
0.456701
0.51485
0.573585
0.632638
0.691428
0.749821
0.807784
0.865288
0.922301
0.978793
1.03473
1.09009
1.14485
1.19897
1.25243
1.30522
1.3573
1.40866
1.45927
1.50912
1.55819
1.60646
1.65391
1.70053
1.7463
1.79122
1.83526
1.87842
1.92069
1.96205
2.00251
2.04205
2.08066
2.11836
2.15512
2.19095
2.22585
2.25983
2.29287
2.32498
2.35617
2.38644
2.4158
2.44425
2.4718
2.49846
2.52424
2.54914
2.57318
2.59637
2.61872
2.64025
2.66096
2.68087
2.69999
2.71834
2.73593
2.75278
2.76891
2.78433
2.79905
2.81309
2.82647
2.83921
2.85131
2.8628
2.8737
2.88402
2.89377
2.90297
2.91163
2.91978
2.92743
2.93458
2.94126
2.94748
2.95325
2.95858
2.96349
2.96798
2.97208
2.97578
2.97909
2.98203
2.98461
2.98683
2.98869
2.99016
2.99115
2.99268
2.99981
2.96076
3.0196
321.362
-112.976
13.0926
2.854
0.0289244
0.227772
0.400273
0.474943
0.535492
0.596616
0.658044
0.719195
0.779932
0.840221
0.900032
0.959334
1.01809
1.07628
1.13386
1.19081
1.2471
1.30271
1.35761
1.41178
1.4652
1.51784
1.56969
1.62072
1.67092
1.72028
1.76876
1.81637
1.86308
1.90888
1.95377
1.99772
2.04074
2.08281
2.12393
2.16408
2.20328
2.24151
2.27876
2.31506
2.35038
2.38473
2.41812
2.45055
2.48202
2.51255
2.54213
2.57077
2.59848
2.62528
2.65117
2.67616
2.70026
2.72349
2.74586
2.76739
2.78808
2.80796
2.82703
2.84531
2.86282
2.87958
2.8956
2.9109
2.92549
2.93939
2.95262
2.9652
2.97714
2.98846
2.99918
3.0093
3.01886
3.02787
3.03633
3.04427
3.0517
3.05864
3.0651
3.07109
3.07663
3.08173
3.08639
3.09064
3.09449
3.09793
3.10099
3.10366
3.10597
3.1079
3.10944
3.11049
3.11202
3.11855
3.08172
3.13869
321.363
-112.972
13.0987
2.86244
0.039762
0.241006
0.415897
0.492946
0.555865
0.619346
0.683118
0.746598
0.809648
0.872234
0.934323
0.995882
1.05688
1.11728
1.17705
1.23617
1.29461
1.35233
1.40932
1.46555
1.521
1.57564
1.62946
1.68244
1.73454
1.78577
1.8361
1.88551
1.93399
1.98153
2.02812
2.07374
2.11838
2.16204
2.20472
2.24639
2.28707
2.32674
2.36541
2.40306
2.43972
2.47537
2.51002
2.54366
2.57632
2.60799
2.63868
2.6684
2.69715
2.72495
2.75181
2.77773
2.80274
2.82684
2.85005
2.87237
2.89384
2.91445
2.93423
2.95319
2.97135
2.98873
3.00535
3.02121
3.03634
3.05076
3.06448
3.07752
3.0899
3.10163
3.11274
3.12324
3.13315
3.14248
3.15126
3.15949
3.16719
3.17438
3.18108
3.18729
3.19303
3.19831
3.20315
3.20756
3.21154
3.21511
3.21828
3.22105
3.22344
3.22545
3.22705
3.22817
3.2297
3.23564
3.20098
3.25611
321.364
-112.969
13.1046
2.87075
0.0504522
0.254061
0.431308
0.510705
0.575961
0.641767
0.707851
0.773628
0.83896
0.90381
0.968146
1.03193
1.09514
1.15772
1.21966
1.28091
1.34146
1.40127
1.46032
1.51859
1.57604
1.63265
1.68842
1.7433
1.79729
1.85036
1.9025
1.9537
2.00393
2.05318
2.10144
2.1487
2.19495
2.24018
2.28439
2.32756
2.36969
2.41079
2.45084
2.48985
2.52781
2.56474
2.60062
2.63547
2.6693
2.7021
2.73388
2.76465
2.79443
2.82322
2.85103
2.87788
2.90377
2.92872
2.95275
2.97586
2.99808
3.01943
3.0399
3.05953
3.07834
3.09633
3.11352
3.12994
3.1456
3.16052
3.17472
3.18822
3.20103
3.21317
3.22467
3.23553
3.24579
3.25544
3.26452
3.27304
3.28101
3.28845
3.29537
3.3018
3.30774
3.3132
3.31821
3.32277
3.32689
3.33058
3.33386
3.33673
3.3392
3.34128
3.34294
3.34413
3.34566
3.35104
3.31847
3.37181
321.366
-112.965
13.1105
2.87895
0.0609914
0.266931
0.446501
0.528212
0.595772
0.66387
0.732233
0.800275
0.867857
0.93494
1.00149
1.06747
1.13285
1.19759
1.26165
1.32502
1.38765
1.44952
1.5106
1.57086
1.63029
1.68885
1.74653
1.8033
1.85914
1.91403
1.96796
2.02091
2.07286
2.1238
2.17371
2.22259
2.27042
2.31719
2.36291
2.40755
2.45112
2.49362
2.53503
2.57537
2.61463
2.65281
2.68991
2.72594
2.76091
2.79482
2.82768
2.8595
2.89028
2.92004
2.94879
2.97654
3.00331
3.0291
3.05393
3.07782
3.10079
3.12285
3.14401
3.1643
3.18372
3.20231
3.22008
3.23705
3.25323
3.26864
3.28331
3.29726
3.31049
3.32304
3.33491
3.34614
3.35673
3.3667
3.37608
3.38487
3.3931
3.40079
3.40794
3.41458
3.42071
3.42635
3.43152
3.43623
3.44049
3.4443
3.44769
3.45065
3.45321
3.45536
3.45708
3.45832
3.45986
3.4647
3.43413
3.48577
321.367
-112.962
13.1163
2.88703
0.0713758
0.279612
0.461471
0.545462
0.615292
0.685649
0.756257
0.826531
0.896329
0.965611
1.03434
1.10249
1.17001
1.23687
1.30303
1.36847
1.43315
1.49705
1.56013
1.62237
1.68374
1.74422
1.80378
1.8624
1.92007
1.97675
2.03244
2.08712
2.14076
2.19336
2.2449
2.29537
2.34475
2.39305
2.44025
2.48635
2.53133
2.5752
2.61796
2.6596
2.70013
2.73954
2.77785
2.81504
2.85114
2.88614
2.92006
2.9529
2.98467
3.01539
3.04506
3.0737
3.10132
3.12793
3.15356
3.17822
3.20191
3.22467
3.24651
3.26744
3.28748
3.30666
3.32499
3.34249
3.35918
3.37508
3.39021
3.40459
3.41824
3.43118
3.44343
3.455
3.46593
3.47621
3.48588
3.49495
3.50344
3.51136
3.51873
3.52558
3.5319
3.53772
3.54305
3.5479
3.55229
3.55623
3.55972
3.56278
3.56541
3.56762
3.5694
3.57071
3.57226
3.57661
3.54788
3.59794
321.368
-112.959
13.1219
2.89499
0.0816022
0.2921
0.476213
0.56245
0.634514
0.707095
0.779915
0.852385
0.924365
0.995813
1.06669
1.13697
1.2066
1.27555
1.34378
1.41126
1.47796
1.54385
1.6089
1.67308
1.73636
1.79873
1.86014
1.92059
1.98006
2.03851
2.09593
2.1523
2.20761
2.26184
2.31498
2.36702
2.41793
2.46773
2.51639
2.56391
2.61028
2.65551
2.69959
2.74251
2.78429
2.82492
2.8644
2.90274
2.93994
2.97602
3.01098
3.04482
3.07756
3.10922
3.13979
3.16931
3.19777
3.22519
3.2516
3.277
3.30142
3.32486
3.34736
3.36892
3.38957
3.40932
3.4282
3.44623
3.46342
3.4798
3.49538
3.51019
3.52425
3.53757
3.55018
3.5621
3.57335
3.58394
3.59389
3.60323
3.61197
3.62012
3.62772
3.63476
3.64127
3.64726
3.65275
3.65774
3.66226
3.66631
3.66991
3.67306
3.67577
3.67805
3.67989
3.68125
3.68281
3.68671
3.65969
3.7083
321.369
-112.955
13.1275
2.90282
0.0916672
0.304391
0.490722
0.579168
0.653432
0.728201
0.803197
0.87783
0.951957
1.02554
1.09853
1.1709
1.24261
1.31361
1.38388
1.45337
1.52206
1.58991
1.65689
1.72298
1.78815
1.85237
1.91561
1.97786
2.03908
2.09927
2.15839
2.21644
2.27339
2.32923
2.38394
2.43751
2.48993
2.5412
2.59129
2.64021
2.68796
2.73452
2.77989
2.82408
2.86708
2.9089
2.94954
2.989
3.02729
3.06442
3.1004
3.13523
3.16893
3.2015
3.23297
3.26334
3.29262
3.32084
3.34801
3.37415
3.39927
3.42339
3.44653
3.46871
3.48995
3.51027
3.52969
3.54823
3.56592
3.58276
3.59879
3.61402
3.62847
3.64217
3.65514
3.66739
3.67895
3.68984
3.70008
3.70968
3.71866
3.72704
3.73485
3.74209
3.74878
3.75494
3.76058
3.76571
3.77036
3.77452
3.77822
3.78146
3.78425
3.78659
3.78849
3.78991
3.79147
3.79497
3.76951
3.81679
321.37
-112.952
13.133
2.91053
0.101568
0.316481
0.504994
0.595613
0.672041
0.748962
0.826098
0.902858
0.979097
1.05477
1.12984
1.20427
1.27802
1.35105
1.42331
1.49478
1.56542
1.6352
1.70409
1.77206
1.83908
1.90512
1.97016
2.03417
2.09713
2.15902
2.21982
2.27951
2.33807
2.39548
2.45174
2.50683
2.56073
2.61343
2.66494
2.71524
2.76432
2.81219
2.85884
2.90426
2.94847
2.99146
3.03323
3.0738
3.11316
3.15133
3.1883
3.2241
3.25874
3.29222
3.32455
3.35576
3.38586
3.41485
3.44277
3.46963
3.49544
3.52022
3.54399
3.56678
3.5886
3.60948
3.62942
3.64847
3.66663
3.68393
3.70039
3.71603
3.73087
3.74494
3.75826
3.77084
3.78271
3.79389
3.8044
3.81425
3.82347
3.83208
3.84009
3.84753
3.8544
3.86072
3.86651
3.87178
3.87655
3.88082
3.88462
3.88794
3.89081
3.89322
3.89517
3.89665
3.89822
3.90135
3.87732
3.9234
321.371
-112.949
13.1385
2.9181
0.111301
0.328366
0.519023
0.611779
0.690334
0.769371
0.84861
0.92746
1.00578
1.08351
1.16063
1.23708
1.31283
1.38785
1.46208
1.53549
1.60805
1.67973
1.75049
1.8203
1.88914
1.95697
2.02377
2.08952
2.15418
2.21775
2.28019
2.34149
2.40163
2.4606
2.51837
2.57494
2.63029
2.68442
2.73731
2.78896
2.83936
2.88851
2.93641
2.98305
3.02844
3.07258
3.11547
3.15711
3.19752
3.2367
3.27466
3.31141
3.34696
3.38132
3.41451
3.44655
3.47743
3.50719
3.53584
3.5634
3.58989
3.61532
3.63971
3.66309
3.68548
3.7069
3.72736
3.7469
3.76553
3.78327
3.80016
3.8162
3.83142
3.84585
3.85951
3.87241
3.88459
3.89605
3.90682
3.91693
3.92638
3.93521
3.94342
3.95104
3.95809
3.96457
3.9705
3.97591
3.9808
3.98518
3.98907
3.99248
3.99542
3.99789
3.99989
4.00143
4.00301
4.00583
3.98307
4.02807
321.372
-112.945
13.1438
2.92555
0.120863
0.340043
0.532807
0.627662
0.708305
0.789421
0.870727
0.951631
1.03198
1.11174
1.19087
1.26931
1.34703
1.424
1.50016
1.57548
1.64992
1.72346
1.79606
1.86768
1.93831
2.0079
2.07643
2.14388
2.21022
2.27543
2.33949
2.40237
2.46406
2.52455
2.58381
2.64184
2.69862
2.75413
2.80838
2.86136
2.91305
2.96346
3.01258
3.06042
3.10696
3.15223
3.19621
3.23891
3.28035
3.32052
3.35944
3.39712
3.43357
3.4688
3.50283
3.53567
3.56733
3.59784
3.62721
3.65545
3.6826
3.70866
3.73366
3.75762
3.78057
3.80251
3.82348
3.8435
3.86259
3.88077
3.89806
3.9145
3.9301
3.94488
3.95886
3.97208
3.98455
3.99629
4.00732
4.01767
4.02735
4.03639
4.0448
4.05261
4.05982
4.06646
4.07253
4.07807
4.08308
4.08757
4.09155
4.09504
4.09805
4.10059
4.10264
4.10422
4.10582
4.10836
4.08675
4.13079
321.373
-112.942
13.149
2.93285
0.130253
0.351508
0.546342
0.643257
0.725952
0.809108
0.892443
0.975362
1.05772
1.13946
1.22056
1.30095
1.38061
1.45949
1.53754
1.61474
1.69103
1.7664
1.8408
1.9142
1.98658
2.05789
2.12812
2.19724
2.26523
2.33205
2.39769
2.46213
2.52534
2.58732
2.64805
2.7075
2.76567
2.82256
2.87814
2.93241
2.98537
3.03701
3.08734
3.13634
3.18402
3.23039
3.27544
3.31918
3.36162
3.40277
3.44263
3.48122
3.51855
3.55463
3.58947
3.6231
3.65552
3.68676
3.71683
3.74575
3.77354
3.80022
3.82582
3.85035
3.87383
3.89629
3.91776
3.93825
3.95778
3.97639
3.99409
4.0109
4.02686
4.04198
4.0563
4.06982
4.08257
4.09458
4.10587
4.11646
4.12636
4.13561
4.14421
4.15219
4.15957
4.16635
4.17257
4.17823
4.18336
4.18795
4.19203
4.1956
4.19868
4.20127
4.20338
4.205
4.20661
4.20891
4.18834
4.23151
321.374
-112.939
13.1541
2.94003
0.139467
0.362759
0.559623
0.65856
0.743268
0.828426
0.913752
0.998649
1.08297
1.16666
1.24969
1.332
1.41356
1.49431
1.57423
1.65326
1.73137
1.80853
1.8847
1.95984
2.03394
2.10694
2.17884
2.2496
2.31919
2.3876
2.45479
2.52075
2.58546
2.6489
2.71105
2.77191
2.83145
2.88967
2.94655
3.0021
3.0563
3.10915
3.16065
3.2108
3.25959
3.30704
3.35313
3.39789
3.44132
3.48342
3.5242
3.56368
3.60187
3.63878
3.67443
3.70882
3.74199
3.77394
3.80469
3.83427
3.86269
3.88998
3.91616
3.94124
3.96525
3.98822
4.01016
4.03111
4.05108
4.0701
4.08819
4.10538
4.1217
4.13715
4.15178
4.1656
4.17863
4.19091
4.20244
4.21326
4.22338
4.23282
4.24161
4.24977
4.2573
4.26424
4.27059
4.27638
4.28161
4.2863
4.29047
4.29412
4.29727
4.29992
4.30208
4.30375
4.30537
4.30745
4.28783
4.33021
321.375
-112.936
13.1592
2.94706
0.148504
0.373794
0.572648
0.673568
0.760249
0.847372
0.934649
1.02149
1.10773
1.19334
1.27826
1.36245
1.44587
1.52846
1.6102
1.69103
1.77092
1.84984
1.92774
2.00459
2.08037
2.15504
2.22857
2.30093
2.3721
2.44206
2.51077
2.57822
2.64439
2.70926
2.77282
2.83505
2.89593
2.95545
3.01362
3.07041
3.12583
3.17986
3.23251
3.28378
3.33366
3.38216
3.42928
3.47503
3.51942
3.56245
3.60414
3.64449
3.68352
3.72124
3.75767
3.79282
3.82671
3.85935
3.89078
3.921
3.95004
3.97792
4.00465
4.03028
4.05481
4.07827
4.10068
4.12207
4.14247
4.16189
4.18037
4.19792
4.21458
4.23036
4.24529
4.2594