/*--------------------------------*- C++ -*----------------------------------*\
  =========                 |
  \\      /  F ield         | OpenFOAM: The Open Source CFD Toolbox
   \\    /   O peration     | Website:  https://openfoam.org
    \\  /    A nd           | Version:  10
     \\/     M anipulation  |
\*---------------------------------------------------------------------------*/
FoamFile
{
    format      ascii;
    class       volScalarField;
    location    "27.5";
    object      T;
}
// * * * * * * * * * * * * * * * * * * * * * * * * * * * * * * * * * * * * * //

dimensions      [0 0 0 1 0 0 0];

internalField   nonuniform List<scalar> 
10000
(
374.984
361.283
356.598
354.543
353.426
352.719
352.226
351.857
351.567
351.332
351.135
350.966
350.818
350.688
350.57
350.464
350.366
350.275
350.191
350.112
350.038
349.968
349.901
349.837
349.776
349.717
349.66
349.606
349.553
349.503
349.453
349.405
349.359
349.314
349.27
349.227
349.185
349.145
349.105
349.066
349.028
348.991
348.955
348.92
348.886
348.852
348.82
348.787
348.756
348.726
348.696
348.667
348.638
348.611
348.584
348.557
348.532
348.507
348.482
348.458
348.435
348.413
348.391
348.37
348.349
348.329
348.31
348.291
348.273
348.256
348.239
348.223
348.207
348.192
348.177
348.164
348.15
348.138
348.125
348.114
348.103
348.092
348.083
348.073
348.065
348.057
348.049
348.042
348.036
348.03
348.024
348.02
348.015
348.012
348.009
348.006
348.004
348.003
348.002
348.002
388.607
374.833
367.164
362.687
359.863
357.943
356.55
355.488
354.645
353.955
353.373
352.873
352.436
352.048
351.698
351.38
351.088
350.818
350.567
350.331
350.108
349.897
349.697
349.506
349.323
349.147
348.978
348.815
348.657
348.505
348.357
348.213
348.074
347.939
347.807
347.678
347.553
347.431
347.312
347.196
347.083
346.972
346.864
346.759
346.656
346.555
346.457
346.36
346.267
346.175
346.086
345.998
345.913
345.83
345.749
345.67
345.593
345.518
345.445
345.374
345.304
345.237
345.172
345.108
345.047
344.987
344.929
344.873
344.818
344.766
344.715
344.667
344.62
344.574
344.531
344.489
344.449
344.411
344.375
344.34
344.307
344.276
344.246
344.218
344.192
344.168
344.145
344.124
344.105
344.088
344.072
344.058
344.045
344.034
344.025
344.018
344.012
344.008
344.005
344.004
393.218
382.281
374.538
369.18
365.4
362.639
360.546
358.903
357.574
356.47
355.532
354.721
354.007
353.371
352.797
352.273
351.792
351.345
350.929
350.538
350.169
349.819
349.487
349.169
348.865
348.573
348.292
348.021
347.759
347.505
347.259
347.02
346.789
346.563
346.344
346.13
345.922
345.719
345.521
345.327
345.138
344.954
344.774
344.598
344.427
344.259
344.095
343.935
343.779
343.626
343.477
343.332
343.19
343.052
342.916
342.785
342.656
342.531
342.41
342.291
342.176
342.064
341.955
341.849
341.746
341.647
341.55
341.457
341.366
341.279
341.195
341.113
341.035
340.96
340.887
340.818
340.751
340.687
340.627
340.569
340.514
340.462
340.413
340.367
340.323
340.283
340.245
340.21
340.178
340.149
340.122
340.098
340.078
340.06
340.044
340.032
340.022
340.015
340.011
340.01
395.2
386.537
379.528
374.096
369.917
366.668
364.091
362.004
360.277
358.819
357.566
356.471
355.502
354.633
353.846
353.126
352.461
351.844
351.267
350.725
350.213
349.727
349.264
348.822
348.398
347.991
347.599
347.22
346.855
346.501
346.157
345.824
345.5
345.185
344.879
344.58
344.289
344.005
343.728
343.457
343.194
342.936
342.684
342.438
342.198
341.964
341.734
341.511
341.292
341.079
340.87
340.667
340.468
340.274
340.086
339.901
339.722
339.547
339.376
339.211
339.049
338.892
338.74
338.592
338.448
338.309
338.174
338.043
337.917
337.794
337.676
337.563
337.453
337.347
337.246
337.149
337.056
336.967
336.882
336.801
336.724
336.651
336.582
336.518
336.457
336.4
336.347
336.298
336.253
336.212
336.175
336.142
336.113
336.088
336.067
336.049
336.036
336.026
336.02
336.019
396.244
389.14
382.94
377.759
373.507
370.024
367.149
364.748
362.713
360.966
359.443
358.099
356.899
355.816
354.83
353.925
353.087
352.306
351.574
350.885
350.234
349.615
349.024
348.46
347.918
347.398
346.896
346.412
345.944
345.49
345.05
344.623
344.208
343.804
343.411
343.027
342.654
342.29
341.934
341.587
341.248
340.918
340.594
340.279
339.97
339.669
339.375
339.087
338.807
338.533
338.265
338.004
337.749
337.5
337.257
337.02
336.79
336.565
336.346
336.133
335.926
335.724
335.528
335.338
335.153
334.974
334.801
334.633
334.47
334.313
334.162
334.015
333.875
333.739
333.609
333.484
333.364
333.25
333.141
333.037
332.938
332.844
332.756
332.673
332.595
332.522
332.454
332.391
332.333
332.281
332.233
332.191
332.153
332.121
332.093
332.071
332.054
332.041
332.034
332.032
396.877
390.84
385.333
380.494
376.329
372.772
369.734
367.125
364.865
362.889
361.143
359.585
358.181
356.906
355.738
354.659
353.658
352.722
351.843
351.013
350.226
349.478
348.764
348.08
347.423
346.791
346.182
345.593
345.024
344.472
343.936
343.416
342.911
342.419
341.939
341.472
341.017
340.573
340.139
339.716
339.303
338.899
338.505
338.12
337.744
337.376
337.017
336.666
336.323
335.989
335.662
335.343
335.032
334.728
334.432
334.143
333.861
333.587
333.319
333.059
332.806
332.56
332.321
332.089
331.863
331.644
331.433
331.227
331.029
330.837
330.652
330.473
330.301
330.136
329.977
329.824
329.678
329.538
329.405
329.278
329.157
329.043
328.935
328.834
328.738
328.649
328.566
328.489
328.419
328.355
328.297
328.245
328.199
328.159
328.126
328.098
328.077
328.062
328.053
328.05
397.297
392.012
387.059
382.557
378.543
375.004
371.893
369.155
366.736
364.584
362.658
360.919
359.339
357.892
356.558
355.322
354.168
353.086
352.066
351.102
350.186
349.313
348.478
347.678
346.909
346.168
345.453
344.762
344.093
343.445
342.815
342.203
341.608
341.028
340.464
339.914
339.377
338.854
338.343
337.844
337.357
336.881
336.416
335.962
335.518
335.084
334.661
334.247
333.843
333.448
333.062
332.686
332.318
331.96
331.61
331.269
330.936
330.613
330.297
329.99
329.691
329.401
329.118
328.844
328.578
328.32
328.07
327.828
327.593
327.367
327.148
326.937
326.734
326.539
326.351
326.171
325.998
325.833
325.676
325.526
325.383
325.249
325.121
325.001
324.888
324.783
324.685
324.595
324.511
324.435
324.367
324.306
324.252
324.205
324.165
324.133
324.108
324.09
324.08
324.076
397.592
392.854
388.336
384.131
380.286
376.808
373.68
370.869
368.341
366.058
363.988
362.099
360.367
358.769
357.287
355.905
354.611
353.393
352.241
351.149
350.109
349.116
348.165
347.252
346.374
345.527
344.709
343.917
343.151
342.407
341.684
340.982
340.298
339.633
338.984
338.352
337.735
337.133
336.545
335.971
335.411
334.863
334.328
333.805
333.294
332.795
332.307
331.83
331.365
330.91
330.466
330.032
329.609
329.196
328.793
328.4
328.017
327.644
327.28
326.926
326.582
326.247
325.922
325.606
325.299
325.002
324.713
324.434
324.164
323.903
323.651
323.408
323.174
322.949
322.732
322.525
322.326
322.136
321.954
321.781
321.617
321.462
321.315
321.176
321.047
320.925
320.812
320.708
320.612
320.524
320.445
320.375
320.312
320.259
320.213
320.176
320.147
320.127
320.114
320.11
397.809
393.478
389.3
385.347
381.663
378.265
375.151
372.304
369.704
367.324
365.139
363.127
361.265
359.535
357.921
356.408
354.984
353.638
352.363
351.15
349.992
348.884
347.822
346.8
345.815
344.865
343.947
343.057
342.195
341.357
340.544
339.752
338.982
338.231
337.5
336.786
336.09
335.41
334.746
334.098
333.464
332.845
332.241
331.65
331.072
330.507
329.956
329.417
328.89
328.376
327.873
327.383
326.904
326.437
325.981
325.536
325.103
324.681
324.269
323.869
323.479
323.1
322.732
322.375
322.028
321.691
321.365
321.049
320.743
320.448
320.162
319.887
319.622
319.367
319.122
318.887
318.662
318.447
318.241
318.046
317.86
317.684
317.518
317.361
317.214
317.077
316.949
316.831
316.722
316.623
316.533
316.453
316.383
316.322
316.27
316.228
316.196
316.172
316.159
316.154
397.971
393.95
390.039
386.295
382.755
379.441
376.356
373.497
370.849
368.397
366.123
364.008
362.036
360.191
358.459
356.827
355.284
353.822
352.43
351.103
349.833
348.616
347.446
346.319
345.233
344.182
343.166
342.18
341.224
340.295
339.392
338.513
337.657
336.823
336.009
335.216
334.441
333.684
332.945
332.223
331.518
330.828
330.154
329.496
328.852
328.223
327.608
327.007
326.42
325.846
325.286
324.739
324.205
323.683
323.175
322.679
322.196
321.724
321.265
320.819
320.384
319.961
319.55
319.151
318.764
318.388
318.024
317.672
317.331
317.001
316.683
316.375
316.08
315.795
315.522
315.259
315.008
314.768
314.539
314.32
314.113
313.916
313.731
313.556
313.392
313.238
313.096
312.964
312.843
312.732
312.632
312.543
312.464
312.396
312.338
312.291
312.255
312.229
312.214
312.209
398.096
394.313
390.613
387.04
383.624
380.388
377.34
374.481
371.803
369.297
366.952
364.752
362.686
360.74
358.903
357.164
355.513
353.941
352.441
351.007
349.631
348.309
347.037
345.81
344.624
343.476
342.365
341.286
340.239
339.22
338.23
337.265
336.325
335.408
334.514
333.641
332.788
331.956
331.143
330.348
329.571
328.812
328.069
327.344
326.634
325.941
325.263
324.601
323.954
323.321
322.703
322.1
321.511
320.936
320.376
319.829
319.295
318.776
318.269
317.777
317.297
316.831
316.377
315.937
315.51
315.095
314.693
314.304
313.928
313.564
313.213
312.874
312.548
312.234
311.932
311.642
311.365
311.1
310.847
310.606
310.377
310.16
309.955
309.762
309.581
309.412
309.254
309.109
308.975
308.853
308.743
308.644
308.557
308.482
308.418
308.367
308.326
308.298
308.281
308.275
398.192
394.596
391.063
387.627
384.317
381.151
378.139
375.286
372.589
370.043
367.639
365.369
363.221
361.187
359.257
357.42
355.67
353.997
352.397
350.861
349.385
347.964
346.594
345.269
343.988
342.747
341.543
340.374
339.237
338.132
337.055
336.006
334.983
333.986
333.012
332.061
331.132
330.225
329.338
328.472
327.624
326.796
325.986
325.194
324.42
323.663
322.923
322.199
321.492
320.802
320.127
319.468
318.824
318.196
317.584
316.986
316.403
315.835
315.282
314.743
314.219
313.709
313.214
312.733
312.265
311.812
311.373
310.948
310.536
310.138
309.754
309.384
309.027
308.684
308.354
308.037
307.734
307.444
307.167
306.904
306.653
306.416
306.192
305.981
305.783
305.598
305.426
305.267
305.12
304.987
304.866
304.758
304.663
304.581
304.512
304.455
304.411
304.38
304.361
304.355
398.267
394.816
391.416
388.092
384.868
381.762
378.784
375.939
373.229
370.651
368.199
365.868
363.651
361.538
359.524
357.599
355.757
353.992
352.297
350.666
349.096
347.58
346.116
344.698
343.325
341.993
340.7
339.443
338.22
337.029
335.869
334.737
333.633
332.556
331.504
330.477
329.473
328.492
327.533
326.595
325.678
324.781
323.904
323.047
322.208
321.388
320.586
319.803
319.037
318.288
317.557
316.842
316.145
315.464
314.8
314.152
313.52
312.904
312.304
311.72
311.151
310.598
310.061
309.539
309.032
308.541
308.064
307.603
307.156
306.725
306.308
305.906
305.519
305.146
304.788
304.445
304.116
303.801
303.501
303.215
302.944
302.686
302.443
302.214
301.999
301.798
301.611
301.439
301.28
301.135
301.004
300.887
300.784
300.695
300.619
300.558
300.51
300.476
300.456
300.45
398.326
394.989
391.693
388.458
385.305
382.248
379.299
376.463
373.742
371.137
368.645
366.262
363.982
361.8
359.709
357.704
355.778
353.926
352.143
350.423
348.763
347.157
345.603
344.097
342.635
341.216
339.836
338.493
337.186
335.912
334.67
333.458
332.275
331.12
329.991
328.888
327.81
326.756
325.726
324.718
323.732
322.768
321.825
320.903
320
319.118
318.255
317.412
316.587
315.781
314.994
314.225
313.474
312.74
312.025
311.327
310.646
309.982
309.336
308.707
308.094
307.498
306.919
306.357
305.811
305.281
304.768
304.27
303.789
303.324
302.875
302.442
302.024
301.623
301.237
300.867
300.512
300.173
299.849
299.541
299.248
298.971
298.709
298.462
298.23
298.014
297.812
297.626
297.455
297.299
297.158
297.032
296.92
296.824
296.743
296.677
296.625
296.588
296.567
296.56
398.372
395.124
391.909
388.745
385.648
382.631
379.705
376.875
374.145
371.517
368.989
366.559
364.224
361.978
359.818
357.739
355.735
353.803
351.937
350.133
348.387
346.696
345.057
343.465
341.918
340.414
338.951
337.525
336.136
334.781
333.458
332.168
330.907
329.676
328.472
327.295
326.144
325.019
323.918
322.841
321.788
320.757
319.748
318.762
317.797
316.853
315.93
315.027
314.144
313.282
312.439
311.615
310.811
310.025
309.259
308.511
307.782
307.072
306.379
305.705
305.049
304.411
303.79
303.187
302.602
302.035
301.484
300.952
300.436
299.938
299.456
298.992
298.545
298.114
297.701
297.304
296.924
296.56
296.213
295.883
295.569
295.272
294.991
294.726
294.478
294.246
294.03
293.83
293.647
293.479
293.328
293.193
293.073
292.97
292.883
292.812
292.757
292.718
292.694
292.687
398.407
395.229
392.077
388.967
385.914
382.928
380.018
377.192
374.453
371.803
369.242
366.77
364.384
362.08
359.857
357.709
355.633
353.625
351.681
349.797
347.971
346.199
344.477
342.803
341.174
339.589
338.044
336.538
335.069
333.635
332.235
330.868
329.531
328.225
326.947
325.698
324.475
323.28
322.11
320.965
319.844
318.748
317.675
316.625
315.598
314.593
313.61
312.648
311.708
310.79
309.892
309.014
308.157
307.321
306.504
305.707
304.93
304.173
303.435
302.716
302.016
301.336
300.674
300.032
299.408
298.802
298.216
297.647
297.098
296.566
296.053
295.558
295.08
294.621
294.18
293.757
293.352
292.964
292.594
292.242
291.907
291.59
291.29
291.007
290.743
290.495
290.265
290.052
289.856
289.677
289.516
289.372
289.245
289.135
289.042
288.966
288.907
288.865
288.84
288.832
398.434
395.308
392.205
389.136
386.115
383.151
380.253
377.427
374.677
372.006
369.415
366.903
364.47
362.113
359.83
357.618
355.474
353.395
351.377
349.419
347.515
345.665
343.865
342.112
340.405
338.741
337.117
335.533
333.987
332.476
331
329.557
328.147
326.767
325.417
324.096
322.804
321.539
320.301
319.089
317.902
316.741
315.605
314.492
313.404
312.339
311.297
310.277
309.281
308.306
307.354
306.423
305.514
304.626
303.76
302.914
302.09
301.286
300.502
299.74
298.997
298.275
297.572
296.89
296.228
295.585
294.962
294.359
293.775
293.211
292.666
292.14
291.633
291.146
290.677
290.228
289.797
289.385
288.992
288.618
288.263
287.926
287.607
287.307
287.026
286.763
286.518
286.292
286.084
285.895
285.723
285.57
285.435
285.318
285.219
285.139
285.076
285.032
285.005
284.997
398.454
395.367
392.299
389.261
386.263
383.314
380.422
377.592
374.83
372.137
369.516
366.967
364.489
362.082
359.743
357.471
355.263
353.116
351.029
348.999
347.023
345.098
343.222
341.394
339.61
337.87
336.171
334.511
332.889
331.304
329.754
328.238
326.754
325.303
323.882
322.491
321.13
319.797
318.492
317.214
315.963
314.738
313.538
312.364
311.215
310.091
308.99
307.914
306.861
305.832
304.825
303.842
302.881
301.943
301.027
300.134
299.262
298.412
297.584
296.777
295.992
295.228
294.486
293.764
293.063
292.384
291.725
291.087
290.469
289.872
289.296
288.739
288.203
287.688
287.192
286.717
286.261
285.825
285.41
285.014
284.638
284.281
283.944
283.627
283.329
283.051
282.792
282.553
282.333
282.132
281.95
281.788
281.645
281.522
281.417
281.332
281.266
281.219
281.191
281.182
398.469
395.408
392.365
389.348
386.364
383.424
380.533
377.697
374.92
372.205
369.554
366.969
364.448
361.993
359.601
357.272
355.003
352.793
350.64
348.541
346.494
344.498
342.55
340.649
338.792
336.978
335.205
333.472
331.777
330.119
328.497
326.909
325.354
323.833
322.343
320.883
319.454
318.054
316.684
315.341
314.026
312.738
311.477
310.242
309.033
307.85
306.692
305.559
304.451
303.367
302.308
301.272
300.26
299.272
298.307
297.366
296.448
295.552
294.68
293.83
293.002
292.197
291.415
290.654
289.916
289.199
288.505
287.832
287.181
286.552
285.944
285.358
284.793
284.249
283.726
283.225
282.745
282.285
281.847
281.429
281.033
280.657
280.302
279.967
279.653
279.36
279.087
278.834
278.602
278.391
278.199
278.028
277.877
277.747
277.637
277.547
277.477
277.427
277.398
277.389
398.478
395.436
392.408
389.403
386.428
383.489
380.595
377.748
374.954
372.216
369.536
366.915
364.354
361.852
359.41
357.026
354.699
352.428
350.211
348.047
345.933
343.868
341.851
339.879
337.951
336.066
334.221
332.417
330.651
328.922
327.229
325.571
323.948
322.357
320.799
319.273
317.777
316.312
314.876
313.47
312.092
310.742
309.42
308.126
306.858
305.617
304.402
303.213
302.05
300.913
299.801
298.714
297.652
296.614
295.601
294.612
293.648
292.707
291.791
290.898
290.029
289.183
288.361
287.562
286.786
286.033
285.303
284.596
283.912
283.251
282.612
281.995
281.402
280.83
280.281
279.754
279.249
278.766
278.305
277.866
277.449
277.054
276.681
276.329
275.999
275.69
275.403
275.138
274.894
274.672
274.47
274.291
274.132
273.995
273.879
273.784
273.711
273.659
273.628
273.618
398.483
395.451
392.432
389.431
386.458
383.517
380.614
377.754
374.941
372.178
369.468
366.812
364.21
361.664
359.173
356.737
354.354
352.024
349.746
347.519
345.34
343.21
341.125
339.085
337.089
335.134
333.221
331.347
329.512
327.714
325.952
324.226
322.535
320.877
319.253
317.66
316.099
314.57
313.071
311.602
310.162
308.751
307.369
306.016
304.69
303.392
302.121
300.877
299.66
298.47
297.306
296.168
295.056
293.969
292.908
291.873
290.863
289.878
288.918
287.982
287.072
286.186
285.324
284.487
283.674
282.885
282.12
281.379
280.662
279.969
279.3
278.654
278.031
277.432
276.856
276.304
275.775
275.269
274.786
274.326
273.888
273.474
273.083
272.714
272.368
272.044
271.743
271.465
271.209
270.976
270.765
270.577
270.411
270.267
270.145
270.046
269.969
269.914
269.882
269.871
398.485
395.456
392.438
389.437
386.459
383.511
380.596
377.72
374.886
372.097
369.356
366.665
364.024
361.434
358.895
356.408
353.971
351.585
349.249
346.96
344.719
342.525
340.375
338.269
336.206
334.185
332.204
330.263
328.36
326.495
324.667
322.874
321.116
319.393
317.703
316.046
314.422
312.829
311.267
309.737
308.236
306.766
305.325
303.913
302.53
301.176
299.85
298.552
297.281
296.039
294.823
293.635
292.473
291.339
290.231
289.149
288.094
287.065
286.061
285.084
284.133
283.207
282.306
281.431
280.581
279.757
278.958
278.183
277.434
276.709
276.009
275.334
274.683
274.056
273.454
272.877
272.323
271.794
271.289
270.808
270.351
269.918
269.508
269.122
268.761
268.422
268.108
267.817
267.549
267.305
267.085
266.887
266.714
266.563
266.436
266.332
266.252
266.195
266.161
266.15
398.484
395.451
392.43
389.423
386.437
383.476
380.546
377.651
374.794
371.978
369.206
366.478
363.798
361.165
358.58
356.043
353.555
351.114
348.72
346.373
344.072
341.815
339.603
337.433
335.306
333.219
331.173
329.167
327.198
325.267
323.374
321.516
319.693
317.905
316.152
314.432
312.744
311.09
309.467
307.876
306.315
304.786
303.287
301.818
300.379
298.969
297.589
296.237
294.914
293.62
292.354
291.116
289.906
288.723
287.569
286.441
285.342
284.269
283.223
282.204
281.212
280.247
279.308
278.395
277.509
276.649
275.816
275.008
274.226
273.47
272.74
272.036
271.357
270.704
270.076
269.473
268.896
268.344
267.817
267.315
266.838
266.386
265.959
265.556
265.179
264.826
264.497
264.194
263.915
263.66
263.43
263.224
263.043
262.886
262.753
262.645
262.561
262.501
262.466
262.454
398.48
395.44
392.409
389.392
386.393
383.417
380.469
377.552
374.67
371.825
369.02
366.257
363.538
360.862
358.232
355.647
353.107
350.613
348.164
345.76
343.4
341.083
338.81
336.578
334.388
332.239
330.129
328.058
326.026
324.031
322.073
320.152
318.266
316.415
314.599
312.817
311.068
309.353
307.67
306.019
304.4
302.813
301.257
299.732
298.237
296.773
295.339
293.934
292.559
291.214
289.898
288.611
287.353
286.124
284.923
283.751
282.607
281.491
280.403
279.343
278.311
277.306
276.33
275.38
274.458
273.563
272.696
271.855
271.041
270.255
269.495
268.761
268.055
267.375
266.721
266.094
265.493
264.918
264.369
263.847
263.35
262.879
262.435
262.016
261.623
261.255
260.913
260.597
260.307
260.041
259.802
259.588
259.399
259.235
259.097
258.984
258.897
258.835
258.798
258.786
398.474
395.421
392.378
389.346
386.331
383.336
380.367
377.426
374.517
371.643
368.805
366.006
363.246
360.529
357.853
355.221
352.632
350.086
347.583
345.123
342.706
340.331
337.998
335.706
333.455
331.244
329.072
326.939
324.845
322.787
320.767
318.784
316.836
314.924
313.046
311.203
309.394
307.619
305.877
304.168
302.492
300.847
299.235
297.654
296.105
294.587
293.1
291.644
290.218
288.822
287.457
286.122
284.816
283.541
282.294
281.078
279.89
278.732
277.602
276.502
275.43
274.387
273.372
272.386
271.429
270.499
269.598
268.725
267.88
267.063
266.273
265.511
264.777
264.071
263.391
262.74
262.115
261.518
260.948
260.405
259.889
259.4
258.938
258.503
258.094
257.712
257.357
257.028
256.726
256.451
256.202
255.979
255.783
255.613
255.469
255.352
255.261
255.196
255.158
255.146
398.466
395.397
392.337
389.287
386.253
383.237
380.244
377.278
374.34
371.434
368.562
365.726
362.928
360.168
357.448
354.769
352.131
349.534
346.979
344.465
341.992
339.56
337.169
334.819
332.508
330.237
328.005
325.811
323.656
321.537
319.456
317.412
315.404
313.431
311.494
309.591
307.723
305.889
304.09
302.323
300.59
298.89
297.222
295.587
293.984
292.413
290.874
289.367
287.89
286.445
285.032
283.649
282.296
280.975
279.684
278.423
277.192
275.992
274.821
273.681
272.57
271.489
270.437
269.415
268.422
267.459
266.524
265.619
264.743
263.895
263.076
262.287
261.525
260.792
260.088
259.412
258.764
258.145
257.554
256.991
256.455
255.948
255.469
255.017
254.593
254.197
253.829
253.488
253.175
252.889
252.63
252.399
252.196
252.019
251.871
251.749
251.655
251.587
251.548
251.535
398.456
395.368
392.288
389.217
386.161
383.121
380.103
377.108
374.141
371.202
368.296
365.423
362.585
359.783
357.019
354.294
351.608
348.961
346.354
343.787
341.26
338.773
336.325
333.917
331.549
329.219
326.928
324.675
322.46
320.282
318.141
316.037
313.97
311.938
309.942
307.981
306.055
304.164
302.308
300.485
298.696
296.941
295.219
293.53
291.875
290.252
288.661
287.103
285.577
284.084
282.622
281.192
279.794
278.427
277.091
275.787
274.514
273.272
272.061
270.881
269.732
268.613
267.525
266.467
265.439
264.442
263.475
262.538
261.631
260.753
259.906
259.088
258.3
257.541
256.812
256.112
255.441
254.8
254.188
253.604
253.05
252.525
252.028
251.561
251.122
250.712
250.33
249.977
249.652
249.356
249.089
248.85
248.639
248.456
248.302
248.176
248.078
248.009
247.967
247.954
398.445
395.335
392.232
389.138
386.057
382.991
379.945
376.921
373.922
370.951
368.008
365.098
362.22
359.377
356.569
353.798
351.064
348.368
345.711
343.092
340.512
337.97
335.468
333.004
330.579
328.192
325.843
323.532
321.259
319.023
316.824
314.662
312.536
310.446
308.393
306.375
304.392
302.445
300.532
298.654
296.811
295.001
293.226
291.485
289.777
288.103
286.462
284.854
283.28
281.738
280.229
278.753
277.309
275.898
274.519
273.172
271.857
270.574
269.323
268.104
266.916
265.76
264.636
263.543
262.481
261.45
260.451
259.482
258.545
257.638
256.762
255.916
255.101
254.317
253.563
252.84
252.146
251.483
250.85
250.247
249.674
249.131
248.618
248.134
247.681
247.256
246.862
246.497
246.161
245.855
245.578
245.331
245.113
244.924
244.764
244.634
244.533
244.461
244.418
244.404
398.433
395.298
392.17
389.05
385.942
382.849
379.773
376.719
373.687
370.681
367.703
364.754
361.836
358.951
356.1
353.284
350.503
347.759
345.052
342.382
339.749
337.155
334.598
332.08
329.599
327.156
324.751
322.383
320.053
317.76
315.504
313.285
311.102
308.956
306.846
304.772
302.734
300.731
298.764
296.832
294.934
293.072
291.244
289.451
287.692
285.968
284.277
282.621
280.998
279.409
277.854
276.332
274.843
273.388
271.966
270.577
269.221
267.898
266.607
265.35
264.124
262.932
261.771
260.644
259.548
258.484
257.453
256.453
255.485
254.549
253.645
252.773
251.932
251.122
250.344
249.597
248.881
248.196
247.543
246.92
246.329
245.768
245.238
244.739
244.27
243.832
243.425
243.048
242.701
242.385
242.099
241.844
241.619
241.424
241.259
241.124
241.02
240.946
240.902
240.887
398.42
395.258
392.103
388.955
385.819
382.696
379.589
376.502
373.437
370.396
367.381
364.394
361.436
358.509
355.614
352.753
349.926
347.134
344.378
341.658
338.975
336.328
333.718
331.146
328.611
326.113
323.653
321.23
318.844
316.495
314.184
311.909
309.67
307.469
305.304
303.175
301.082
299.025
297.004
295.018
293.068
291.154
289.275
287.431
285.621
283.847
282.108
280.404
278.734
277.098
275.497
273.93
272.397
270.899
269.434
268.004
266.607
265.244
263.915
262.619
261.357
260.128
258.932
257.77
256.641
255.545
254.482
253.451
252.454
251.489
250.557
249.658
248.791
247.956
247.154
246.384
245.646
244.94
244.266
243.624
243.014
242.436
241.89
241.375
240.892
240.44
240.02
239.631
239.274
238.948
238.653
238.39
238.158
237.957
237.787
237.648
237.54
237.464
237.418
237.403
398.406
395.215
392.031
388.854
385.687
382.533
379.395
376.274
373.175
370.097
367.045
364.019
361.021
358.052
355.114
352.209
349.336
346.497
343.692
340.923
338.189
335.491
332.83
330.205
327.617
325.066
322.551
320.074
317.633
315.23
312.864
310.534
308.241
305.985
303.766
301.583
299.436
297.326
295.252
293.214
291.213
289.247
287.317
285.423
283.565
281.742
279.955
278.203
276.486
274.805
273.159
271.548
269.972
268.431
266.924
265.453
264.016
262.614
261.246
259.913
258.614
257.349
256.119
254.923
253.761
252.632
251.538
250.478
249.451
248.458
247.498
246.572
245.68
244.82
243.994
243.202
242.442
241.715
241.021
240.36
239.732
239.137
238.574
238.044
237.546
237.081
236.649
236.248
235.88
235.544
235.241
234.97
234.73
234.523
234.348
234.205
234.094
234.015
233.968
233.953
398.39
395.17
391.955
388.747
385.549
382.362
379.191
376.036
372.901
369.787
366.697
363.631
360.593
357.582
354.602
351.652
348.733
345.848
342.996
340.178
337.394
334.646
331.934
329.257
326.617
324.013
321.446
318.915
316.422
313.965
311.545
309.161
306.815
304.506
302.233
299.997
297.798
295.636
293.51
291.421
289.369
287.353
285.373
283.43
281.523
279.653
277.818
276.02
274.257
272.531
270.84
269.186
267.567
265.984
264.437
262.925
261.448
260.007
258.602
257.232
255.897
254.597
253.332
252.103
250.908
249.748
248.623
247.533
246.477
245.456
244.47
243.517
242.6
241.716
240.866
240.051
239.27
238.522
237.809
237.129
236.483
235.871
235.292
234.746
234.235
233.756
233.311
232.899
232.521
232.175
231.863
231.584
231.338
231.125
230.945
230.798
230.684
230.602
230.554
230.538
398.375
395.123
391.876
388.636
385.404
382.185
378.979
375.789
372.618
369.467
366.338
363.233
360.154
357.102
354.078
351.084
348.121
345.189
342.29
339.424
336.592
333.795
331.032
328.305
325.614
322.958
320.339
317.756
315.21
312.701
310.228
307.792
305.394
303.032
300.707
298.42
296.169
293.956
291.779
289.64
287.537
285.472
283.444
281.452
279.497
277.58
275.699
273.855
272.047
270.277
268.543
266.845
265.184
263.56
261.972
260.42
258.905
257.426
255.983
254.577
253.206
251.872
250.573
249.311
248.084
246.893
245.738
244.618
243.534
242.485
241.472
240.494
239.551
238.643
237.771
236.933
236.13
235.363
234.629
233.931
233.267
232.638
232.044
231.483
230.957
230.466
230.009
229.585
229.196
228.842
228.521
228.234
227.981
227.762
227.577
227.426
227.309
227.225
227.175
227.159
398.358
395.074
391.794
388.52
385.255
382.001
378.76
375.534
372.326
369.138
365.97
362.826
359.706
356.612
353.546
350.508
347.5
344.523
341.577
338.664
335.784
332.938
330.126
327.349
324.607
321.901
319.231
316.597
314
311.439
308.915
306.427
303.977
301.564
299.189
296.85
294.549
292.285
290.059
287.87
285.719
283.605
281.529
279.49
277.488
275.524
273.598
271.709
269.857
268.043
266.266
264.526
262.824
261.159
259.531
257.94
256.387
254.87
253.391
251.949
250.543
249.175
247.843
246.548
245.289
244.068
242.882
241.734
240.621
239.545
238.506
237.502
236.535
235.603
234.708
233.848
233.025
232.237
231.484
230.768
230.087
229.441
228.83
228.255
227.716
227.211
226.742
226.307
225.908
225.544
225.215
224.92
224.661
224.436
224.246
224.091
223.97
223.884
223.833
223.817
398.341
395.023
391.709
388.401
385.102
381.812
378.535
375.273
372.028
368.801
365.595
362.41
359.25
356.114
353.005
349.924
346.872
343.849
340.858
337.898
334.971
332.077
329.217
326.391
323.6
320.844
318.124
315.439
312.791
310.18
307.605
305.068
302.567
300.104
297.678
295.29
292.939
290.626
288.351
286.114
283.914
281.753
279.629
277.544
275.496
273.487
271.515
269.582
267.687
265.83
264.011
262.23
260.487
258.782
257.114
255.485
253.894
252.341
250.825
249.348
247.908
246.506
245.141
243.814
242.524
241.272
240.058
238.881
237.741
236.638
235.572
234.543
233.552
232.597
231.679
230.798
229.953
229.146
228.374
227.64
226.941
226.279
225.653
225.064
224.51
223.993
223.512
223.066
222.657
222.283
221.946
221.644
221.377
221.147
220.952
220.793
220.669
220.582
220.529
220.512
398.324
394.971
391.623
388.28
384.944
381.619
378.306
375.007
371.724
368.458
365.213
361.988
358.787
355.61
352.459
349.334
346.238
343.171
340.134
337.128
334.154
331.213
328.305
325.431
322.591
319.787
317.018
314.284
311.587
308.926
306.302
303.714
301.164
298.652
296.177
293.74
291.34
288.979
286.656
284.371
282.124
279.916
277.746
275.615
273.522
271.468
269.453
267.476
265.538
263.639
261.778
259.956
258.173
256.429
254.723
253.056
251.428
249.838
248.287
246.775
245.301
243.866
242.469
241.11
239.79
238.508
237.265
236.059
234.892
233.763
232.671
231.618
230.603
229.625
228.685
227.782
226.917
226.09
225.3
224.547
223.832
223.154
222.513
221.909
221.342
220.812
220.319
219.863
219.443
219.061
218.715
218.405
218.132
217.896
217.697
217.534
217.407
217.317
217.263
217.246
398.306
394.918
391.534
388.155
384.784
381.422
378.072
374.736
371.414
368.111
364.826
361.561
358.319
355.101
351.907
348.74
345.6
342.489
339.407
336.356
333.336
330.348
327.393
324.471
321.584
318.732
315.914
313.132
310.386
307.677
305.004
302.368
299.769
297.208
294.685
292.2
289.753
287.344
284.974
282.642
280.349
278.095
275.88
273.704
271.567
269.469
267.41
265.391
263.411
261.47
259.569
257.707
255.884
254.101
252.358
250.654
248.989
247.364
245.778
244.231
242.724
241.256
239.827
238.438
237.087
235.776
234.504
233.271
232.077
230.921
229.805
228.727
227.688
226.688
225.726
224.802
223.917
223.07
222.262
221.492
220.76
220.066
219.41
218.792
218.211
217.669
217.164
216.697
216.268
215.876
215.522
215.206
214.926
214.685
214.48
214.313
214.184
214.091
214.036
214.018
398.289
394.864
391.444
388.029
384.621
381.223
377.835
374.461
371.101
367.759
364.434