/*--------------------------------*- C++ -*----------------------------------*\
  =========                 |
  \\      /  F ield         | OpenFOAM: The Open Source CFD Toolbox
   \\    /   O peration     | Website:  https://openfoam.org
    \\  /    A nd           | Version:  10
     \\/     M anipulation  |
\*---------------------------------------------------------------------------*/
FoamFile
{
    format      ascii;
    class       volScalarField;
    location    "0.2";
    object      T;
}
// * * * * * * * * * * * * * * * * * * * * * * * * * * * * * * * * * * * * * //

dimensions      [0 0 0 1 0 0 0];

internalField   nonuniform List<scalar> 
100
(
1
1
1
1
1
1
1
1
1
1
0.999999
0.999992
0.999958
0.9998
0.999109
0.996226
0.984682
0.940918
0.830307
0.644932
0.408069
0.173993
0.0217417
0.000270285
3.35206e-06
4.15166e-08
5.13924e-10
6.36231e-12
7.8759e-14
8.06462e-16
-2.63544e-16
-3.42523e-16
-2.42918e-16
-1.1269e-16
-1.97286e-17
2.14076e-17
2.55853e-17
1.47866e-17
4.04806e-18
-1.33373e-18
-2.2412e-18
-1.28902e-18
-3.02625e-19
1.40501e-19
1.76846e-19
8.11282e-20
7.78485e-21
-1.50754e-20
-1.11197e-20
-3.12242e-21
7.18547e-22
1.10594e-21
4.58718e-22
1.38253e-23
-8.82058e-23
-4.8694e-23
-7.19392e-24
5.92498e-24
4.27018e-24
9.32966e-25
-3.47164e-25
-3.28063e-25
-8.68034e-26
1.84632e-26
2.28396e-26
6.68124e-27
-9.47647e-28
-1.47173e-27
-4.4756e-28
5.10536e-29
8.88682e-29
2.66799e-29
-3.05788e-30
-5.05549e-30
-1.42729e-30
1.98424e-31
2.70882e-31
6.84295e-32
-1.29458e-32
-1.36128e-32
-2.90562e-33
8.00464e-34
6.37153e-34
1.06066e-34
-4.55333e-35
-2.75239e-35
-3.07952e-36
2.35417e-36
1.0845e-36
5.15576e-38
-1.10078e-37
-3.83245e-38
1.2657e-39
4.63868e-39
1.1804e-39
-1.73195e-40
-1.75275e-40
-2.97936e-41
1.04297e-41
4.72608e-42
)
;

boundaryField
{
    top
    {
        type            zeroGradient;
    }
    bottom
    {
        type            zeroGradient;
    }
    in
    {
        type            fixedValue;
        value           uniform 1;
    }
    out
    {
        type            zeroGradient;
    }
    frontAndBack
    {
        type            empty;
    }
}


// ************************************************************************* //
