/*--------------------------------*- C++ -*----------------------------------*\
  =========                 |
  \\      /  F ield         | OpenFOAM: The Open Source CFD Toolbox
   \\    /   O peration     | Website:  https://openfoam.org
    \\  /    A nd           | Version:  10
     \\/     M anipulation  |
\*---------------------------------------------------------------------------*/
FoamFile
{
    format      ascii;
    class       volScalarField;
    location    "40";
    object      ddt0(T);
}
// * * * * * * * * * * * * * * * * * * * * * * * * * * * * * * * * * * * * * //

dimensions      [0 0 -1 1 0 0 0];

internalField   nonuniform List<scalar> 
10000
(
419.754
20.228
79.9099
77.4577
77.1042
77.1817
77.1947
77.1949
77.1956
77.1965
77.1973
77.198
77.1988
77.1995
77.2003
77.201
77.2017
77.2025
77.2032
77.2039
77.2046
77.2053
77.206
77.2067
77.2074
77.208
77.2087
77.2094
77.21
77.2107
77.2113
77.212
77.2126
77.2132
77.2138
77.2144
77.215
77.2156
77.2162
77.2168
77.2174
77.2179
77.2185
77.219
77.2196
77.2201
77.2206
77.2211
77.2216
77.2221
77.2226
77.223
77.2235
77.224
77.2244
77.2248
77.2253
77.2257
77.2261
77.2265
77.2269
77.2272
77.2276
77.228
77.2283
77.2286
77.229
77.2293
77.2296
77.2299
77.2302
77.2304
77.2307
77.231
77.2312
77.2315
77.2317
77.2319
77.2321
77.2323
77.2325
77.2327
77.2328
77.233
77.2331
77.2333
77.2334
77.2335
77.2336
77.2337
77.2338
77.2339
77.234
77.234
77.2333
77.2328
77.2947
77.7963
73.7947
57.6202
38.1009
-75.5628
-23.151
-31.6114
-32.0069
-31.812
-31.7944
-31.7972
-31.7961
-31.7938
-31.7916
-31.7894
-31.7872
-31.785
-31.7828
-31.7806
-31.7784
-31.7763
-31.7741
-31.772
-31.7699
-31.7678
-31.7657
-31.7637
-31.7616
-31.7596
-31.7576
-31.7556
-31.7536
-31.7516
-31.7497
-31.7478
-31.7459
-31.744
-31.7422
-31.7403
-31.7385
-31.7368
-31.735
-31.7333
-31.7316
-31.7299
-31.7282
-31.7266
-31.725
-31.7234
-31.7219
-31.7203
-31.7188
-31.7174
-31.7159
-31.7145
-31.7131
-31.7118
-31.7104
-31.7091
-31.7079
-31.7066
-31.7054
-31.7042
-31.7031
-31.702
-31.7009
-31.6998
-31.6987
-31.6977
-31.6968
-31.6958
-31.6949
-31.694
-31.6931
-31.6923
-31.6915
-31.6907
-31.69
-31.6893
-31.6886
-31.6879
-31.6873
-31.6867
-31.6862
-31.6856
-31.6851
-31.6846
-31.6842
-31.6838
-31.6834
-31.683
-31.6827
-31.6824
-31.6821
-31.6819
-31.6816
-31.6814
-31.6826
-31.6919
-31.6844
-31.2909
-32.062
-22.8961
90.2534
-28.8016
16.0006
7.17873
7.03931
7.28376
7.30248
7.29996
7.30249
7.30627
7.31003
7.31374
7.31742
7.32109
7.32474
7.32838
7.33199
7.33559
7.33916
7.34271
7.34623
7.34973
7.3532
7.35665
7.36007
7.36345
7.36681
7.37013
7.37343
7.37669
7.37991
7.38311
7.38626
7.38938
7.39246
7.39551
7.39851
7.40148
7.40441
7.40729
7.41014
7.41294
7.4157
7.41842
7.42109
7.42372
7.4263
7.42884
7.43134
7.43379
7.43619
7.43854
7.44085
7.44312
7.44533
7.4475
7.44962
7.45169
7.45371
7.45568
7.45761
7.45949
7.46131
7.46309
7.46482
7.4665
7.46813
7.46972
7.47125
7.47273
7.47417
7.47555
7.47689
7.47817
7.47941
7.4806
7.48173
7.48282
7.48386
7.48485
7.48579
7.48668
7.48753
7.48832
7.48907
7.48976
7.49041
7.49101
7.49156
7.49206
7.49252
7.49293
7.49333
7.4938
7.493
7.48087
7.45005
7.60346
6.62187
6.13672
88.4323
-36.1606
8.23949
-0.316708
-0.377987
-0.129388
-0.111972
-0.113716
-0.10974
-0.10446
-0.0992085
-0.0940255
-0.0888721
-0.0837412
-0.0786341
-0.0735528
-0.068499
-0.0634743
-0.0584802
-0.0535183
-0.04859
-0.0436969
-0.0388403
-0.0340218
-0.0292427
-0.0245044
-0.0198084
-0.0151558
-0.0105481
-0.00598646
-0.00147218
0.00299355
0.00740955
0.0117747
0.0160878
0.0203479
0.024554
0.0287049
0.0327999
0.0368379
0.0408181
0.0447396
0.0486017
0.0524036
0.0561445
0.0598238
0.0634407
0.0669948
0.0704853
0.0739117
0.0772736
0.0805704
0.0838018
0.0869671
0.0900662
0.0930985
0.0960639
0.0989619
0.101792
0.104555
0.107249
0.109876
0.112434
0.114923
0.117343
0.119695
0.121978
0.124192
0.126337
0.128412
0.130419
0.132357
0.134225
0.136024
0.137755
0.139416
0.141008
0.142532
0.143986
0.145372
0.146689
0.147937
0.149116
0.150227
0.15127
0.152244
0.15315
0.153988
0.154757
0.155458
0.15609
0.156658
0.157234
0.15814
0.159617
0.156963
0.143197
0.264612
0.331
0.0134242
88.1443
-36.5235
8.10916
-0.369762
-0.423167
-0.176196
-0.158513
-0.158948
-0.15348
-0.146708
-0.139974
-0.133316
-0.126693
-0.120098
-0.113533
-0.107001
-0.100505
-0.0940453
-0.0876253
-0.0812466
-0.0749113
-0.0686213
-0.0623785
-0.0561847
-0.0500417
-0.0439513
-0.0379153
-0.0319353
-0.026013
-0.02015
-0.014348
-0.00860844
-0.00293285
0.00267733
0.00822067
0.0136958
0.0191014
0.0244363
0.0296991
0.0348887
0.040004
0.0450439
0.0500074
0.0548935
0.0597012
0.0644297
0.0690782
0.0736457
0.0781317
0.0825353
0.0868559
0.0910928
0.0952456
0.0993136
0.103296
0.107194
0.111004
0.114729
0.118366
0.121917
0.12538
0.128755
0.132042
0.135241
0.138352
0.141375
0.144308
0.147153
0.14991
0.152578
0.155156
0.157646
0.160048
0.16236
0.164584
0.166719
0.168765
0.170723
0.172592
0.174373
0.176065
0.177669
0.179185
0.180613
0.181953
0.183206
0.18437
0.185447
0.186436
0.187337
0.188147
0.188858
0.189483
0.190217
0.191493
0.190769
0.175976
0.186747
0.225106
0.222224
88.2107
-36.3559
8.32314
-0.151105
-0.206012
0.0410344
0.0599273
0.0609765
0.0679457
0.0762054
0.0844179
0.0925494
0.10064
0.108696
0.116715
0.124694
0.132629
0.14052
0.148362
0.156154
0.163892
0.171576
0.179202
0.186768
0.194272
0.201711
0.209084
0.216389
0.223624
0.230786
0.237873
0.244884
0.251817
0.25867
0.265442
0.27213
0.278733
0.28525
0.291678
0.298018
0.304266
0.310423
0.316486
0.322454
0.328327
0.334103
0.339782
0.345361
0.350841
0.35622
0.361498
0.366673
0.371746
0.376715
0.38158
0.386341
0.390996
0.395546
0.399989
0.404326
0.408556
0.412679
0.416695
0.420602
0.424402
0.428094
0.431678
0.435154
0.438521
0.441779
0.444929
0.447971
0.450904
0.453729
0.456445
0.459053
0.461553
0.463944
0.466228
0.468403
0.47047
0.47243
0.474282
0.476026
0.477663
0.479193
0.480615
0.48193
0.483139
0.484241
0.485234
0.48611
0.486856
0.487565
0.488728
0.490253
0.486432
0.482277
0.480709
0.493727
88.2217
-36.3403
8.3402
-0.135063
-0.189661
0.0585962
0.0789649
0.0815174
0.0899778
0.0997195
0.109408
0.11901
0.128565
0.138079
0.14755
0.156972
0.166345
0.175663
0.184925
0.194127
0.203267
0.212341
0.221348
0.230283
0.239146
0.247932
0.25664
0.265267
0.273811
0.28227
0.29064
0.298921
0.307109
0.315202
0.323199
0.331098
0.338897
0.346593
0.354186
0.361673
0.369052
0.376323
0.383484
0.390533
0.397469
0.404291
0.410997
0.417586
0.424058
0.430411
0.436644
0.442756
0.448747
0.454616
0.460362
0.465984
0.471482
0.476855
0.482103
0.487225
0.492221
0.49709
0.501833
0.506448
0.510936
0.515296
0.519528
0.523633
0.52761
0.531458
0.535178
0.538771
0.542235
0.545571
0.548779
0.551859
0.554811
0.557636
0.560332
0.562901
0.565343
0.567657
0.569844
0.571905
0.573838
0.575644
0.577324
0.578878
0.580305
0.581606
0.582782
0.583826
0.58472
0.585458
0.586265
0.587576
0.588045
0.587457
0.583887
0.589077
88.222
-36.3424
8.33851
-0.135912
-0.189198
0.0605411
0.0824129
0.0864578
0.0964016
0.107621
0.118782
0.129851
0.140867
0.151837
0.162755
0.173619
0.184425
0.195169
0.205847
0.216457
0.226994
0.237457
0.24784
0.258143
0.268361
0.278491
0.288531
0.298478
0.308329
0.318081
0.327731
0.337278
0.346719
0.35605
0.365271
0.374377
0.383369
0.392242
0.400996
0.409628
0.418136
0.426519
0.434775
0.442902
0.450899
0.458764
0.466496
0.474093
0.481554
0.488879
0.496065
0.503113
0.51002
0.516786
0.523411
0.529893
0.536232
0.542426
0.548477
0.554382
0.560142
0.565756
0.571224
0.576545
0.581719
0.586746
0.591626
0.596358
0.600943
0.60538
0.609669
0.613811
0.617805
0.621651
0.62535
0.628901
0.632305
0.635561
0.63867
0.641632
0.644447
0.647116
0.649637
0.652012
0.654241
0.656324
0.658261
0.660052
0.661697
0.663198
0.664553
0.665764
0.666819
0.667691
0.668415
0.669219
0.670086
0.670986
0.667784
0.672184
88.2227
-36.3411
8.3412
-0.131778
-0.183574
0.0676657
0.0910287
0.0965571
0.107979
0.120672
0.133301
0.145834
0.158308
0.170729
0.183093
0.195394
0.20763
0.219795
0.231886
0.2439
0.255832
0.267678
0.279436
0.291102
0.302672
0.314143
0.325511
0.336774
0.347929
0.358971
0.369899
0.380709
0.391399
0.401965
0.412405
0.422717
0.432898
0.442946
0.452858
0.462632
0.472266
0.481758
0.491107
0.500309
0.509364
0.518269
0.527024
0.535627
0.544075
0.552369
0.560506
0.568486
0.576308
0.583969
0.59147
0.59881
0.605987
0.613002
0.619853
0.62654
0.633062
0.639418
0.645609
0.651634
0.657493
0.663186
0.668711
0.674069
0.679261
0.684285
0.689142
0.693832
0.698354
0.702709
0.706897
0.710918
0.714772
0.71846
0.72198
0.725334
0.728522
0.731543
0.734398
0.737088
0.739612
0.74197
0.744163
0.746191
0.748054
0.749752
0.751287
0.752659
0.753866
0.754893
0.755721
0.756396
0.757135
0.758614
0.754182
0.760074
88.2235
-36.3389
8.34497
-0.126505
-0.17681
0.0759178
0.100763
0.107769
0.120665
0.134827
0.148921
0.162913
0.176841
0.190709
0.204514
0.218248
0.231909
0.245492
0.258993
0.272406
0.285728
0.298955
0.312083
0.325109
0.338027
0.350834
0.363528
0.376103
0.388557
0.400886
0.413088
0.425157
0.437092
0.44889
0.460547
0.472061
0.483428
0.494646
0.505713
0.516626
0.527383
0.537981
0.548419
0.558693
0.568803
0.578746
0.588521
0.598126
0.607559
0.616819
0.625905
0.634814
0.643547
0.652101
0.660476
0.668671
0.676685
0.684517
0.692166
0.699632
0.706914
0.714011
0.720924
0.727651
0.734192
0.740548
0.746717
0.7527
0.758496
0.764105
0.769528
0.774764
0.779814
0.784676
0.789352
0.793842
0.798145
0.802262
0.806193
0.809937
0.813496
0.81687
0.820058
0.823061
0.825879
0.828512
0.83096
0.833225
0.835305
0.837201
0.838914
0.840444
0.841793
0.842956
0.843913
0.844627
0.845316
0.847446
0.841291
0.848975
88.2243
-36.3366
8.34873
-0.121258
-0.170081
0.0841262
0.110448
0.118927
0.133291
0.148918
0.164473
0.179919
0.195296
0.210607
0.225847
0.241011
0.256093
0.271089
0.285994
0.300802
0.315511
0.330114
0.344608
0.358988
0.37325
0.38739
0.401404
0.415288
0.429037
0.442649
0.45612
0.469445
0.482622
0.495647
0.508516
0.521227
0.533777
0.546163
0.558381
0.570429
0.582305
0.594006
0.605529
0.616872
0.628034
0.639011
0.649803
0.660407
0.670822
0.681045
0.691075
0.700912
0.710553
0.719997
0.729243
0.73829
0.747138
0.755784
0.764229
0.772471
0.780511
0.788346
0.795978
0.803405
0.810627
0.817643
0.824454
0.831059
0.837459
0.843652
0.849639
0.855419
0.860994
0.866362
0.871525
0.876481
0.881232
0.885777
0.890117
0.894251
0.89818
0.901905
0.905424
0.90874
0.911851
0.914758
0.917461
0.919961
0.922258
0.924351
0.926242
0.92793
0.929418
0.930706
0.931778
0.932558
0.933224
0.936074
0.928243
0.937603
88.2251
-36.3344
8.35243
-0.116073
-0.16342
0.0922608
0.120053
0.13
0.145829
0.162915
0.179924
0.196821
0.213641
0.23039
0.247061
0.263648
0.280147
0.296551
0.312855
0.329054
0.345143
0.361118
0.376972
0.392703
0.408304
0.423772
0.439102
0.454289
0.46933
0.48422
0.498955
0.513531
0.527945
0.542193
0.556271
0.570176
0.583904
0.597452
0.610818
0.623997
0.636988
0.649787
0.662392
0.674801
0.68701
0.699019
0.710824
0.722423
0.733815
0.744998
0.755971
0.766731
0.777277
0.787608
0.797722
0.807619
0.817297
0.826755
0.835992
0.845009
0.853803
0.862374
0.870722
0.878846
0.886746
0.894421
0.901872
0.909097
0.916097
0.922872
0.929421
0.935744
0.941842
0.947714
0.953362
0.958783
0.96398
0.968952
0.973699
0.978222
0.98252
0.986594
0.990444
0.994071
0.997474
1.00065
1.00361
1.00635
1.00886
1.01115
1.01322
1.01506
1.01669
1.0181
1.01928
1.02013
1.02077
1.02428
1.01501
1.02581
88.2258
-36.3322
8.35612
-0.110915
-0.156793
0.100357
0.129614
0.141023
0.15831
0.176851
0.195309
0.213649
0.231908
0.250089
0.268185
0.286191
0.3041
0.321906
0.339604
0.357189
0.374654
0.391994
0.409205
0.42628
0.443215
0.460006
0.476646
0.493132
0.509459
0.525622
0.541617
0.55744
0.573087
0.588553
0.603834
0.618928
0.63383
0.648536
0.663045
0.677351
0.691452
0.705346
0.719029
0.732498
0.745751
0.758786
0.771601
0.784192
0.796558
0.808697
0.820607
0.832287
0.843735
0.854949
0.865928
0.876671
0.887176
0.897443
0.90747
0.917257
0.926803
0.936107
0.945169
0.953988
0.962563
0.970894
0.978982
0.986825
0.994423
1.00178
1.00889
1.01575
1.02237
1.02874
1.03487
1.04076
1.0464
1.0518
1.05695
1.06186
1.06652
1.07095
1.07513
1.07906
1.08276
1.08621
1.08942
1.09239
1.09512
1.0976
1.09985
1.10185
1.10362
1.10514
1.10643
1.10735
1.10797
1.11203
1.10163
1.11359
88.2266
-36.33
8.35979
-0.10578
-0.150193
0.108418
0.139136
0.152
0.170739
0.190728
0.210629
0.230408
0.250099
0.269706
0.289221
0.308639
0.327953
0.347156
0.366242
0.385206
0.404041
0.422741
0.441302
0.459716
0.47798
0.496088
0.514033
0.531812
0.54942
0.566851
0.584101
0.601165
0.618038
0.634717
0.651198
0.667475
0.683546
0.699406
0.715052
0.73048
0.745688
0.760671
0.775427
0.789953
0.804245
0.818303
0.832122
0.845701
0.859037
0.872128
0.884972
0.897568
0.909913
0.922007
0.933847
0.945432
0.956762
0.967834
0.978647
0.989202
0.999496
1.00953
1.0193
1.02881
1.03806
1.04705
1.05577
1.06422
1.07242
1.08035
1.08802
1.09542
1.10256
1.10943
1.11604
1.12239
1.12847
1.13429
1.13985
1.14514
1.15018
1.15494
1.15945
1.1637
1.16768
1.1714
1.17487
1.17807
1.18101
1.18369
1.18611
1.18827
1.19018
1.19182
1.19321
1.19421
1.19483
1.1993
1.18807
1.20091
88.2273
-36.3278
8.36344
-0.100668
-0.143622
0.116444
0.148614
0.162928
0.183112
0.204542
0.225881
0.24709
0.268207
0.289234
0.310162
0.330986
0.351698
0.372291
0.39276
0.413096
0.433295
0.453349
0.473253
0.493001
0.512588
0.532006
0.551251
0.570317
0.5892
0.607893
0.626391
0.644691
0.662786
0.680673
0.698346
0.715802
0.733036
0.750045
0.766823
0.783369
0.799677
0.815745
0.831569
0.847146
0.862474
0.877549
0.892368
0.90693
0.921231
0.93527
0.949044
0.962552
0.975791
0.98876
1.00146
1.01388
1.02603
1.0379
1.0495
1.06082
1.07186
1.08262
1.0931
1.1033
1.11321
1.12285
1.1322
1.14127
1.15006
1.15856
1.16679
1.17472
1.18238
1.18975
1.19684
1.20365
1.21017
1.21641
1.22237
1.22805
1.23345
1.23856
1.24339
1.24795
1.25222
1.25621
1.25992
1.26336
1.26651
1.26939
1.27198
1.2743
1.27634
1.27811
1.2796
1.28068
1.28131
1.28606
1.2743
1.28776
88.2281
-36.3256
8.36708
-0.0955806
-0.137084
0.124431
0.158046
0.173802
0.195425
0.21829
0.241057
0.263692
0.286227
0.308666
0.331001
0.353224
0.375327
0.397304
0.419147
0.44085
0.462406
0.483808
0.505049
0.526124
0.547026
0.567749
0.588287
0.608634
0.628785
0.648734
0.668475
0.688004
0.707315
0.726403
0.745264
0.763893
0.782285
0.800436
0.818342
0.835998
0.853402
0.870549
0.887437
0.90406
0.920417
0.936505
0.95232
0.96786
0.983122
0.998104
1.0128
1.02722
1.04135
1.05519
1.06874
1.082
1.09496
1.10763
1.12001
1.13209
1.14387
1.15535
1.16653
1.17742
1.188
1.19828
1.20826
1.21794
1.22732
1.2364
1.24517
1.25364
1.26181
1.26968
1.27724
1.28451
1.29147
1.29813
1.30449
1.31055
1.31631
1.32176
1.32692
1.33178
1.33634
1.3406
1.34456
1.34823
1.35159
1.35466
1.35743
1.35991
1.36209
1.36397
1.36557
1.36673
1.36739
1.3723
1.36027
1.37413
88.2288
-36.3235
8.3707
-0.0905204
-0.13058
0.132376
0.167429
0.18462
0.207674
0.231965
0.256155
0.280206
0.304153
0.327997
0.351731
0.375345
0.398833
0.422186
0.445397
0.468459
0.491365
0.514107
0.536679
0.559073
0.581284
0.603305
0.625129
0.646751
0.668164
0.689362
0.71034
0.731091
0.751612
0.771895
0.791937
0.811732
0.831276
0.850563
0.86959
0.888353
0.906846
0.925067
0.943012
0.960677
0.978058
0.995153
1.01196
1.02847
1.04469
1.06061
1.07623
1.09155
1.10656
1.12127
1.13566
1.14975
1.16353
1.17699
1.19014
1.20298
1.2155
1.2277
1.23958
1.25115
1.26239
1.27332
1.28393
1.29421
1.30418
1.31382
1.32314
1.33215
1.34083
1.34919
1.35722
1.36494
1.37234
1.37942
1.38618
1.39262
1.39873
1.40453
1.41002
1.41518
1.42002
1.42455
1.42876
1.43266
1.43623
1.43949
1.44244
1.44507
1.44738
1.44939
1.45108
1.45232
1.45303
1.45801
1.44592
1.45999
88.2295
-36.3213
8.3743
-0.0854886
-0.124112
0.140276
0.176759
0.195377
0.219854
0.245564
0.271168
0.296628
0.321979
0.347221
0.372345
0.397343
0.422208
0.446929
0.471501
0.495914
0.520162
0.544237
0.568132
0.591839
0.615352
0.638663
0.661767
0.684655
0.707323
0.729763
0.75197
0.773938
0.795661
0.817133
0.83835
0.859305
0.879994
0.900411
0.920553
0.940415
0.959993
0.979281
0.998277
1.01698
1.03538
1.05347
1.07126
1.08874
1.10591
1.12276
1.1393
1.15551
1.17141
1.18698
1.20222
1.21713
1.23172
1.24597
1.25989
1.27348
1.28673
1.29965
1.31223
1.32447
1.33637
1.34794
1.35917
1.37005
1.3806
1.39081
1.40068
1.41021
1.4194
1.42825
1.43676
1.44493
1.45276
1.46025
1.46741
1.47422
1.4807
1.48684
1.49264
1.49811
1.50324
1.50803
1.51249
1.51661
1.5204
1.52385
1.52697
1.52975
1.5322
1.53432
1.53611
1.53744
1.53821
1.54318
1.53121
1.54532
88.2302
-36.3192
8.37788
-0.0804866
-0.117682
0.14813
0.186034
0.20607
0.231962
0.259083
0.286093
0.312954
0.3397
0.36633
0.392837
0.419211
0.445444
0.471526
0.49745
0.523207
0.54879
0.57419
0.599399
0.624411
0.649218
0.673812
0.698187
0.722335
0.74625
0.769926
0.793355
0.816532
0.83945
0.862104
0.884488
0.906596
0.928423
0.949964
0.971215
0.99217
1.01282
1.03317
1.05322
1.07294
1.09236
1.11145
1.13022
1.14866
1.16677
1.18455
1.202
1.2191
1.23587
1.2523
1.26838
1.28411
1.2995
1.31453
1.32922
1.34356
1.35754
1.37116
1.38444
1.39735
1.40991
1.42211
1.43396
1.44545
1.45658
1.46735
1.47776
1.48781
1.49751
1.50684
1.51582
1.52444
1.5327
1.54061
1.54816
1.55535
1.56218
1.56866
1.57478
1.58055
1.58596
1.59102
1.59572
1.60007
1.60406
1.6077
1.61099
1.61393
1.61652
1.61875
1.62064
1.62206
1.6229
1.62779
1.61608
1.63011
88.231
-36.317
8.38143
-0.0755161
-0.111293
0.155934
0.195251
0.216697
0.243995
0.272517
0.300924
0.329177
0.357309
0.38532
0.413201
0.440943
0.468535
0.495969
0.523237
0.550329
0.577238
0.603954
0.630471
0.656779
0.682872
0.708741
0.734379
0.759779
0.784934
0.809837
0.83448
0.858858
0.882965
0.906793
0.930337
0.953591
0.976549
0.999207
1.02156
1.0436
1.06532
1.08673
1.10781
1.12856
1.14898
1.16906
1.1888
1.2082
1.22725
1.24595
1.2643
1.28229
1.29993
1.31721
1.33412
1.35067
1.36685
1.38267
1.39812
1.4132
1.4279
1.44223
1.45619
1.46978
1.48299
1.49583
1.50828
1.52037
1.53207
1.5434
1.55435
1.56493
1.57512
1.58494
1.59439
1.60345
1.61215
1.62046
1.6284
1.63596
1.64315
1.64996
1.6564
1.66247
1.66816
1.67348
1.67843
1.683
1.6872
1.69103
1.69449
1.69758
1.7003
1.70266
1.70464
1.70614
1.70706
1.71184
1.70049
1.71434
88.2317
-36.3149
8.38496
-0.0705784
-0.104946
0.163687
0.204407
0.227253
0.255947
0.285862
0.315657
0.345293
0.374802
0.404185
0.433431
0.46253
0.491473
0.520251
0.548853
0.577272
0.605498
0.633523
0.661337
0.688934
0.716304
0.743439
0.770333
0.796976
0.823363
0.849484
0.875334
0.900906
0.926192
0.951186
0.975883
1.00028
1.02436
1.04812
1.07157
1.09469
1.11748
1.13993
1.16204
1.18381
1.20523
1.22629
1.247
1.26735
1.28733
1.30695
1.32619
1.34507
1.36357
1.38169
1.39943
1.41679
1.43376
1.45036
1.46656
1.48237
1.4978
1.51283
1.52748
1.54173
1.55558
1.56905
1.58212
1.59479
1.60707
1.61895
1.63044
1.64153
1.65223
1.66253
1.67243
1.68194
1.69106
1.69978
1.70811
1.71604
1.72358
1.73073
1.73748
1.74385
1.74982
1.7554
1.76059
1.76538
1.76979
1.77381
1.77744
1.78068
1.78353
1.786
1.78809
1.78967
1.79067
1.7953
1.78438
1.798
88.2324
-36.3128
8.38847
-0.065675
-0.0986435
0.171386
0.2135
0.237736
0.267817
0.299114
0.330287
0.361296
0.392174
0.422918
0.45352
0.483968
0.514252
0.544364
0.574292
0.604028
0.633562
0.662885
0.691989
0.720865
0.749503
0.777896
0.806036
0.833915
0.861524
0.888856
0.915904
0.942661
0.969119
0.995271
1.02111
1.04664
1.07183
1.0967
1.12123
1.14543
1.16927
1.19276
1.2159
1.23867
1.26108
1.28312
1.30479
1.32608
1.34699
1.36752
1.38765
1.4074
1.42676
1.44572
1.46428
1.48245
1.50021
1.51757
1.53452
1.55107
1.56721
1.58294
1.59826
1.61317
1.62767
1.64176
1.65543
1.66869
1.68154
1.69397
1.70599
1.7176
1.72879
1.73957
1.74994
1.75989
1.76942
1.77855
1.78726
1.79556
1.80345
1.81093
1.818
1.82466
1.8309
1.83674
1.84217
1.84719
1.85181
1.85601
1.85981
1.8632
1.86619
1.86877
1.87095
1.87262
1.8737
1.87816
1.86773
1.88105
88.2331
-36.3107
8.39194
-0.0608074
-0.0923869
0.179029
0.222526
0.248142
0.2796
0.31227
0.344811
0.377183
0.409419
0.441515
0.473462
0.505249
0.536865
0.5683
0.599545
0.630588
0.661421
0.692034
0.722417
0.752562
0.78246
0.812102
0.841479
0.870583
0.899407
0.927941
0.956178
0.984111
1.01173
1.03903
1.06601
1.09266
1.11896
1.14492
1.17054
1.19579
1.22068
1.24521
1.26936
1.29314
1.31653
1.33954
1.36216
1.38439
1.40622
1.42764
1.44867
1.46928
1.48949
1.50928
1.52866
1.54763
1.56617
1.58429
1.60199
1.61927
1.63611
1.65254
1.66853
1.6841
1.69923
1.71394
1.72821
1.74206
1.75547
1.76845
1.781
1.79311
1.8048
1.81605
1.82687
1.83726
1.84722
1.85674
1.86584
1.8745
1.88274
1.89055
1.89793
1.90488
1.9114
1.91749
1.92316
1.9284
1.93322
1.93761
1.94158
1.94512
1.94823
1.95093
1.95321
1.95496
1.95613
1.9604
1.95048
1.9635
88.2338
-36.3087
8.3954
-0.0559769
-0.0861781
0.186613
0.231483
0.258469
0.291293
0.325325
0.359224
0.392949
0.426532
0.45997
0.493252
0.526367
0.559305
0.592054
0.624604
0.656945
0.689067
0.720959
0.752613
0.784018
0.815166
0.846046
0.876651
0.906972
0.937
0.966726
0.996143
1.02524
1.05402
1.08246
1.11057
1.13833
1.16573
1.19278
1.21946
1.24577
1.2717
1.29725
1.32241
1.34718
1.37156
1.39553
1.41909
1.44225
1.46499
1.48731
1.50921
1.53069
1.55174
1.57236
1.59255
1.6123
1.63162
1.6505
1.66894
1.68694
1.70449
1.7216
1.73826
1.75448
1.77025
1.78557
1.80044
1.81486
1.82883
1.84235
1.85543
1.86805
1.88022
1.89194
1.90321
1.91404
1.92441
1.93433
1.94381
1.95284
1.96142
1.96955
1.97724
1.98448
1.99128
1.99763
2.00353
2.00899
2.01401
2.01858
2.02271
2.0264
2.02965
2.03246
2.03483
2.03667
2.03793
2.04201
2.03261
2.0453
88.2344
-36.3066
8.39882
-0.051185
-0.0800189
0.194136
0.240368
0.268713
0.302892
0.338276
0.373522
0.408589
0.443508
0.478277
0.512884
0.547317
0.581566
0.615618
0.649464
0.683092
0.716492
0.749654
0.782567
0.815222
0.847609
0.879719
0.911542
0.943069
0.974292
1.0052
1.03579
1.06605
1.09597
1.12554
1.15477
1.18363
1.21213
1.24025
1.26799
1.29535
1.32231
1.34888
1.37504
1.4008
1.42614
1.45106
1.47557
1.49964
1.52329
1.5465
1.56927
1.5916
1.61349
1.63493
1.65593
1.67647
1.69655
1.71618
1.73535
1.75407
1.77232
1.79011
1.80743
1.82429
1.84069
1.85662
1.87208
1.88708
1.9016
1.91566
1.92926
1.94238
1.95504
1.96723
1.97895
1.9902
2.00099
2.0113
2.02116
2.03055
2.03947
2.04792
2.05592
2.06345
2.07051
2.07711
2.08325
2.08893
2.09415
2.09891
2.1032
2.10704
2.11042
2.11334
2.1158
2.11772
2.11907
2.12297
2.11408
2.12645
88.2351
-36.3046
8.40222
-0.046433
-0.0739112
0.201597
0.249179
0.278872
0.314395
0.351118
0.3877
0.424098
0.460342
0.496431
0.532351
0.568092
0.60364
0.638986
0.674116
0.70902
0.743688
0.778109
0.812271
0.846166
0.879782
0.91311
0.946141
0.978865
1.01127
1.04336
1.0751
1.10651
1.13757
1.16827
1.1986
1.22855
1.25813
1.28732
1.31612
1.34451
1.3725
1.40007
1.42723
1.45396
1.48027
1.50614
1.53157
1.55656
1.5811
1.60519
1.62883
1.65201
1.67473
1.69698
1.71877
1.74009
1.76094
1.78131
1.80121
1.82063
1.83958
1.85804
1.87602
1.89352
1.91054
1.92708
1.94312
1.95869
1.97377
1.98836
2.00247
2.01609
2.02923
2.04188
2.05404
2.06572
2.07692
2.08763
2.09786
2.1076
2.11686
2.12564
2.13394
2.14175
2.14908
2.15594
2.16231
2.1682
2.17362
2.17856
2.18302
2.187
2.1905
2.19354
2.19609
2.1981
2.19953
2.20325
2.19486
2.20693
88.2358
-36.3026
8.40559
-0.0417223
-0.0678566
0.208993
0.257914
0.288942
0.325797
0.363849
0.401755
0.439472
0.47703
0.514427
0.55165
0.588686
0.625523
0.66215
0.698553
0.734723
0.770648
0.806316
0.841717
0.87684
0.911675
0.946211
0.98044
1.01435
1.04793
1.08118
1.11408
1.14662
1.1788
1.21061
1.24205
1.27309
1.30374
1.33399
1.36382
1.39325
1.42225
1.45082
1.47896
1.50667
1.53392
1.56073
1.58708
1.61298
1.63841
1.66337
1.68787
1.71189
1.73543
1.75849
1.78107
1.80316
1.82476
1.84587
1.86649
1.88662
1.90625
1.92538
1.94402
1.96215
1.97978
1.99692
2.01355
2.02968
2.0453
2.06042
2.07504
2.08916
2.10277
2.11588
2.12848
2.14059
2.15219
2.16329
2.17389
2.18398
2.19358
2.20267
2.21127
2.21937
2.22697
2.23407
2.24068
2.24678
2.2524
2.25751
2.26213
2.26626
2.26989
2.27304
2.27568
2.27777
2.27929
2.28285
2.27492
2.28671
88.2365
-36.3006
8.40892
-0.0370541
-0.0618568
0.216322
0.266569
0.298921
0.337097
0.376465
0.415682
0.454707
0.493567
0.532261
0.570774
0.609094
0.647208
0.685104
0.72277
0.760193
0.797363
0.834268
0.870896
0.907236
0.943279
0.979012
1.01443
1.04951
1.08426
1.11866
1.1527
1.18637
1.21967
1.25258
1.2851
1.31722
1.34893
1.38023
1.4111
1.44154
1.47155
1.50111
1.53023
1.55889
1.58709
1.61483
1.64209
1.66888
1.6952
1.72103
1.74637
1.77122
1.79558
1.81944
1.8428
1.86565
1.888
1.90985
1.93118
1.95201
1.97232
1.99211
2.01139
2.03015
2.0484
2.06612
2.08333
2.10002
2.11618
2.13183
2.14696
2.16156
2.17564
2.18921
2.20225
2.21477
2.22678
2.23826
2.24922
2.25967
2.2696
2.27901
2.28791
2.29628
2.30415
2.3115
2.31833
2.32465
2.33046
2.33575
2.34053
2.3448
2.34856
2.35181
2.35455
2.35672
2.35832
2.36173
2.35423
2.36577
88.2371
-36.2986
8.41223
-0.0324298
-0.0559135
0.223582
0.275143
0.308806
0.34829
0.388962
0.429479
0.469798
0.509949
0.549926
0.589717
0.629309
0.668688
0.707842
0.746758
0.785423
0.823827
0.861956
0.8998
0.937346
0.974585
1.0115
1.04809
1.08434
1.12024
1.15578
1.19095
1.22574
1.26014
1.29415
1.32775
1.36093
1.3937
1.42603
1.45793
1.48938
1.52038
1.55093
1.58101
1.61062
1.63976
1.66841
1.69658
1.72426
1.75145
1.77813
1.80432
1.82999
1.85516
1.87981
1.90394
1.92756
1.95065
1.97322
1.99526
2.01678
2.03776
2.05821
2.07813
2.09751
2.11636
2.13468
2.15246
2.1697
2.1864
2.20256
2.21819
2.23328
2.24783
2.26184
2.27532
2.28825
2.30066
2.31252
2.32385
2.33464
2.3449
2.35462
2.36381
2.37247
2.3806
2.38819
2.39525
2.40178
2.40778
2.41325
2.41819
2.4226
2.42649
2.42985
2.43268
2.43492
2.4366
2.43987
2.43278
2.44409
88.2378
-36.2966
8.4155
-0.0278507
-0.0500283
0.23077
0.283633
0.318595
0.359373
0.401336
0.443141
0.484742
0.52617
0.567419
0.608476
0.649327
0.689959
0.730358
0.770511
0.810407
0.850032
0.889374
0.928421
0.967162
1.00558
1.04368
1.08143
1.11883
1.15588
1.19254
1.22883
1.26473
1.30023
1.33531
1.36998
1.40422
1.43802
1.47139
1.5043
1.53675
1.56874
1.60025
1.63129
1.66185
1.69191
1.72147
1.75054
1.7791
1.80715
1.83468
1.8617
1.88819
1.91416
1.93959
1.96449
1.98886
2.01268
2.03597
2.05871
2.08091
2.10256
2.12366
2.14421
2.16421
2.18366
2.20256
2.2209
2.23869
2.25592
2.2726
2.28872
2.30429
2.3193
2.33376
2.34767
2.36102
2.37381
2.38605
2.39774
2.40888
2.41946
2.4295
2.43898
2.44791
2.45629
2.46413
2.47141
2.47815
2.48434
2.48999
2.49508
2.49964
2.50365
2.50711
2.51003
2.51236
2.51412
2.51727
2.51054
2.52164
88.2384
-36.2947
8.41874
-0.023318
-0.0442027
0.237887
0.292038
0.328284
0.370344
0.413586
0.456664
0.499534
0.542226
0.584734
0.627044
0.669142
0.711013
0.752645
0.794024
0.835137
0.875971
0.916513
0.956752
0.996675
1.03627
1.07553
1.11443
1.15297
1.19115
1.22893
1.26633
1.30332
1.3399
1.37606
1.41178
1.44707
1.4819
1.51628
1.5502
1.58364
1.6166
1.64908
1.68106
1.71255
1.74353
1.774
1.80395
1.83338
1.86228
1.89066
1.9185
1.9458
1.97255
1.99876
2.02442
2.04953
2.07409
2.09808
2.12152
2.14439
2.1667
2.18845
2.20962
2.23023
2.25028
2.26975
2.28865
2.30698
2.32474
2.34192
2.35854
2.37458
2.39005
2.40495
2.41928
2.43304
2.44622
2.45884
2.47088
2.48236
2.49327
2.50361
2.51338
2.52258
2.53122
2.53929
2.5468
2.55375
2.56013
2.56594
2.5712
2.57589
2.58002
2.58359
2.5866
2.589
2.59084
2.59388
2.58749
2.59842
88.2391
-36.2927
8.42194
-0.0188328
-0.0384384
0.244928
0.300353
0.337871
0.3812
0.425706
0.470045
0.514171
0.558114
0.601867
0.645417
0.688748
0.731846
0.774698
0.817289
0.859606
0.901637
0.943367
0.984785
1.02588
1.06663
1.10704
1.14708
1.18676
1.22605
1.26494
1.30343
1.34151
1.37916
1.41637
1.45314
1.48946
1.52532
1.5607
1.59561
1.63003
1.66396
1.69739
1.73031
1.76272
1.79461
1.82597
1.8568
1.88709
1.91684
1.94604
1.9747
2.00279
2.03033
2.05731
2.08372
2.10957
2.13484
2.15954
2.18366
2.2072
2.23017
2.25255
2.27435
2.29556
2.31619
2.33623
2.35568
2.37455
2.39283
2.41052
2.42762
2.44413
2.46006
2.47539
2.49014
2.5043
2.51787
2.53085
2.54325
2.55506
2.56629
2.57693
2.58699
2.59646
2.60536
2.61367
2.62139
2.62854
2.63511
2.6411
2.64651
2.65134
2.65559
2.65927
2.66236
2.66484
2.66675
2.6697
2.66361
2.67439
88.2397
-36.2908
8.42511
-0.0143964
-0.0327367
0.251893
0.308579
0.347355
0.391938
0.437695
0.48328
0.528649
0.573829
0.618814
0.66359
0.708141
0.752453
0.796511
0.840301
0.88381
0.927024
0.969929
1.01251
1.05476
1.09666
1.13821
1.17938
1.22017
1.26057
1.30055
1.34013
1.37928
1.41799
1.45625
1.49405
1.53139
1.56826
1.60464
1.64053
1.67592
1.71081
1.74518
1.77902
1.81234
1.84513
1.87737
1.90906
1.94021
1.9708
2.00082
2.03028
2.05917
2.08749
2.11522
2.14238
2.16895
2.19493
2.22032
2.24512
2.26933
2.29294
2.31595
2.33836
2.36017
2.38138
2.40198
2.42198
2.44138
2.46017
2.47836
2.49594
2.51292
2.52929
2.54506
2.56022
2.57478
2.58873
2.60208
2.61483
2.62697
2.63852
2.64946
2.6598
2.66954
2.67868
2.68723
2.69517
2.70252
2.70927
2.71543
2.72099
2.72596
2.73033
2.73411
2.7373
2.73985
2.74183
2.7447
2.73888
2.74954
88.2403
-36.289
8.42825
-0.0100099
-0.0270992
0.258779
0.316712
0.356731
0.402555
0.449549
0.496367
0.542964
0.589367
0.63557
0.681558
0.727316
0.772827
0.818078
0.863054
0.907741
0.952124
0.996191
1.03993
1.08332
1.12636
1.16903
1.21131
1.25321
1.2947
1.33577
1.37641
1.41662
1.45638
1.49567
1.5345
1.57286
1.61072
1.64809
1.68495
1.7213
1.75712
1.79242
1.82718
1.8614
1.89507
1.92819
1.96074
1.99273
2.02415
2.05498
2.08524
2.11491
2.14399
2.17248
2.20037
2.22766
2.25434
2.28042
2.30589
2.33075
2.355
2.37863
2.40165
2.42405
2.44583
2.467
2.48754
2.50746
2.52676
2.54544
2.5635
2.58093
2.59775
2.61394
2.62951
2.64446
2.6588
2.67251
2.6856
2.69807
2.70993
2.72116
2.73179
2.74179
2.75118
2.75996
2.76812
2.77567
2.7826
2.78893
2.79464
2.79974
2.80423
2.80812
2.81139
2.81401
2.81606
2.81887
2.81329
2.82385
88.2409
-36.2871
8.43135
-0.00567441
-0.0215273
0.265585
0.32475
0.365998
0.413048
0.461264
0.509301
0.557112
0.604724
0.652131
0.699318
0.746267
0.792965
0.839394
0.885542
0.931393
0.976933
1.02215
1.06702
1.11155
1.15571
1.19949
1.24287
1.28586
1.32843
1.37057
1.41227
1.45353
1.49432
1.53464
1.57448
1.61383
1.65268
1.69102
1.72884
1.76614
1.8029
1.83912
1.87478
1.90989
1.94444
1.97842
2.01182
2.04464
2.07687
2.10851
2.13956
2.17
2.19984
2.22907
2.25768
2.28568
2.31306
2.33982
2.36595
2.39146
2.41634
2.44059
2.4642
2.48719
2.50953
2.53125