/*--------------------------------*- C++ -*----------------------------------*\
  =========                 |
  \\      /  F ield         | OpenFOAM: The Open Source CFD Toolbox
   \\    /   O peration     | Website:  https://openfoam.org
    \\  /    A nd           | Version:  10
     \\/     M anipulation  |
\*---------------------------------------------------------------------------*/
FoamFile
{
    format      ascii;
    class       volScalarField;
    location    "40";
    object      T_0;
}
// * * * * * * * * * * * * * * * * * * * * * * * * * * * * * * * * * * * * * //

dimensions      [0 0 0 1 0 0 0];

internalField   nonuniform List<scalar> 
10000
(
374.987
361.302
356.63
354.586
353.482
352.788
352.308
351.951
351.674
351.451
351.267
351.11
350.975
350.857
350.752
350.657
350.572
350.493
350.421
350.354
350.291
350.232
350.177
350.124
350.074
350.026
349.981
349.937
349.895
349.855
349.816
349.779
349.742
349.707
349.673
349.64
349.607
349.576
349.546
349.516
349.487
349.459
349.431
349.404
349.378
349.353
349.328
349.303
349.279
349.256
349.233
349.211
349.19
349.169
349.148
349.128
349.108
349.089
349.071
349.053
349.035
349.018
349.001
348.985
348.969
348.954
348.939
348.925
348.911
348.897
348.884
348.872
348.859
348.848
348.837
348.826
348.815
348.805
348.796
348.787
348.778
348.77
348.763
348.755
348.748
348.742
348.736
348.731
348.726
348.721
348.717
348.713
348.71
348.707
348.704
348.702
348.701
348.7
348.699
348.699
388.626
374.891
367.26
362.822
360.036
358.153
356.799
355.775
354.97
354.316
353.773
353.31
352.91
352.558
352.246
351.964
351.708
351.474
351.258
351.057
350.87
350.694
350.528
350.37
350.221
350.078
349.942
349.811
349.686
349.565
349.448
349.336
349.227
349.121
349.019
348.919
348.823
348.729
348.637
348.548
348.461
348.377
348.294
348.214
348.135
348.058
347.984
347.91
347.839
347.769
347.701
347.635
347.57
347.507
347.445
347.385
347.326
347.269
347.213
347.159
347.106
347.055
347.004
346.956
346.909
346.863
346.818
346.775
346.733
346.693
346.654
346.616
346.579
346.544
346.511
346.478
346.447
346.418
346.389
346.362
346.336
346.312
346.289
346.267
346.247
346.227
346.21
346.193
346.178
346.164
346.152
346.14
346.13
346.122
346.114
346.108
346.104
346.1
346.098
346.098
393.249
382.378
374.698
369.404
365.687
362.989
360.959
359.38
358.113
357.072
356.197
355.448
354.796
354.221
353.708
353.245
352.824
352.437
352.08
351.748
351.438
351.146
350.87
350.609
350.361
350.125
349.898
349.681
349.472
349.271
349.078
348.89
348.709
348.533
348.363
348.197
348.036
347.88
347.728
347.579
347.435
347.294
347.156
347.022
346.891
346.764
346.639
346.517
346.398
346.282
346.169
346.058
345.95
345.845
345.742
345.642
345.544
345.449
345.356
345.265
345.177
345.091
345.008
344.927
344.848
344.772
344.697
344.626
344.556
344.489
344.423
344.361
344.3
344.242
344.185
344.131
344.08
344.03
343.983
343.938
343.895
343.854
343.816
343.779
343.745
343.713
343.684
343.656
343.631
343.608
343.587
343.568
343.552
343.537
343.525
343.515
343.507
343.502
343.498
343.497
395.244
386.671
379.751
374.409
370.319
367.158
364.67
362.672
361.033
359.662
358.497
357.489
356.606
355.823
355.121
354.486
353.906
353.373
352.879
352.419
351.988
351.583
351.2
350.837
350.492
350.162
349.847
349.544
349.253
348.973
348.702
348.44
348.187
347.942
347.704
347.473
347.248
347.029
346.816
346.609
346.407
346.21
346.018
345.83
345.647
345.468
345.294
345.124
344.958
344.795
344.637
344.482
344.331
344.184
344.04
343.899
343.763
343.629
343.499
343.373
343.249
343.129
343.013
342.899
342.789
342.682
342.578
342.477
342.38
342.286
342.195
342.107
342.022
341.94
341.861
341.786
341.714
341.644
341.578
341.515
341.455
341.398
341.344
341.293
341.246
341.201
341.159
341.121
341.086
341.053
341.024
340.998
340.975
340.955
340.937
340.924
340.913
340.905
340.9
340.898
396.3
389.312
383.227
378.161
374.023
370.654
367.893
365.605
363.684
362.049
360.639
359.406
358.318
357.346
356.469
355.673
354.943
354.27
353.645
353.062
352.515
352
351.512
351.05
350.609
350.188
349.785
349.398
349.025
348.667
348.32
347.985
347.661
347.346
347.041
346.745
346.456
346.176
345.903
345.637
345.377
345.125
344.878
344.637
344.402
344.173
343.949
343.73
343.517
343.308
343.105
342.906
342.712
342.523
342.338
342.158
341.982
341.811
341.644
341.481
341.323
341.168
341.018
340.873
340.731
340.594
340.46
340.331
340.206
340.085
339.968
339.855
339.746
339.641
339.54
339.442
339.349
339.26
339.175
339.094
339.017
338.944
338.875
338.809
338.748
338.691
338.637
338.588
338.542
338.501
338.463
338.43
338.4
338.374
338.352
338.334
338.32
338.31
338.304
338.302
396.946
391.051
385.684
380.985
376.959
373.542
370.643
368.172
366.051
364.212
362.603
361.182
359.914
358.774
357.739
356.794
355.925
355.121
354.372
353.671
353.012
352.391
351.802
351.243
350.709
350.199
349.71
349.24
348.788
348.351
347.93
347.523
347.128
346.745
346.373
346.012
345.661
345.319
344.986
344.662
344.346
344.037
343.737
343.443
343.156
342.876
342.603
342.336
342.076
341.821
341.573
341.33
341.094
340.863
340.637
340.417
340.202
339.993
339.789
339.591
339.397
339.209
339.026
338.848
338.675
338.507
338.344
338.187
338.034
337.886
337.743
337.605
337.472
337.343
337.22
337.101
336.988
336.879
336.775
336.676
336.582
336.493
336.408
336.328
336.254
336.183
336.118
336.058
336.002
335.951
335.906
335.864
335.828
335.797
335.77
335.748
335.731
335.719
335.711
335.708
397.378
392.261
387.473
383.136
379.288
375.912
372.966
370.392
368.136
366.147
364.382
362.805
361.385
360.097
358.922
357.843
356.845
355.918
355.053
354.241
353.476
352.753
352.066
351.413
350.789
350.192
349.619
349.068
348.537
348.025
347.53
347.052
346.587
346.137
345.7
345.275
344.861
344.459
344.066
343.684
343.312
342.948
342.593
342.247
341.909
341.579
341.257
340.942
340.635
340.335
340.042
339.755
339.476
339.203
338.937
338.678
338.424
338.177
337.937
337.702
337.474
337.252
337.036
336.826
336.621
336.423
336.231
336.045
335.864
335.69
335.521
335.358
335.201
335.049
334.903
334.764
334.629
334.501
334.378
334.261
334.15
334.045
333.945
333.851
333.762
333.68
333.603
333.531
333.466
333.406
333.351
333.303
333.26
333.223
333.191
333.165
333.145
333.131
333.122
333.119
397.687
393.141
388.813
384.798
381.144
377.856
374.916
372.295
369.955
367.859
365.975
364.273
362.725
361.311
360.012
358.811
357.697
356.657
355.683
354.767
353.901
353.081
352.301
351.557
350.846
350.165
349.51
348.881
348.273
347.687
347.12
346.571
346.038
345.521
345.019
344.531
344.056
343.593
343.143
342.703
342.275
341.856
341.448
341.05
340.661
340.281
339.91
339.548
339.194
338.848
338.511
338.181
337.859
337.545
337.239
336.94
336.648
336.363
336.086
335.816
335.553
335.297
335.048
334.806
334.571
334.342
334.121
333.906
333.698
333.497
333.302
333.114
332.933
332.758
332.59
332.429
332.275
332.127
331.985
331.85
331.722
331.6
331.485
331.377
331.275
331.18
331.091
331.009
330.933
330.864
330.801
330.745
330.696
330.653
330.617
330.587
330.564
330.547
330.537
330.533
397.916
393.802
389.84
386.102
382.634
379.451
376.551
373.918
371.53
369.363
367.389
365.587
363.934
362.413
361.005
359.697
358.477
357.334
356.26
355.245
354.285
353.372
352.503
351.673
350.878
350.116
349.382
348.675
347.994
347.335
346.697
346.079
345.479
344.897
344.331
343.781
343.245
342.723
342.214
341.718
341.234
340.762
340.301
339.851
339.411
338.982
338.563
338.153
337.753
337.362
336.981
336.608
336.244
335.888
335.542
335.203
334.873
334.551
334.238
333.932
333.634
333.345
333.063
332.789
332.523
332.264
332.013
331.77
331.535
331.307
331.087
330.874
330.669
330.472
330.282
330.099
329.924
329.756
329.596
329.444
329.299
329.161
329.031
328.908
328.792
328.685
328.584
328.491
328.405
328.327
328.256
328.193
328.137
328.088
328.047
328.013
327.987
327.968
327.957
327.952
398.091
394.312
390.642
387.138
383.839
380.764
377.919
375.298
372.888
370.673
368.634
366.754
365.016
363.403
361.901
360.499
359.184
357.947
356.779
355.674
354.625
353.626
352.672
351.759
350.884
350.042
349.233
348.452
347.697
346.967
346.261
345.575
344.91
344.263
343.635
343.023
342.427
341.847
341.281
340.729
340.19
339.664
339.151
338.65
338.16
337.682
337.215
336.758
336.312
335.877
335.451
335.035
334.629
334.233
333.846
333.469
333.101
332.742
332.392
332.051
331.719
331.396
331.081
330.775
330.478
330.19
329.91
329.639
329.376
329.122
328.876
328.639
328.41
328.189
327.977
327.774
327.578
327.391
327.213
327.042
326.88
326.726
326.581
326.444
326.315
326.195
326.083
325.979
325.883
325.796
325.717
325.646
325.583
325.529
325.483
325.445
325.416
325.395
325.382
325.377
398.228
394.713
391.279
387.97
384.821
381.849
379.065
376.469
374.054
371.809
369.724
367.783
365.975
364.285
362.702
361.216
359.816
358.494
357.242
356.052
354.92
353.839
352.804
351.813
350.861
349.944
349.061
348.207
347.383
346.584
345.81
345.059
344.329
343.62
342.93
342.258
341.603
340.965
340.342
339.735
339.142
338.564
337.999
337.447
336.907
336.381
335.866
335.363
334.871
334.391
333.922
333.464
333.017
332.58
332.153
331.737
331.331
330.935
330.549
330.173
329.807
329.45
329.103
328.766
328.438
328.12
327.811
327.512
327.222
326.941
326.67
326.408
326.156
325.912
325.678
325.453
325.238
325.031
324.834
324.646
324.467
324.298
324.137
323.986
323.844
323.711
323.587
323.472
323.367
323.27
323.183
323.105
323.036
322.976
322.925
322.884
322.851
322.828
322.814
322.809
398.337
395.033
391.79
388.645
385.625
382.748
380.026
377.46
375.05
372.79
370.67
368.683
366.818
365.064
363.411
361.851
360.376
358.976
357.646
356.378
355.168
354.01
352.9
351.834
350.808
349.819
348.865
347.942
347.049
346.184
345.344
344.529
343.736
342.965
342.215
341.484
340.771
340.076
339.398
338.737
338.091
337.46
336.844
336.241
335.653
335.078
334.516
333.967
333.431
332.907
332.394
331.894
331.405
330.928
330.462
330.007
329.564
329.131
328.709
328.298
327.898
327.508
327.129
326.761
326.402
326.054
325.717
325.39
325.073
324.766
324.47
324.183
323.907
323.641
323.385
323.139
322.903
322.678
322.462
322.256
322.061
321.875
321.7
321.534
321.379
321.234
321.098
320.973
320.857
320.752
320.656
320.571
320.496
320.43
320.375
320.329
320.294
320.268
320.253
320.247
398.424
395.291
392.205
389.196
386.288
383.495
380.831
378.298
375.899
373.631
371.489
369.465
367.553
365.745
364.032
362.407
360.864
359.394
357.992
356.653
355.371
354.141
352.959
351.822
350.726
349.668
348.645
347.655
346.696
345.766
344.863
343.985
343.131
342.3
341.49
340.701
339.932
339.181
338.449
337.733
337.035
336.352
335.686
335.034
334.397
333.775
333.167
332.572
331.991
331.423
330.868
330.326
329.796
329.279
328.774
328.281
327.8
327.331
326.873
326.428
325.994
325.571
325.16
324.76
324.371
323.994
323.628
323.273
322.929
322.596
322.275
321.964
321.664
321.376
321.098
320.831
320.575
320.33
320.097
319.873
319.661
319.46
319.269
319.09
318.921
318.763
318.616
318.48
318.355
318.241
318.137
318.044
317.963
317.891
317.831
317.782
317.743
317.716
317.699
317.693
398.495
395.5
392.544
389.649
386.835
384.117
381.505
379.006
376.621
374.35
372.191
370.139
368.189
366.334
364.569
362.887
361.283
359.749
358.282
356.876
355.527
354.229
352.98
351.776
350.613
349.489
348.4
347.346
346.323
345.33
344.365
343.426
342.513
341.623
340.755
339.91
339.084
338.279
337.493
336.725
335.975
335.241
334.525
333.824
333.14
332.47
331.816
331.176
330.551
329.94
329.343
328.759
328.189
327.632
327.088
326.557
326.039
325.534
325.041
324.561
324.094
323.638
323.195
322.764
322.346
321.939
321.545
321.162
320.791
320.433
320.086
319.751
319.428
319.117
318.818
318.53
318.254
317.99
317.738
317.498
317.269
317.052
316.847
316.653
316.471
316.301
316.143
315.996
315.861
315.738
315.626
315.526
315.438
315.361
315.296
315.243
315.201
315.172
315.153
315.147
398.554
395.672
392.822
390.021
387.288
384.634
382.07
379.601
377.231
374.961
372.79
370.715
368.733
366.839
365.028
363.295
361.636
360.045
358.518
357.05
355.638
354.277
352.964
351.696
350.469
349.282
348.131
347.014
345.93
344.876
343.851
342.853
341.881
340.934
340.01
339.109
338.229
337.37
336.531
335.711
334.91
334.127
333.361
332.613
331.881
331.165
330.465
329.781
329.112
328.458
327.819
327.194
326.584
325.988
325.405
324.837
324.282
323.741
323.214
322.699
322.198
321.711
321.236
320.774
320.326
319.89
319.467
319.057
318.66
318.276
317.904
317.545
317.199
316.866
316.545
316.237
315.941
315.658
315.388
315.13
314.885
314.652
314.432
314.225
314.03
313.847
313.677
313.52
313.375
313.243
313.123
313.016
312.922
312.839
312.77
312.713
312.668
312.636
312.617
312.61
398.601
395.813
393.05
390.329
387.663
385.064
382.541
380.1
377.744
375.476
373.297
371.203
369.193
367.265
365.413
363.635
361.926
360.283
358.701
357.176
355.705
354.285
352.912
351.583
350.296
349.048
347.836
346.66
345.516
344.404
343.32
342.265
341.237
340.233
339.254
338.299
337.366
336.454
335.563
334.692
333.841
333.009
332.195
331.399
330.62
329.859
329.114
328.386
327.674
326.978
326.297
325.632
324.981
324.346
323.726
323.12
322.529
321.953
321.39
320.842
320.308
319.788
319.282
318.79
318.312
317.847
317.397
316.96
316.536
316.126
315.73
315.347
314.978
314.622
314.28
313.951
313.636
313.334
313.046
312.771
312.509
312.261
312.026
311.805
311.597
311.402
311.221
311.053
310.899
310.758
310.63
310.516
310.415
310.327
310.253
310.192
310.145
310.111
310.09
310.082
398.64
395.929
393.238
390.582
387.973
385.42
382.933
380.515
378.173
375.908
373.721
371.611
369.578
367.619
365.731
363.912
362.158
360.466
358.833
357.255
355.73
354.253
352.823
351.437
350.092
348.786
347.518
346.283
345.083
343.913
342.774
341.662
340.579
339.521
338.488
337.48
336.494
335.531
334.589
333.669
332.768
331.887
331.026
330.183
329.359
328.552
327.763
326.991
326.237
325.499
324.777
324.071
323.382
322.708
322.05
321.408
320.781
320.169
319.572
318.991
318.424
317.872
317.335
316.813
316.305
315.812
315.333
314.869
314.419
313.984
313.563
313.157
312.765
312.387
312.024
311.675
311.34
311.019
310.713
310.421
310.143
309.879
309.63
309.395
309.174
308.967
308.775
308.596
308.432
308.282
308.147
308.025
307.918
307.825
307.746
307.682
307.631
307.595
307.573
307.565
398.672
396.023
393.392
390.79
388.228
385.715
383.256
380.86
378.528
376.265
374.072
371.948
369.894
367.908
365.987
364.131
362.335
360.599
358.918
357.29
355.713
354.184
352.7
351.26
349.86
348.499
347.174
345.885
344.629
343.404
342.21
341.045
339.908
338.797
337.712
336.651
335.614
334.601
333.609
332.64
331.691
330.763
329.854
328.966
328.096
327.245
326.412
325.598
324.801
324.021
323.259
322.514
321.786
321.074
320.379
319.7
319.037
318.39
317.76
317.145
316.546
315.962
315.394
314.842
314.305
313.783
313.277
312.786
312.311
311.85
311.405
310.975
310.56
310.161
309.776
309.407
309.053
308.714
308.389
308.08
307.786
307.507
307.244
306.995
306.761
306.542
306.339
306.15
305.976
305.818
305.674
305.546
305.432
305.334
305.25
305.182
305.128
305.09
305.067
305.058
398.698
396.101
393.518
390.961
388.437
385.955
383.522
381.142
378.819
376.558
374.358
372.221
370.147
368.136
366.185
364.294
362.461
360.683
358.958
357.284
355.658
354.079
352.544
351.052
349.599
348.185
346.808
345.465
344.155
342.878
341.631
340.413
339.224
338.061
336.925
335.814
334.727
333.664
332.624
331.606
330.61
329.635
328.68
327.746
326.832
325.937
325.062
324.205
323.366
322.546
321.744
320.96
320.193
319.444
318.712
317.997
317.299
316.617
315.953
315.305
314.674
314.059
313.46
312.878
312.312
311.763
311.229
310.712
310.21
309.725
309.256
308.803
308.365
307.944
307.539
307.149
306.776
306.418
306.076
305.75
305.44
305.146
304.868
304.605
304.359
304.128
303.913
303.714
303.531
303.364
303.213
303.077
302.957
302.854
302.766
302.693
302.637
302.597
302.572
302.563
398.719
396.163
393.62
391.099
388.607
386.15
383.737
381.37
379.054
376.792
374.586
372.436
370.344
368.309
366.331
364.408
362.538
360.721
358.955
357.237
355.566
353.94
352.356
350.814
349.312
347.847
346.418
345.024
343.663
342.334
341.036
339.767
338.527
337.314
336.128
334.967
333.832
332.72
331.632
330.567
329.525
328.504
327.504
326.526
325.568
324.63
323.712
322.813
321.934
321.074
320.232
319.409
318.604
317.818
317.049
316.298
315.565
314.85
314.152
313.472
312.809
312.163
311.534
310.922
310.328
309.75
309.19
308.646
308.119
307.609
307.116
306.64
306.18
305.737
305.311
304.902
304.509
304.133
303.774
303.431
303.105
302.796
302.503
302.227
301.968
301.726
301.5
301.291
301.098
300.922
300.763
300.621
300.495
300.385
300.293
300.217
300.158
300.115
300.089
300.08
398.736
396.214
393.702
391.209
388.742
386.306
383.908
381.551
379.239
376.975
374.762
372.6
370.49
368.433
366.428
364.475
362.572
360.718
358.913
357.153
355.439
353.768
352.138
350.549
348.998
347.484
346.006
344.563
343.152
341.774
340.426
339.108
337.818
336.556
335.321
334.113
332.929
331.77
330.636
329.525
328.436
327.37
326.326
325.304
324.303
323.323
322.363
321.423
320.504
319.604
318.723
317.862
317.02
316.196
315.392
314.606
313.838
313.089
312.358
311.646
310.951
310.274
309.616
308.975
308.352
307.747
307.159
306.589
306.037
305.503
304.986
304.487
304.005
303.541
303.094
302.665
302.253
301.859
301.482
301.123
300.781
300.457
300.151
299.861
299.59
299.335
299.098
298.879
298.677
298.493
298.326
298.176
298.044
297.93
297.833
297.753
297.691
297.647
297.62
297.61
398.75
396.253
393.766
391.296
388.848
386.428
384.04
381.69
379.38
377.113
374.892
372.717
370.59
368.512
366.482
364.5
362.565
360.676
358.833
357.034
355.279
353.565
351.891
350.256
348.659
347.099
345.574
344.082
342.624
341.197
339.801
338.435
337.097
335.788
334.505
333.25
332.02
330.815
329.634
328.478
327.345
326.234
325.147
324.082
323.038
322.016
321.015
320.035
319.076
318.136
317.218
316.319
315.439
314.58
313.74
312.919
312.117
311.335
310.571
309.827
309.101
308.394
307.706
307.036
306.385
305.752
305.138
304.543
303.966
303.407
302.866
302.344
301.841
301.355
300.888
300.439
300.009
299.597
299.203
298.827
298.47
298.131
297.81
297.508
297.223
296.957
296.71
296.48
296.269
296.076
295.902
295.745
295.607
295.488
295.386
295.303
295.238
295.191
295.163
295.153
398.76
396.284
393.816
391.362
388.929
386.52
384.14
381.793
379.482
377.211
374.98
372.793
370.649
368.55
366.495
364.485
362.52
360.598
358.719
356.883
355.088
353.333
351.617
349.939
348.297
346.692
345.121
343.583
342.078
340.605
339.162
337.749
336.365
335.009
333.681
332.379
331.103
329.853
328.628
327.427
326.25
325.097
323.966
322.859
321.773
320.71
319.669
318.649
317.65
316.673
315.716
314.78
313.864
312.969
312.093
311.238
310.403
309.588
308.792
308.016
307.259
306.522
305.804
305.106
304.427
303.768
303.127
302.506
301.904
301.321
300.758
300.213
299.688
299.181
298.694
298.226
297.777
297.347
296.936
296.544
296.171
295.818
295.483
295.167
294.871
294.593
294.335
294.095
293.875
293.674
293.491
293.328
293.184
293.059
292.953
292.866
292.799
292.75
292.72
292.71
398.767
396.306
393.852
391.411
388.987
386.585
384.21
381.864
379.551
377.273
375.032
372.831
370.67
368.55
366.472
364.435
362.44
360.487
358.574
356.701
354.868
353.074
351.317
349.597
347.913
346.264
344.649
343.067
341.517
339.998
338.51
337.052
335.622
334.221
332.847
331.501
330.181
328.886
327.617
326.373
325.153
323.957
322.785
321.635
320.509
319.406
318.325
317.265
316.228
315.213
314.219
313.246
312.294
311.363
310.454
309.564
308.696
307.848
307.02
306.213
305.426
304.659
303.913
303.186
302.48
301.793
301.127
300.48
299.854
299.247
298.661
298.094
297.547
297.02
296.513
296.025
295.558
295.11
294.682
294.274
293.886
293.517
293.169
292.84
292.531
292.242
291.973
291.724
291.495
291.285
291.095
290.925
290.775
290.645
290.535
290.444
290.374
290.323
290.292
290.281
398.773
396.321
393.877
391.443
389.026
386.628
384.254
381.907
379.589
377.303
375.051
372.836
370.657
368.517
366.415
364.352
362.329
360.344
358.399
356.491
354.622
352.789
350.994
349.233
347.508
345.817
344.159
342.534
340.94
339.378
337.845
336.343
334.869
333.424
332.006
330.616
329.252
327.914
326.602
325.316
324.054
322.816
321.602
320.412
319.246
318.103
316.983
315.885
314.81
313.757
312.726
311.717
310.73
309.764
308.82
307.898
306.996
306.116
305.257
304.419
303.602
302.806
302.031
301.276
300.542
299.83
299.137
298.466
297.815
297.185
296.576
295.987
295.418
294.871
294.344
293.837
293.352
292.886
292.442
292.018
291.614
291.231
290.869
290.528
290.207
289.906
289.627
289.368
289.129
288.911
288.714
288.537
288.382
288.246
288.132
288.038
287.964
287.912
287.88
287.868
398.776
396.331
393.892
391.463
389.048
386.651
384.276
381.924
379.6
377.305
375.041
372.81
370.614
368.453
366.328
364.24
362.189
360.174
358.197
356.256
354.351
352.482
350.648
348.848
347.083
345.351
343.652
341.985
340.349
338.744
337.169
335.623
334.107
332.618
331.158
329.725
328.318
326.938
325.584
324.256
322.953
321.674
320.42
319.19
317.984
316.802
315.643
314.508
313.395
312.305
311.238
310.194
309.172
308.172
307.194
306.238
305.304
304.393
303.502
302.634
301.787
300.962
300.159
299.377
298.616
297.877
297.159
296.463
295.788
295.135
294.503
293.892
293.303
292.735
292.188
291.663
291.159
290.677
290.215
289.776
289.357
288.96
288.584
288.23
287.897
287.585
287.295
287.026
286.779
286.553
286.348
286.165
286.003
285.863
285.744
285.647
285.57
285.516
285.483
285.471
398.777
396.335
393.898
391.47
389.055
386.656
384.277
381.92
379.587
377.281
375.004
372.758
370.543
368.362
366.214
364.1
362.022
359.978
357.969
355.996
354.056
352.152
350.281
348.444
346.64
344.869
343.129
341.421
339.745
338.098
336.481
334.894
333.335
331.805
330.303
328.828
327.38
325.959
324.564
323.194
321.85
320.532
319.238
317.969
316.724
315.504
314.307
313.134
311.985
310.859
309.756
308.677
307.62
306.586
305.575
304.587
303.621
302.678
301.757
300.859
299.983
299.129
298.298
297.488
296.701
295.936
295.193
294.473
293.774
293.098
292.443
291.811
291.201
290.613
290.047
289.503
288.981
288.482
288.004
287.548
287.115
286.704
286.315
285.948
285.603
285.28
284.979
284.701
284.445
284.211
283.999
283.809
283.641
283.496
283.373
283.272
283.193
283.136
283.102
283.089
398.777
396.335
393.896
391.467
389.049
386.646
384.261
381.895
379.553
377.235
374.944
372.681
370.448
368.245
366.075
363.936
361.831
359.758
357.719
355.714
353.741
351.802
349.896
348.022
346.18
344.37
342.592
340.845
339.128
337.441
335.784
334.156
332.556
330.985
329.442
327.926
326.437
324.976
323.54
322.131
320.747
319.39
318.057
316.749
315.466
314.208
312.974
311.765
310.579
309.418
308.28
307.166
306.075
305.008
303.964
302.944
301.947
300.973
300.022
299.094
298.189
297.307
296.448
295.611
294.798
294.008
293.24
292.495
291.773
291.074
290.398
289.744
289.113
288.505
287.92
287.358
286.818
286.302
285.808
285.337
284.889
284.463
284.061
283.681
283.325
282.991
282.68
282.392
282.127
281.885
281.666
281.47
281.296
281.146
281.018
280.914
280.833
280.774
280.738
280.725
398.776
396.33
393.888
391.455
389.031
386.622
384.228
381.854
379.5
377.169
374.862
372.582
370.33
368.106
365.913
363.75
361.617
359.517
357.448
355.411
353.406
351.433
349.492
347.583
345.705
343.858
342.041
340.255
338.5
336.773
335.077
333.409
331.769
330.158
328.575
327.02
325.491
323.99
322.515
321.067
319.644
318.248
316.877
315.531
314.211
312.916
311.646
310.4
309.179
307.982
306.81
305.662
304.538
303.438
302.362
301.31
300.282
299.277
298.296
297.339
296.406
295.496
294.609
293.747
292.907
292.092
291.299
290.531
289.785
289.064
288.366
287.691
287.04
286.412
285.808
285.228
284.671
284.137
283.627
283.141
282.678
282.239
281.823
281.432
281.063
280.719
280.398
280.1
279.827
279.576
279.35
279.147
278.968
278.813
278.682
278.574
278.49
278.429
278.392
278.379
398.773
396.322
393.874
391.434
389.003
386.585
384.182
381.796
379.43
377.084
374.762
372.464
370.192
367.947
365.731
363.543
361.384
359.256
357.158
355.09
353.054
351.048
349.073
347.129
345.215
343.331
341.478
339.655
337.861
336.096
334.361
332.654
330.976
329.326
327.704
326.109
324.542
323.002
321.489
320.002
318.541
317.107
315.699
314.316
312.959
311.628
310.321
309.04
307.784
306.553
305.347
304.165
303.009
301.876
300.769
299.685
298.626
297.592
296.581
295.596
294.634
293.696
292.783
291.894
291.029
290.189
289.372
288.58
287.812
287.068
286.348
285.653
284.982
284.335
283.712
283.113
282.539
281.989
281.463
280.962
280.484
280.032
279.603
279.199
278.819
278.464
278.133
277.826
277.544
277.286
277.052
276.843
276.659
276.499
276.363
276.252
276.165
276.103
276.065
276.051
398.769
396.31
393.855
391.406
388.966
386.538
384.123
381.725
379.344
376.984
374.644
372.328
370.036
367.77
365.53
363.317
361.133
358.977
356.85
354.753
352.685
350.647
348.639
346.66
344.712
342.793
340.904
339.044
337.213
335.411
333.638
331.893
330.177
328.489
326.829
325.196
323.591
322.013
320.461
318.937
317.439
315.968
314.523
313.104
311.711
310.344
309.002
307.686
306.396
305.131
303.891
302.677
301.488
300.323
299.184
298.07
296.981
295.917
294.878
293.863
292.874
291.909
290.97
290.055
289.165
288.3
287.459
286.644
285.853
285.087
284.346
283.63
282.939
282.273
281.632
281.015
280.424
279.857
279.316
278.799
278.308
277.842
277.4
276.984
276.593
276.227
275.886
275.57
275.279
275.014
274.773
274.558
274.368
274.203
274.063
273.948
273.859
273.795
273.756
273.741
398.765
396.296
393.831
391.372
388.921
386.481
384.054
381.641
379.246
376.869
374.512
372.176
369.864
367.576
365.313
363.076
360.865
358.682
356.527
354.4
352.302
350.232
348.191
346.18
344.197
342.243
340.319
338.423
336.556
334.718
332.908
331.126
329.373
327.648
325.95
324.28
322.637
321.022
319.434
317.873
316.339
314.831
313.35
311.895
310.467
309.064
307.688
306.338
305.014
303.716
302.443
301.196
299.975
298.78
297.61
296.466
295.347
294.253
293.186
292.143
291.127
290.135
289.169
288.229
287.314
286.425
285.561
284.722
283.909
283.122
282.36
281.623
280.913
280.228
279.568
278.934
278.326
277.743
277.186
276.655
276.149
275.67
275.216
274.787
274.385
274.008
273.658
273.333
273.033
272.76
272.513
272.291
272.096
271.926
271.782
271.664
271.572
271.506
271.466
271.451
398.759
396.279
393.803
391.332
388.868
386.415
383.974
381.547
379.135
376.741
374.366
372.011
369.678
367.367
365.081
362.819
360.583
358.373
356.189
354.033
351.905
349.804
347.732
345.688
343.672
341.684
339.725
337.794
335.892
334.018
332.172
330.354
328.565
326.803
325.069
323.362
321.683
320.032
318.407
316.81
315.24
313.696
312.18
310.69
309.227
307.79
306.38
304.997
303.639
302.308
301.003
299.725
298.472
297.246
296.046
294.872
293.723
292.602
291.506
290.436
289.392
288.374
287.383
286.417
285.478
284.564
283.677
282.816
281.981
281.172
280.39
279.633
278.903
278.199
277.522
276.87
276.245
275.647
275.074
274.529
274.009
273.516
273.05
272.61
272.196
271.809
271.449
271.115
270.807
270.526
270.272
270.045
269.843
269.669
269.521
269.4
269.306
269.238
269.196
269.181
398.753
396.26
393.771
391.287
388.81
386.342
383.886
381.442
379.014
376.602
374.207
371.832
369.478
367.145
364.835
362.549
360.287
358.05
355.839
353.654
351.496
349.365
347.261
345.185
343.137
341.116
339.123
337.158
335.221
333.312
331.431
329.578
327.753
325.955
324.185
322.443
320.728
319.041
317.381
315.749
314.143
312.565
311.014
309.49
307.993
306.522
305.079
303.662
302.272
300.909
299.572
298.262
296.979
295.722
294.492
293.289
292.112
290.962
289.838
288.741
287.671
286.627
285.61
284.62
283.656
282.719
281.809
280.925
280.069
279.239
278.436
277.66
276.911
276.188
275.493
274.824
274.183
273.569
272.981
272.421
271.888
271.382
270.903
270.451
270.027
269.629
269.259
268.917
268.601
268.313
268.052
267.818
267.612
267.433
267.281
267.156
267.059
266.99
266.947
266.932
398.746
396.239
393.736
391.237
388.745
386.262
383.789
381.329
378.883
376.452
374.038
371.643
369.267
366.912
364.578
362.267
359.979
357.716
355.477
353.264
351.077
348.916
346.781
344.674
342.593
340.54
338.514
336.515
334.545
332.602
330.686
328.798
326.938
325.106
323.301
321.524
319.774
318.052
316.357
314.69
313.05
311.438
309.852
308.294
306.764
305.26
303.784
302.335
300.913
299.518
298.15
296.809
295.496
294.209
292.95
291.718
290.512
289.334
288.184
287.06
285.963
284.894
283.852
282.837
281.85
280.89
279.957
279.051
278.173
277.323
276.499
275.704
274.936
274.195
273.482
272.797
272.139
271.509
270.907
270.333
269.786
269.267
268.776
268.313
267.878
267.47
267.091
266.739
266.415
266.12
265.852
265.612
265.401
265.217
265.061
264.934
264.834
264.763
264.719
264.703
398.738
396.217
393.698
391.183
388.676
386.176
383.686
381.209
378.744
376.294
373.86
371.443
369.046
366.667
364.31
361.974
359.661
357.371
355.106
352.864
350.648
348.457
346.293
344.154
342.042
339.957
337.898
335.867
333.863
331.887
329.937
328.016
326.122
324.255
322.416
320.604
318.82
317.064
315.335
313.634
311.961
310.314
308.696
307.105
305.541
304.005
302.497
301.016
299.562
298.136
296.738
295.367
294.023
292.707
291.419
290.159
288.926
287.72
286.542
285.392
284.27
283.176
282.109
281.07
280.059
279.076
278.121
277.194
276.295
275.424
274.581
273.766
272.979
272.221
271.491
270.789
270.115
269.47
268.853
268.264
267.704
267.173
266.669
266.195
265.749
265.331
264.943
264.582
264.251
263.948
263.673
263.428
263.211
263.023
262.863
262.733
262.631
262.557
262.513
262.497
398.73
396.193
393.657
391.126
388.602
386.085
383.577
381.081
378.597
376.127
373.673
371.235
368.815
366.414
364.033
361.672
359.334
357.018
354.725
352.456
350.211
347.991
345.797
343.628
341.485
339.368
337.278
335.215
333.178
331.169
329.186
327.231
325.304
323.404
321.531
319.686
317.868
316.079
314.316
312.582
310.875
309.196
307.545
305.921
304.325
302.757
301.217
299.705
298.221
296.764
295.335
293.935
292.562
291.217
289.901
288.612
287.352
286.12
284.915
283.74
282.592
281.473
280.382
279.319
278.285
277.279
276.302
275.354
274.434
273.543
272.68
271.846
271.041
270.265
269.518
268.8
268.11
267.45
266.818
266.216
265.643
265.099
264.584
264.098
263.641
263.214
262.816
262.447
262.108
261.798
261.517
261.265
261.043
260.851
260.687
260.554
260.449
260.374
260.329
260.312
398.722
396.167
393.615
391.066
388.524
385.989
383.463
380.948
378.444
375.954
373.478
371.019
368.577
366.152
363.747