/*--------------------------------*- C++ -*----------------------------------*\
  =========                 |
  \\      /  F ield         | OpenFOAM: The Open Source CFD Toolbox
   \\    /   O peration     | Website:  https://openfoam.org
    \\  /    A nd           | Version:  10
     \\/     M anipulation  |
\*---------------------------------------------------------------------------*/
FoamFile
{
    format      ascii;
    class       volScalarField;
    location    "4";
    object      ddt0(T);
}
// * * * * * * * * * * * * * * * * * * * * * * * * * * * * * * * * * * * * * //

dimensions      [0 0 -1 1 0 0 0];

internalField   nonuniform List<scalar> 
10000
(
6855.22
3388.58
3349.44
3403.76
3420.49
3424.76
3425.93
3426.31
3426.46
3426.55
3426.61
3426.66
3426.71
3426.76
3426.8
3426.84
3426.87
3426.9
3426.93
3426.96
3426.98
3427
3427.02
3427.03
3427.04
3427.05
3427.06
3427.06
3427.06
3427.06
3427.06
3427.06
3427.05
3427.05
3427.04
3427.04
3427.03
3427.02
3427.01
3427
3426.99
3426.98
3426.97
3426.96
3426.95
3426.94
3426.93
3426.92
3426.91
3426.91
3426.9
3426.89
3426.88
3426.88
3426.87
3426.86
3426.86
3426.85
3426.85
3426.84
3426.84
3426.83
3426.83
3426.83
3426.83
3426.82
3426.82
3426.82
3426.82
3426.81
3426.81
3426.81
3426.81
3426.81
3426.81
3426.81
3426.81
3426.81
3426.8
3426.8
3426.8
3426.8
3426.8
3426.8
3426.8
3426.8
3426.8
3426.8
3426.8
3426.8
3426.8
3426.79
3426.79
3426.78
3426.7
3426.35
3424.64
3418.23
3424.28
4006.21
3914.43
-750.295
-678.478
-539.658
-496.934
-485.858
-482.836
-481.863
-481.456
-481.221
-481.042
-480.886
-480.744
-480.611
-480.488
-480.374
-480.269
-480.174
-480.088
-480.012
-479.945
-479.887
-479.837
-479.796
-479.763
-479.736
-479.717
-479.705
-479.698
-479.697
-479.701
-479.709
-479.721
-479.737
-479.756
-479.778
-479.802
-479.827
-479.855
-479.883
-479.912
-479.941
-479.971
-480.001
-480.03
-480.059
-480.087
-480.114
-480.141
-480.166
-480.191
-480.214
-480.236
-480.256
-480.276
-480.294
-480.311
-480.326
-480.341
-480.354
-480.367
-480.378
-480.389
-480.398
-480.407
-480.414
-480.421
-480.428
-480.433
-480.439
-480.443
-480.447
-480.451
-480.455
-480.458
-480.461
-480.463
-480.466
-480.468
-480.47
-480.472
-480.474
-480.476
-480.478
-480.48
-480.482
-480.484
-480.486
-480.488
-480.49
-480.493
-480.497
-480.506
-480.536
-480.663
-481.244
-483.872
-494.219
-518.128
-404.106
3856.92
-713.62
-528.842
-343.09
-285.561
-270.205
-265.908
-264.493
-263.88
-263.509
-263.22
-262.963
-262.727
-262.507
-262.302
-262.112
-261.938
-261.779
-261.636
-261.509
-261.396
-261.299
-261.216
-261.147
-261.091
-261.047
-261.015
-260.993
-260.982
-260.979
-260.985
-260.999
-261.019
-261.045
-261.077
-261.113
-261.152
-261.195
-261.24
-261.287
-261.335
-261.385
-261.434
-261.483
-261.532
-261.58
-261.627
-261.672
-261.716
-261.759
-261.799
-261.838
-261.874
-261.908
-261.941
-261.971
-261.999
-262.025
-262.05
-262.072
-262.093
-262.111
-262.129
-262.144
-262.159
-262.172
-262.183
-262.194
-262.203
-262.212
-262.22
-262.227
-262.233
-262.239
-262.244
-262.248
-262.253
-262.257
-262.261
-262.264
-262.267
-262.271
-262.274
-262.277
-262.28
-262.283
-262.287
-262.29
-262.294
-262.297
-262.302
-262.308
-262.318
-262.347
-262.444
-262.831
-264.479
-271.046
-290.056
-278.328
3897.69
-599.306
-370.019
-165.998
-102.153
-84.7274
-79.7173
-78.006
-77.2273
-76.7336
-76.3374
-75.9835
-75.6557
-75.3498
-75.065
-74.8014
-74.5593
-74.3388
-74.1401
-73.9629
-73.8069
-73.6715
-73.556
-73.4596
-73.3814
-73.3203
-73.2754
-73.2456
-73.2297
-73.2266
-73.2352
-73.2543
-73.2828
-73.3196
-73.3637
-73.4141
-73.4696
-73.5295
-73.5927
-73.6586
-73.7262
-73.7949
-73.864
-73.933
-74.0013
-74.0685
-74.1341
-74.1978
-74.2593
-74.3185
-74.375
-74.4288
-74.4798
-74.5279
-74.5731
-74.6154
-74.6548
-74.6915
-74.7254
-74.7567
-74.7854
-74.8118
-74.8359
-74.8579
-74.8778
-74.8959
-74.9123
-74.927
-74.9404
-74.9523
-74.9631
-74.9729
-74.9816
-74.9896
-74.9968
-75.0033
-75.0093
-75.0149
-75.0201
-75.025
-75.0297
-75.0342
-75.0387
-75.0431
-75.0475
-75.052
-75.0566
-75.0614
-75.0663
-75.0716
-75.0776
-75.0852
-75.0974
-75.1231
-75.1882
-75.3816
-76.0548
-78.555
-85.9166
-85.7376
3910.97
-563.578
-320.665
-110.548
-44.3175
-25.9798
-20.5862
-18.6744
-17.7588
-17.1519
-16.6536
-16.2044
-15.7871
-15.3973
-15.0342
-14.698
-14.3892
-14.108
-13.8545
-13.6284
-13.4293
-13.2565
-13.1091
-12.986
-12.8863
-12.8085
-12.7513
-12.7135
-12.6935
-12.6899
-12.7013
-12.7262
-12.7631
-12.8107
-12.8676
-12.9325
-13.0041
-13.0811
-13.1625
-13.2472
-13.3342
-13.4226
-13.5115
-13.6001
-13.6879
-13.7742
-13.8585
-13.9403
-14.0194
-14.0953
-14.1679
-14.237
-14.3025
-14.3643
-14.4223
-14.4766
-14.5272
-14.5742
-14.6178
-14.6579
-14.6948
-14.7287
-14.7596
-14.7878
-14.8134
-14.8366
-14.8575
-14.8765
-14.8936
-14.9089
-14.9228
-14.9352
-14.9465
-14.9566
-14.9658
-14.9742
-14.9819
-14.989
-14.9956
-15.0019
-15.0079
-15.0136
-15.0193
-15.0249
-15.0306
-15.0363
-15.0421
-15.0482
-15.0545
-15.0612
-15.0686
-15.0777
-15.0909
-15.1153
-15.167
-15.2818
-15.5564
-16.3116
-18.1301
-18.0351
3914.45
-554.239
-307.457
-95.388
-28.2663
-9.51247
-3.89484
-1.83371
-0.798546
-0.0854445
0.511572
1.05366
1.55843
2.03037
2.47011
2.87723
3.25123
3.59177
3.89881
4.1726
4.41371
4.62295
4.80135
4.95015
5.07073
5.16459
5.23334
5.27865
5.30225
5.30589
5.29135
5.26039
5.21475
5.15615
5.08625
5.00668
4.91897
4.8246
4.72497
4.62138
4.51503
4.40704
4.29843
4.19012
4.08292
3.97755
3.87464
3.77472
3.67823
3.58555
3.49695
3.41264
3.33278
3.25744
3.18666
3.12043
3.05869
3.00134
2.94826
2.8993
2.85429
2.81304
2.77535
2.74101
2.70981
2.68154
2.65597
2.63289
2.61209
2.59336
2.57652
2.56135
2.54769
2.53535
2.52416
2.51398
2.50465
2.49604
2.48801
2.48044
2.47321
2.46624
2.4594
2.45263
2.44583
2.43894
2.43188
2.4246
2.41701
2.40901
2.40036
2.39039
2.3771
2.35514
2.31249
2.22815
2.07522
1.82757
1.58218
1.90913
3915.43
-551.656
-303.728
-90.9917
-23.4991
-4.52356
1.24784
3.43254
4.57703
5.39146
6.08398
6.71641
7.3064
7.8583
8.3726
8.84872
9.28606
9.68422
10.0431
10.3631
10.6448
10.8892
11.0974
11.2709
11.4113
11.5203
11.5999
11.652
11.6786
11.6817
11.6635
11.6261
11.5714
11.5015
11.4184
11.3239
11.22
11.1082
10.9903
10.8677
10.742
10.6144
10.4861
10.3582
10.2316
10.1072
9.98577
9.86788
9.75405
9.64472
9.54023
9.44081
9.34664
9.25782
9.17439
9.09632
9.02354
8.95595
8.8934
8.83571
8.78267
8.73407
8.68967
8.64922
8.61247
8.57917
8.54907
8.52189
8.49741
8.47538
8.45556
8.43773
8.42167
8.40718
8.39405
8.38211
8.37118
8.3611
8.35171
8.34287
8.33444
8.32631
8.31836
8.31048
8.30259
8.29458
8.28639
8.27794
8.26915
8.25995
8.25017
8.23943
8.22656
8.20813
8.17565
8.11325
8.00397
7.86509
7.87958
8.25581
3915.76
-550.802
-302.47
-89.4533
-21.7651
-2.64152
3.25334
5.54855
6.79588
7.70755
8.49243
9.2124
9.88499
10.5144
11.1009
11.6437
12.1423
12.596
13.0049
13.3693
13.69
13.968
14.2046
14.4015
14.5606
14.6838
14.7733
14.8313
14.8601
14.8622
14.8398
14.7954
14.7312
14.6498
14.5531
14.4436
14.3231
14.1939
14.0576
13.916
13.7709
13.6237
13.4757
13.3283
13.1824
13.0391
12.8992
12.7635
12.6324
12.5065
12.3863
12.2719
12.1635
12.0613
11.9653
11.8755
11.7918
11.7141
11.6421
11.5758
11.5148
11.4589
11.4079
11.3614
11.3192
11.2809
11.2463
11.2151
11.187
11.1617
11.139
11.1185
11.1001
11.0835
11.0685
11.0548
11.0423
11.0308
11.0201
11.0101
11.0005
10.9913
10.9822
10.9733
10.9644
10.9553
10.9461
10.9366
10.9267
10.9163
10.9054
10.8938
10.8809
10.8649
10.8405
10.7956
10.7105
10.5825
10.5551
11.003
3915.9
-550.429
-301.901
-88.723
-20.8993
-1.65625
4.34817
6.74639
8.09171
9.09689
9.97083
10.7753
11.5276
12.2316
12.8876
13.4947
14.052
14.5591
15.0159
15.4227
15.7805
16.0904
16.3539
16.5729
16.7493
16.8855
16.9839
17.0469
17.0772
17.0774
17.0502
16.9982
16.9242
16.8308
16.7204
16.5954
16.4584
16.3115
16.1567
15.9962
15.8316
15.6648
15.4973
15.3303
15.1652
15.0031
14.8449
14.6914
14.5432
14.401
14.265
14.1358
14.0133
13.8979
13.7895
13.6881
13.5935
13.5058
13.4246
13.3497
13.2808
13.2178
13.1602
13.1077
13.0601
13.0169
12.9779
12.9427
12.911
12.8825
12.8569
12.8339
12.8132
12.7945
12.7776
12.7623
12.7483
12.7354
12.7235
12.7122
12.7016
12.6913
12.6813
12.6714
12.6615
12.6515
12.6413
12.6307
12.6198
12.6084
12.5965
12.5838
12.5704
12.5552
12.5354
12.502
12.4329
12.2972
12.1804
12.7586
3915.98
-550.202
-301.541
-88.2404
-20.3034
-0.953435
5.15289
7.64882
9.0879
10.1828
11.1423
12.0279
12.8567
13.6324
14.355
15.0234
15.6369
16.1948
16.6971
17.1442
17.5371
17.877
18.1657
18.4051
18.5975
18.7455
18.8515
18.9186
18.9494
18.947
18.9143
18.8543
18.7699
18.6641
18.5395
18.399
18.2452
18.0804
17.9072
17.7275
17.5436
17.3572
17.1701
16.9837
16.7996
16.6187
16.4423
16.2712
16.1061
15.9475
15.7961
15.6521
15.5158
15.3872
15.2665
15.1536
15.0484
14.9507
14.8604
14.777
14.7005
14.6303
14.5662
14.5079
14.4549
14.4069
14.3636
14.3245
14.2893
14.2576
14.2292
14.2036
14.1807
14.16
14.1413
14.1244
14.1089
14.0948
14.0816
14.0693
14.0576
14.0463
14.0354
14.0246
14.0139
14.003
13.9919
13.9804
13.9686
13.9562
13.9433
13.9297
13.9153
13.9
13.8821
13.8551
13.7965
13.6527
13.4474
14.184
3916.04
-550.024
-301.251
-87.8435
-19.8031
-0.353493
5.84927
8.43831
9.96697
11.1477
12.1891
13.1522
14.054
14.898
15.6839
16.4108
17.0775
17.6836
18.2289
18.7139
19.1397
19.5076
19.8196
20.0778
20.2847
20.443
20.5556
20.6255
20.6559
20.6501
20.6112
20.5425
20.4472
20.3285
20.1895
20.0332
19.8623
19.6796
19.4877
19.289
19.0856
18.8797
18.6731
18.4675
18.2643
18.0649
17.8704
17.6818
17.4999
17.3253
17.1585
17
16.8499
16.7084
16.5756
16.4513
16.3356
16.2281
16.1287
16.037
15.9528
15.8757
15.8053
15.7411
15.6829
15.6302
15.5826
15.5396
15.501
15.4662
15.435
15.407
15.3819
15.3593
15.3388
15.3203
15.3035
15.2881
15.2738
15.2604
15.2477
15.2356
15.2238
15.2123
15.2007
15.189
15.1771
15.1649
15.1522
15.139
15.1252
15.1107
15.0955
15.0795
15.062
15.0384
14.9866
14.8374
14.5547
15.4472
3916.09
-549.866
-300.992
-87.4843
-19.3472
0.196775
6.49113
9.16877
10.7827
12.0452
13.1644
14.2012
15.1723
16.081
16.927
17.709
18.426
19.0772
19.6629
20.1833
20.6397
21.0335
21.3669
21.6421
21.8618
22.029
22.1467
22.2184
22.2474
22.2372
22.1914
22.1133
22.0066
21.8747
21.7209
21.5483
21.3602
21.1595
20.9489
20.731
20.5083
20.2829
20.0569
19.832
19.61
19.3922
19.1798
18.9739
18.7753
18.5848
18.4029
18.23
18.0663
17.9121
17.7673
17.6319
17.5057
17.3886
17.2803
17.1805
17.0888
17.0048
16.9281
16.8583
16.7949
16.7375
16.6857
16.639
16.597
16.5592
16.5253
16.4949
16.4677
16.4431
16.421
16.401
16.3829
16.3662
16.3508
16.3365
16.323
16.31
16.2975
16.2852
16.2729
16.2606
16.248
16.2351
16.2217
16.2078
16.1932
16.1779
16.1619
16.1452
16.1276
16.1055
16.0584
15.9067
15.5612
16.5894
3916.14
-549.72
-300.75
-87.1493
-18.9206
0.712586
7.09374
9.85536
11.5502
12.89
14.0828
15.1893
16.2258
17.1955
18.0979
18.9316
19.6956
20.3891
21.0122
21.5654
22.0499
22.4674
22.8201
23.1104
23.3412
23.5158
23.6374
23.7096
23.7361
23.7207
23.6671
23.579
23.4603
23.3147
23.1456
22.9567
22.7512
22.5322
22.3028
22.0657
21.8236
21.5788
21.3335
21.0896
20.8488
20.6128
20.3827
20.1597
19.9447
19.7385
19.5416
19.3545
19.1774
19.0106
18.854
18.7076
18.5713
18.4447
18.3277
18.2198
18.1207
18.03
17.9471
17.8717
17.8033
17.7414
17.6854
17.6351
17.5897
17.5491
17.5126
17.4798
17.4505
17.4241
17.4004
17.379
17.3595
17.3418
17.3254
17.3102
17.2958
17.2821
17.2689
17.256
17.2431
17.2302
17.217
17.2035
17.1896
17.175
17.1599
17.1439
17.1273
17.11
17.0919
17.0705
17.0267
16.8748
16.4833
17.6189
3916.19
-549.583
-300.523
-86.8346
-18.5197
1.19773
7.66078
10.5016
12.2726
13.6853
14.9473
16.1191
17.2169
18.2437
19.1988
20.0807
20.8883
21.6209
22.2786
22.8618
23.372
23.8108
24.1806
24.4841
24.7243
24.9046
25.0287
25.1002
25.1232
25.1015
25.0393
24.9405
24.8093
24.6494
24.4648
24.2592
24.036
23.7987
23.5505
23.2942
23.0328
22.7686
22.5041
22.2413
21.982
21.7278
21.4802
21.2403
21.0091
20.7874
20.5758
20.3747
20.1845
20.0053
19.8371
19.6799
19.5335
19.3977
19.272
19.1563
19.0499
18.9526
18.8637
18.7829
18.7095
18.6431
18.5832
18.5292
18.4807
18.4371
18.3981
18.3631
18.3318
18.3037
18.2784
18.2556
18.2349
18.2161
18.1988
18.1827
18.1676
18.1533
18.1395
18.126
18.1126
18.0992
18.0856
18.0717
18.0572
18.0423
18.0266
18.0102
17.993
17.9752
17.9567
17.9357
17.8942
17.744
17.323
18.5357
3916.23
-549.455
-300.311
-86.5397
-18.1439
1.65264
8.1925
11.1076
12.9499
14.4307
15.7574
16.9902
18.1451
19.2249
20.2288
21.1553
22.0031
22.7715
23.4606
24.0711
24.6043
25.062
25.4468
25.7615
26.0093
26.1938
26.3188
26.3884
26.4066
26.3778
26.3062
26.1961
26.0517
25.8772
25.6766
25.454
25.213
24.9573
24.6901
24.4147
24.134
23.8506
23.567
23.2854
23.0077
22.7356
22.4707
22.2141
21.9669
21.73
21.5039
21.2891
21.0859
20.8946
20.715
20.5472
20.3909
20.246
20.112
19.9885
19.8751
19.7712
19.6765
19.5903
19.5121
19.4414
19.3775
19.3201
19.2684
19.2221
19.1806
19.1434
19.1101
19.0803
19.0535
19.0294
19.0076
18.9878
18.9696
18.9528
18.9371
18.9221
18.9078
18.8939
18.8801
18.8663
18.8524
18.8381
18.8233
18.808
18.7921
18.7753
18.7578
18.7395
18.7208
18.6999
18.6603
18.5132
18.0778
19.3386
3916.27
-549.336
-300.113
-86.2647
-17.7934
2.07686
8.68833
11.6725
13.5812
15.1253
16.512
17.8013
19.0089
20.1376
21.1864
22.1537
23.0381
23.8391
24.5567
25.1915
25.745
26.2193
26.6168
26.9406
27.1942
27.3812
27.5058
27.5721
27.5845
27.5476
27.4657
27.3435
27.1854
26.9958
26.779
26.5391
26.2801
26.0058
25.7197
25.4251
25.1252
24.8227
24.5202
24.22
23.9241
23.6344
23.3524
23.0794
22.8164
22.5645
22.3241
22.0958
21.88
21.6767
21.486
21.3078
21.1419
20.988
20.8457
20.7147
20.5943
20.4842
20.3837
20.2923
20.2094
20.1345
20.0668
20.0059
19.9512
19.9022
19.8583
19.819
19.7839
19.7524
19.7242
19.6989
19.676
19.6553
19.6363
19.6188
19.6025
19.5871
19.5723
19.558
19.5439
19.5298
19.5156
19.5012
19.4862
19.4707
19.4546
19.4377
19.4199
19.4015
19.3825
19.3617
19.3237
19.1812
18.7443
20.0268
3916.31
-549.226
-299.93
-86.0101
-17.4687
2.46985
9.14761
12.1957
14.1657
15.7682
17.2101
18.5513
19.8073
20.9806
22.0703
23.0746
23.9922
24.8224
25.5652
26.2215
26.7927
27.281
27.689
28.0199
28.2774
28.4654
28.588
28.6498
28.6553
28.6092
28.5163
28.3814
28.209
28.0038
27.7704
27.513
27.2359
26.9429
26.6379
26.3242
26.0051
25.6836
25.3624
25.0438
24.73
24.4228
24.124
23.8348
23.5564
23.2897
23.0353
22.7938
22.5655
22.3505
22.1489
21.9605
21.7852
21.6226
21.4723
21.3339
21.2068
21.0905
20.9844
20.8879
20.8005
20.7213
20.65
20.5858
20.5282
20.4765
20.4303
20.389
20.3521
20.3191
20.2895
20.263
20.2391
20.2175
20.1978
20.1797
20.1628
20.147
20.1319
20.1173
20.103
20.0888
20.0744
20.0598
20.0449
20.0293
20.0131
19.9962
19.9784
19.9599
19.9409
19.9203
19.8838
19.747
19.3193
20.6005
3916.34
-549.125
-299.761
-85.7759
-17.1702
2.83126
9.56993
12.6767
14.7029
16.3588
17.8511
19.2395
20.5395
21.7532
22.8798
23.9173
24.8644
25.7205
26.4855
27.1603
27.7466
28.2464
28.6627
28.9987
29.2583
29.4455
29.5648
29.6208
29.6183
29.5622
29.4574
29.309
29.1218
28.9007
28.6503
28.3753
28.0798
27.7682
27.4441
27.1114
26.7733
26.433
26.0932
25.7564
25.4249
25.1006
24.7852
24.4801
24.1865
23.9053
23.6372
23.3828
23.1422
22.9158
22.7036
22.5053
22.3207
22.1496
21.9915
21.8459
21.7122
21.5899
21.4784
21.377
21.285
21.2019
21.127
21.0595
20.9991
20.9449
20.8964
20.8532
20.8145
20.78
20.7492
20.7216
20.6968
20.6744
20.654
20.6353
20.6181
20.6019
20.5865
20.5717
20.5572
20.5429
20.5286
20.514
20.4991
20.4836
20.4675
20.4507
20.433
20.4147
20.3958
20.3755
20.3404
20.2104
19.8004
21.061
3916.37
-549.032
-299.608
-85.5623
-16.8978
3.16099
9.95516
13.1154
15.1925
16.8969
18.4349
19.8659
21.2053
22.4553
23.6147
24.6817
25.6548
26.5334
27.3175
28.008
28.6066
29.1156
29.5379
29.877
30.1369
30.3218
30.4363
30.4852
30.4736
30.4065
30.2892
30.1267
29.9242
29.6867
29.4191
29.1262
28.8123
28.4819
28.139
27.7873
27.4303
27.0713
26.7132
26.3584
26.0095
25.6683
25.3366
25.016
24.7074
24.4121
24.1305
23.8634
23.611
23.3734
23.1507
22.9428
22.7493
22.5698
22.4041
22.2515
22.1114
21.9833
21.8664
21.7602
21.6639
21.5769
21.4985
21.428
21.3648
21.3081
21.2575
21.2124
21.1721
21.1362
21.1042
21.0755
21.0498
21.0267
21.0057
20.9866
20.9689
20.9524
20.9368
20.9219
20.9074
20.8931
20.8788
20.8644
20.8496
20.8343
20.8185
20.8019
20.7845
20.7664
20.7478
20.7279
20.6944
20.5722
20.186
21.4104
3916.4
-548.949
-299.469
-85.3691
-16.6514
3.45922
10.3035
13.5119
15.635
17.3828
18.9617
20.4308
21.8053
23.0874
24.2757
25.3684
26.3639
27.2617
28.0618
28.7652
29.3735
29.8893
30.3155
30.6558
30.9141
31.0951
31.2034
31.2441
31.2224
31.1435
31.0128
30.8357
30.6174
30.3632
30.0781
29.7671
29.4348
29.0856
28.7238
28.3533
27.9776
27.6001
27.2238
26.8514
26.4853
26.1275
25.7799
25.4439
25.1208
24.8116
24.5169
24.2374
23.9734
23.725
23.4921
23.2747
23.0725
22.885
22.7118
22.5524
22.4061
22.2723
22.1503
22.0394
21.939
21.8482
21.7664
21.6929
21.627
21.568
21.5154
21.4684
21.4266
21.3893
21.3561
21.3265
21.3
21.2762
21.2547
21.2351
21.2171
21.2004
21.1847
21.1698
21.1553
21.1411
21.127
21.1127
21.0982
21.0832
21.0677
21.0515
21.0345
21.0169
20.9987
20.9793
20.9475
20.8337
20.4758
21.6517
3916.43
-548.874
-299.344
-85.196
-16.4306
3.7264
10.6155
13.8669
16.0309
17.8174
19.4324
20.9351
22.3404
23.6505
24.8638
25.9785
26.9931
27.9068
28.7199
29.4334
30.0489
30.5691
30.9971
31.3366
31.5918
31.7673
31.8682
31.8995
31.8666
31.775
31.6303
31.4379
31.2034
30.9322
30.6294
30.3002
29.9494
29.5815
29.2009
28.8116
28.4175
28.0217
27.6276
27.2378
26.8548
26.4808
26.1175
25.7665
25.4292
25.1064
24.7989
24.5074
24.232
23.973
23.7303
23.5037
23.2929
23.0976
22.9172
22.7512
22.5989
22.4596
22.3327
22.2173
22.1128
22.0184
21.9333
21.8569
21.7884
21.7272
21.6725
21.6239
21.5805
21.542
21.5077
21.4771
21.4499
21.4255
21.4035
21.3835
21.3653
21.3485
21.3327
21.3178
21.3034
21.2894
21.2755
21.2615
21.2473
21.2328
21.2177
21.202
21.1856
21.1685
21.1509
21.1322
21.102
20.9971
20.6703
21.7887
3916.45
-548.808
-299.234
-85.0426
-16.2349
3.96324
10.892
14.1813
16.3813
18.2017
19.8483
21.3801
22.812
24.146
25.3806
26.5137
27.544
28.4706
29.2938
30.0146
30.6349
31.1573
31.585
31.9218
32.1722
32.3409
32.433
32.4538
32.4089
32.3038
32.1444
31.9364
31.6853
31.3967
31.0761
30.7286
30.3592
29.9726
29.5734
29.1656
28.7531
28.3394
27.9277
27.5208
27.1213
26.7313
26.3527
25.9871
25.6358
25.2998
24.9799
24.6766
24.3902
24.1209
23.8686
23.6331
23.4141
23.2112
23.0238
22.8514
22.6933
22.5487
22.4169
22.2972
22.1887
22.0908
22.0026
21.9234
21.8525
21.7891
21.7325
21.6822
21.6374
21.5976
21.5623
21.5309
21.5029
21.478
21.4555
21.4353
21.4169
21.3999
21.3842
21.3693
21.3551
21.3413
21.3277
21.3141
21.3004
21.2863
21.2718
21.2567
21.241
21.2246
21.2076
21.1896
21.1614
21.0655
20.7712
21.826
3916.47
-548.75
-299.137
-84.9082
-16.0634
4.17063
11.134
14.4563
16.6875
18.5371
20.2109
21.7676
23.2221
24.5761
25.8282
26.9763
28.019
28.9555
29.786
30.5116
31.1343
31.6567
32.0821
32.4146
32.6587
32.8191
32.9012
32.9105
32.8526
32.7334
32.5588
32.3345
32.0665
31.7604
31.4217
31.0559
30.6679
30.2628
29.8451
29.419
28.9884
28.557
28.128
27.7044
27.2886
26.883
26.4895
26.1096
25.7448
25.3959
25.0639
24.7492
24.4521
24.1728
23.9112
23.667
23.4401
23.2298
23.0357
22.8571
22.6933
22.5436
22.4071
22.2832
22.171
22.0697
21.9785
21.8966
21.8233
21.7578
21.6994
21.6475
21.6013
21.5604
21.5241
21.4919
21.4633
21.4378
21.415
21.3945
21.376
21.359
21.3433
21.3285
21.3146
21.3011
21.2878
21.2747
21.2614
21.2479
21.234
21.2196
21.2046
21.189
21.1729
21.1558
21.1294
21.0426
20.7809
21.7686
3916.48
-548.7
-299.054
-84.7921
-15.9154
4.34966
11.3427
14.6933
16.9511
18.8255
20.5221
22.0996
23.5727
24.9431
26.2092
27.369
28.421
29.3644
30.1996
30.9275
31.5503
32.0706
32.492
32.8185
33.0547
33.2056
33.2767
33.2735
33.2019
33.0678
32.8774
32.6366
32.3513
32.0274
31.6707
31.2865
30.8801
30.4566
30.0205
29.5763
29.1279
28.6791
28.2332
27.7931
27.3615
26.9407
26.5326
26.1388
25.7608
25.3994
25.0556
24.7298
24.4223
24.1333
23.8627
23.6103
23.3756
23.1582
22.9576
22.773
22.6037
22.4491
22.3081
22.1802
22.0643
21.9598
21.8656
21.7812
21.7056
21.6381
21.578
21.5245
21.4771
21.4351
21.3979
21.3649
21.3357
21.3098
21.2866
21.2659
21.2472
21.2303
21.2146
21.2001
21.1864
21.1732
21.1604
21.1478
21.1351
21.1222
21.1091
21.0954
21.0812
21.0665
21.0512
21.0351
21.0106
20.9327
20.7029
21.6219
3916.5
-548.658
-298.983
-84.6936
-15.7897
4.50155
11.5197
14.8939
17.1739
19.0689
20.7842
22.3786
23.8665
25.2497
26.5265
27.6948
28.7531
29.7008
30.538
31.2659
31.8866
32.403
32.8185
33.1375
33.3645
33.5047
33.5636
33.5471
33.461
33.3116
33.1049
32.8472
32.5444
32.2027
31.8278
31.4253
31.0006
30.5588
30.1046
29.6425
29.1767
28.7108
28.2483
27.7921
27.3451
26.9094
26.4871
26.0799
25.689
25.3155
24.9602
24.6237
24.3062
24.0079
23.7285
23.468
23.2259
23.0017
22.7947
22.6044
22.4299
22.2704
22.1252
21.9933
21.874
21.7663
21.6694
21.5824
21.5047
21.4352
21.3735
21.3186
21.2699
21.2269
21.1888
21.1551
21.1254
21.099
21.0756
21.0547
21.036
21.019
21.0035
20.9892
20.9758
20.9631
20.9507
20.9386
20.9266
20.9144
20.902
20.8891
20.8758
20.862
20.8478
20.8326
20.8101
20.7407
20.5413
21.3919
3916.51
-548.623
-298.924
-84.6116
-15.6853
4.62765
11.6664
15.06
17.358
19.2694
20.9996
22.6071
24.1063
25.4989
26.7831
27.957
29.0189
29.9681
30.805
31.5308
32.1475
32.658
33.0661
33.376
33.5926
33.721
33.7669
33.7362
33.6351
33.4697
33.2464
32.9715
32.6511
32.2915
31.8984
31.4777
31.0348
30.5749
30.1029
29.6233
29.1403
28.6576
28.1789
27.7071
27.245
26.7948
26.3587
25.9384
25.535
25.1498
24.7835
24.4366
24.1094
23.802
23.5143
23.246
22.9967
22.7658
22.5528
22.357
22.1774
22.0134
21.864
21.7284
21.6057
21.495
21.3954
21.3061
21.2262
21.155
21.0916
21.0353
20.9855
20.9415
20.9026
20.8683
20.838
20.8113
20.7876
20.7666
20.7478
20.7309
20.7156
20.7016
20.6885
20.6761
20.6643
20.6528
20.6414
20.63
20.6183
20.6064
20.594
20.5812
20.568
20.5539
20.5334
20.4719
20.301
21.0848
3916.52
-548.594
-298.877
-84.5453
-15.6009
4.7294
11.7845
15.1934
17.5054
19.4295
21.1709
22.7879
24.295
25.6939
26.9826
28.1592
29.2221
30.1705
31.0048
31.7263
32.3371
32.8403
33.2394
33.539
33.7439
33.8595
33.8916
33.8461
33.7293
33.5476
33.3074
33.015
32.6769
32.2993
31.8882
31.4494
30.9885
30.5108
30.0212
29.5243
29.0245
28.5255
28.0309
27.5439
27.0671
26.6029
26.1534
25.7203
25.305
24.9084
24.5314
24.1745
23.8379
23.5218
23.226
22.9502
22.694
22.4568
22.238
22.0368
21.8524
21.684
21.5306
21.3914
21.2655
21.1519
21.0498
20.9582
20.8763
20.8033
20.7384
20.6808
20.6299
20.5849
20.5453
20.5103
20.4796
20.4525
20.4286
20.4075
20.3887
20.3719
20.3568
20.3431
20.3304
20.3185
20.3072
20.2963
20.2856
20.2749
20.2641
20.2531
20.2417
20.2299
20.2178
20.2049
20.1862
20.1322
19.9873
20.7069
3916.53
-548.572
-298.839
-84.4937
-15.5353
4.8083
11.8759
15.2962
17.6185
19.5517
21.3007
22.9241
24.436
25.8381
27.1286
28.3053
29.3666
30.312
31.1417
31.8571
32.4603
32.9545
33.3433
33.6314
33.8237
33.9256
33.9431
33.8822
33.7493
33.5509
33.2935
32.9836
32.6277
32.2321
31.803
31.3463
30.8676
30.3724
29.8655
29.3518
28.8355
28.3206
27.8106
27.3087
26.8177
26.3399
25.8775
25.4321
25.0051
24.5975
24.2102
23.8437
23.4981
23.1736
22.87
22.587
22.3242
22.0809
21.8565
21.6501
21.4611
21.2885
21.1313
20.9887
20.8597
20.7433
20.6387
20.545
20.4612
20.3865
20.3202
20.2614
20.2094
20.1635
20.1231
20.0876
20.0564
20.029
20.0049
19.9837
19.965
19.9483
19.9334
19.92
19.9076
19.8962
19.8855
19.8752
19.8652
19.8553
19.8454
19.8353
19.8249
19.8143
19.8032
19.7915
19.7747
19.7276
19.6062
20.2648
3916.53
-548.556
-298.812
-84.4558
-15.4872
4.86593
11.9423
15.3704
17.6996
19.6385
21.3921
23.0186
24.5325
25.9351
27.2247
28.3991
29.4567
30.397
31.2202
31.9277
32.5218
33.0056
33.383
33.6585
33.8372
33.9247
33.9269
33.8501
33.7007
33.4853
33.2106
32.8831
32.5094
32.096
31.6491
31.1747
30.6785
30.166
29.6423
29.1121
28.5797
28.0493
27.5243
27.008
26.5032
26.0122
25.5373
25.08
24.6418
24.2237
23.8264
23.4506
23.0964
22.7638
22.4527
22.1628
21.8936
21.6445
21.4147
21.2035
21.01
20.8334
20.6725
20.5266
20.3947
20.2757
20.1688
20.0729
19.9873
19.9111
19.8433
19.7834
19.7304
19.6837
19.6426
19.6065
19.5749
19.5473
19.523
19.5017
19.483
19.4665
19.4518
19.4387
19.4267
19.4158
19.4056
19.396
19.3867
19.3776
19.3686
19.3594
19.3501
19.3405
19.3306
19.3201
19.3051
19.2643
19.1637
19.7651
3916.54
-548.545
-298.794
-84.4305
-15.4553
4.90387
11.9856
15.4183
17.7511
19.6926
21.4478
23.0748
24.5878
25.9885
27.2748
28.4447
29.4966
30.4298
31.2448
31.943
32.5265
32.9988
33.3635
33.6255
33.7899
33.8623
33.8488
33.7556
33.5895
33.3569
33.0647
32.7197
32.3283
31.8972
31.4327
30.9409
30.4275
29.8981
29.3578
28.8115
28.2636
27.7181
27.1785
26.6483
26.1301
25.6264
25.1394
24.6707
24.2216
23.7934
23.3866
23.0018
22.6393
22.299
21.9808
21.6843
21.409
21.1542
20.9193
20.7035
20.5057
20.3252
20.1609
20.0119
19.8771
19.7556
19.6464
19.5486
19.4613
19.3835
19.3145
19.2534
19.1994
19.1519
19.1102
19.0736
19.0417
19.0137
18.9893
18.968
18.9493
18.9329
18.9185
18.9057
18.8941
18.8837
18.8741
18.8651
18.8565
18.8482
18.8401
18.8319
18.8236
18.8151
18.8063
18.797
18.7838
18.7487
18.6664
19.2145
3916.54
-548.539
-298.784
-84.4169
-15.4383
4.92375
12.0077
15.4419
17.7754
19.7167
21.4708
23.0956
24.6055
26.0019
27.2829
28.4463
29.4905
30.4151
31.2203
31.9077
32.4795
32.9391
33.2904
33.538
33.6874
33.7441
33.7144
33.6047
33.4215
33.1717
32.8621
32.4995
32.0906
31.642
31.1601
30.6511
30.1209
29.575
29.0187
28.4567
27.8936
27.3334
26.7798
26.2361
25.705
25.1891
24.6904
24.2107
23.7513
23.3132
22.8973
22.504
22.1335
21.7858
21.4607
21.1579
20.8768
20.6167
20.3769
20.1566
19.9548
19.7706
19.603
19.451
19.3135
19.1896
19.0783
18.9786
18.8896
18.8104
18.7401
18.6779
18.6231
18.5748
18.5325
18.4955
18.4631
18.4349
18.4104
18.389
18.3704
18.3542
18.34
18.3275
18.3163
18.3064
18.2973
18.289
18.2811
18.2736
18.2663
18.2591
18.2518
18.2444
18.2368
18.2287
18.2171
18.1871
18.1207
18.6196
3916.54
-548.538
-298.782
-84.4138
-15.4348
4.92717
12.0105
15.4435
17.775
19.7136
21.4641
23.0845
24.589
25.979
27.2527
28.4078
29.4429
30.3572
31.1514
31.8268
32.3858
32.8317
33.1687
33.4014
33.5352
33.5759
33.5297
33.4031
33.2028
32.9358
32.6087
32.2287
31.8024
31.3366
30.8377
30.3119
29.7652
29.2032
28.6312
28.0541
27.4763
26.9019
26.3347
25.778
25.2345
24.7067
24.1969
23.7066
23.2372
22.7898
22.3651
21.9636
21.5855
21.2308
20.8992
20.5903
20.3036
20.0385
19.794
19.5695
19.3638
19.1761
19.0053
18.8504
18.7104
18.5843
18.471
18.3695
18.2789
18.1983
18.1268
18.0636
18.0079
17.9589
17.916
17.8785
17.8458
17.8174
17.7927
17.7713
17.7528
17.7367
17.7227
17.7105
17.6998
17.6903
17.6818
17.6741
17.667
17.6602
17.6538
17.6475
17.6412
17.6348
17.6283
17.6214
17.6115
17.5861
17.5333
17.9868
3916.54
-548.541
-298.786
-84.4203
-15.4436
4.91573
11.9959
15.4251
17.7524
19.6859
21.4306
23.0445
24.5417
25.9235
27.1882
28.3334
29.3578
30.2607
31.0426
31.705
32.2503
32.6818
33.0038
33.221
33.3388
33.3632
33.3003
33.1567
32.9393
32.655
32.3107
31.9134
31.47
30.9873
30.4717
29.9295
29.3667
28.7891
28.2019
27.61
27.018
26.4299
25.8496
25.2803
24.7249
24.1859
23.6653
23.1648
22.6859
22.2296
21.7965
21.3872
21.0018
20.6404
20.3025
19.9879
19.696
19.4259
19.1771
18.9485
18.7391
18.5481
18.3743
18.2167
18.0743
17.946
17.8307
17.7276
17.6355
17.5536
17.481
17.4168
17.3603
17.3106
17.2671
17.2292
17.1962
17.1675
17.1427
17.1213
17.1028
17.0869
17.0731
17.0612
17.0509
17.0419
17.0339
17.0268
17.0203
17.0144
17.0087
17.0033
16.998
16.9927
16.9873
16.9815
16.9732
16.9519
16.9105
17.3226
3916.53
-548.547
-298.797
-84.4353
-15.4633
4.89101
11.9657
15.3891
17.7098
19.6363
21.3733
22.9788
24.4669
25.839
27.0931
28.2272
29.2397
30.1299
30.8986
31.547
32.0779
32.4944
32.8009
33.0022
33.1037
33.1115
33.0317
32.8712
32.6367
32.3353
31.9739
31.5596
31.0994
30.6001
30.0681
29.51
28.9316
28.3388
27.7368
27.1307
26.525
25.9238
25.3309
24.7496
24.1827
23.6328
23.1019
22.5917
22.1037
21.6388
21.1978
20.7811
20.3888
20.0209
19.6771
19.357
19.06
18.7854
18.5324
18.2999
18.0871
17.8929
17.7163
17.5561
17.4114
17.281
17.1639
17.0591
16.9657
16.8825
16.8088
16.7437
16.6864
16.6361
16.5921
16.5537
16.5204
16.4915
16.4666
16.4452
16.4267
16.4109
16.3974
16.3858
16.3758
16.3672
16.3598
16.3532
16.3474
16.3422
16.3373
16.3328
16.3284
16.3241
16.3198
16.3151
16.3083
16.2906
16.2588
16.633
3916.53
-548.557
-298.813
-84.4579
-15.4926
4.85456
11.9218
15.3373
17.6497
19.5673
21.2949
22.8904
24.368
25.7289
26.9713
28.093
29.0925
29.9692
30.7237
31.3576
31.8734
32.2744
32.565
32.7501
32.8351
32.8262
32.7296
32.5521
32.3007
31.9823
31.6041
31.1732
30.6965
30.1809
29.6331
29.0594
28.4659
27.8584
27.2422
26.6223
26.0034
25.3896
24.7845
24.1917
23.6138
23.0535
22.5128
21.9934
21.4967
21.0237
20.5751
20.1512
19.7524
19.3784
19.029
18.7037
18.402
18.123
17.8659
17.6298
17.4137
17.2165
17.0372
16.8746
16.7277
16.5954
16.4766
16.3703
16.2754
16.1911
16.1164
16.0504
15.9923
15.9414
15.8969
15.8581
15.8245
15.7954
15.7704
15.7489
15.7305
15.7148
15.7015
15.6902
15.6805
15.6723
15.6654
15.6594
15.6542
15.6496
15.6455
15.6418
15.6383
15.6349
15.6316
15.6281
15.6227
15.6081
15.5844
15.9241
3916.53
-548.569
-298.833
-84.487
-15.5304
4.80786
11.8659
15.2718
17.5743
19.4815
21.1983
22.7824
24.2482
25.5967
26.8263
27.9346
28.9202
29.7827
30.5225
31.1412
31.6414
32.0266
32.301
32.4697
32.5381
32.5125
32.3991
32.2048
31.9366
31.6016
31.2069
30.7596
30.2669
29.7355
29.1722
28.5835
27.9754
27.3537
26.7238
26.0907
25.4591
24.8331
24.2165
23.6126
23.0242
22.454
21.9039
21.3757
20.8708
20.39
19.9342
19.5036
19.0985
18.7187
18.364
18.0338
17.7275
17.4444
17.1836
16.944
16.7248
16.5248
16.3429
16.178
16.0291
15.8949
15.7744
15.6667
15.5705
15.4851
15.4094
15.3426
15.2838
15.2323
15.1873
15.1481
15.1142
15.0849
15.0598
15.0383
15.0199
15.0043
14.9912
14.9801
14.9708
14.963
14.9564
14.9509
14.9463
14.9424
14.939
14.9361
14.9334
14.931
14.9286
14.9261
14.922
14.9103
14.8932
15.2014
3916.52
-548.584
-298.858
-84.5219
-15.5755
4.75236
11.7997
15.1946
17.4857
19.3813
21.0859
22.6576
24.1105
25.4457
26.6615
27.7557
28.7268
29.5744
30.2989
30.902
31.3863
31.7554
32.0136
32.1658
32.2177
32.1754
32.0454
31.8345
31.5498
31.1984
30.7875
30.3243
29.8159
29.2693
28.6911
28.0878
27.4655
26.8301
26.1871
25.5413
24.8976
24.2599
23.6322
23.0178
22.4195
21.8398
21.2808