/*--------------------------------*- C++ -*----------------------------------*\
  =========                 |
  \\      /  F ield         | OpenFOAM: The Open Source CFD Toolbox
   \\    /   O peration     | Website:  https://openfoam.org
    \\  /    A nd           | Version:  10
     \\/     M anipulation  |
\*---------------------------------------------------------------------------*/
FoamFile
{
    format      ascii;
    class       volScalarField;
    location    "4";
    object      T_0;
}
// * * * * * * * * * * * * * * * * * * * * * * * * * * * * * * * * * * * * * //

dimensions      [0 0 0 1 0 0 0];

internalField   nonuniform List<scalar> 
10000
(
374.857
360.941
356.037
353.763
352.429
351.509
350.804
350.227
349.734
349.3
348.908
348.55
348.219
347.911
347.622
347.351
347.095
346.853
346.625
346.408
346.204
346.011
345.828
345.656
345.494
345.341
345.197
345.062
344.935
344.817
344.706
344.603
344.507
344.418
344.335
344.259
344.188
344.123
344.062
344.007
343.957
343.91
343.868
343.83
343.795
343.763
343.734
343.708
343.685
343.664
343.645
343.628
343.613
343.6
343.588
343.577
343.568
343.559
343.552
343.546
343.54
343.535
343.531
343.528
343.525
343.522
343.52
343.518
343.517
343.516
343.515
343.514
343.514
343.514
343.514
343.514
343.514
343.515
343.515
343.516
343.517
343.518
343.52
343.521
343.522
343.524
343.526
343.528
343.53
343.532
343.534
343.536
343.539
343.541
343.544
343.547
343.55
343.553
343.556
343.557
388.264
373.84
365.513
360.381
356.908
354.346
352.321
350.637
349.184
347.896
346.732
345.666
344.679
343.758
342.895
342.083
341.317
340.594
339.91
339.262
338.65
338.072
337.525
337.009
336.522
336.064
335.633
335.229
334.849
334.495
334.163
333.854
333.566
333.298
333.05
332.821
332.608
332.413
332.233
332.067
331.916
331.777
331.65
331.535
331.43
331.335
331.249
331.171
331.101
331.038
330.981
330.93
330.885
330.845
330.809
330.777
330.749
330.724
330.702
330.683
330.667
330.652
330.64
330.629
330.62
330.612
330.605
330.6
330.596
330.592
330.59
330.588
330.587
330.587
330.587
330.587
330.588
330.59
330.592
330.595
330.597
330.601
330.604
330.608
330.613
330.618
330.623
330.628
330.634
330.64
330.647
330.654
330.662
330.669
330.677
330.686
330.695
330.704
330.714
330.723
392.656
380.63
371.792
365.344
360.483
356.655
353.509
350.831
348.487
346.39
344.483
342.729
341.1
339.579
338.15
336.805
335.534
334.334
333.198
332.123
331.106
330.144
329.235
328.377
327.568
326.806
326.089
325.417
324.786
324.196
323.644
323.13
322.651
322.206
321.793
321.411
321.058
320.732
320.432
320.157
319.905
319.674
319.463
319.271
319.097
318.939
318.795
318.666
318.549
318.444
318.35
318.265
318.19
318.123
318.063
318.01
317.963
317.922
317.886
317.854
317.826
317.802
317.781
317.763
317.748
317.735
317.724
317.715
317.708
317.703
317.698
317.695
317.693
317.693
317.693
317.694
317.696
317.698
317.702
317.706
317.711
317.716
317.722
317.729
317.736
317.744
317.753
317.762
317.772
317.782
317.793
317.805
317.817
317.83
317.844
317.858
317.873
317.888
317.904
317.921
394.419
384.23
375.691
368.737
363.05
358.309
354.263
350.73
347.585
344.74
342.134
339.723
337.476
335.37
333.39
331.521
329.756
328.085
326.503
325.006
323.589
322.248
320.98
319.784
318.655
317.592
316.592
315.653
314.772
313.948
313.178
312.46
311.791
311.17
310.593
310.06
309.567
309.112
308.694
308.309
307.957
307.634
307.34
307.072
306.828
306.607
306.407
306.226
306.063
305.916
305.785
305.667
305.562
305.468
305.384
305.31
305.245
305.187
305.136
305.092
305.053
305.02
304.991
304.966
304.944
304.926
304.911
304.899
304.889
304.881
304.875
304.87
304.868
304.867
304.867
304.868
304.871
304.875
304.879
304.885
304.892
304.899
304.908
304.917
304.927
304.938
304.95
304.963
304.977
304.991
305.006
305.023
305.04
305.058
305.077
305.096
305.117
305.138
305.161
305.184
395.245
386.183
378.022
370.89
364.705
359.31
354.552
350.298
346.447
342.921
339.664
336.633
333.796
331.129
328.614
326.237
323.987
321.857
319.838
317.925
316.113
314.399
312.777
311.246
309.802
308.441
307.161
305.958
304.831
303.775
302.789
301.869
301.012
300.216
299.477
298.794
298.162
297.579
297.043
296.55
296.099
295.686
295.308
294.965
294.652
294.369
294.112
293.881
293.672
293.484
293.315
293.164
293.029
292.908
292.801
292.707
292.623
292.549
292.484
292.427
292.377
292.334
292.296
292.264
292.237
292.214
292.195
292.179
292.166
292.156
292.148
292.142
292.139
292.137
292.138
292.139
292.143
292.147
292.153
292.161
292.169
292.179
292.189
292.201
292.214
292.228
292.244
292.26
292.277
292.296
292.315
292.336
292.358
292.381
292.405
292.43
292.456
292.483
292.512
292.541
395.664
387.24
379.345
372.132
365.613
359.73
354.399
349.534
345.062
340.922
337.065
333.453
330.056
326.852
323.823
320.954
318.235
315.655
313.209
310.89
308.692
306.61
304.641
302.781
301.025
299.371
297.815
296.352
294.981
293.697
292.497
291.378
290.335
289.366
288.468
287.635
286.866
286.157
285.504
284.905
284.355
283.852
283.393
282.975
282.594
282.249
281.937
281.655
281.4
281.171
280.966
280.782
280.617
280.471
280.341
280.225
280.123
280.033
279.954
279.884
279.824
279.771
279.726
279.687
279.653
279.625
279.601
279.582
279.566
279.554
279.544
279.538
279.533
279.532
279.532
279.534
279.538
279.543
279.551
279.559
279.569
279.581
279.594
279.609
279.624
279.641
279.66
279.679
279.7
279.723
279.746
279.771
279.798
279.825
279.854
279.885
279.917
279.95
279.984
280.019
395.872
387.778
380.016
372.72
365.939
359.663
353.855
348.464
343.443
338.747
334.337
330.183
326.259
322.544
319.021
315.679
312.505
309.49
306.628
303.912
301.336
298.896
296.586
294.403
292.342
290.4
288.572
286.854
285.242
283.734
282.323
281.007
279.782
278.643
277.586
276.608
275.703
274.869
274.102
273.396
272.75
272.158
271.618
271.126
270.679
270.273
269.905
269.573
269.274
269.004
268.763
268.546
268.353
268.18
268.027
267.891
267.771
267.665
267.572
267.49
267.419
267.357
267.303
267.257
267.218
267.185
267.157
267.134
267.116
267.101
267.09
267.082
267.077
267.074
267.075
267.077
267.082
267.088
267.096
267.107
267.118
267.132
267.147
267.164
267.182
267.202
267.223
267.246
267.271
267.297
267.325
267.354
267.385
267.417
267.451
267.486
267.523
267.562
267.602
267.643
395.959
387.995
380.253
372.843
365.822
359.205
352.981
347.127
341.613
336.411
331.491
326.83
322.409
318.209
314.215
310.418
306.806
303.37
300.105
297.003
294.06
291.269
288.627
286.128
283.768
281.543
279.449
277.48
275.634
273.904
272.287
270.778
269.373
268.066
266.854
265.732
264.694
263.737
262.857
262.048
261.306
260.627
260.007
259.442
258.929
258.463
258.041
257.66
257.317
257.007
256.73
256.481
256.259
256.062
255.886
255.73
255.592
255.47
255.363
255.269
255.187
255.116
255.055
255.002
254.957
254.918
254.886
254.86
254.839
254.822
254.809
254.8
254.794
254.791
254.791
254.794
254.799
254.806
254.815
254.827
254.84
254.856
254.873
254.892
254.913
254.935
254.96
254.986
255.014
255.043
255.075
255.108
255.143
255.18
255.218
255.258
255.301
255.345
255.39
255.437
395.971
388.005
380.196
372.634
365.373
358.439
351.839
345.565
339.602
333.934
328.541
323.407
318.517
313.856
309.414
305.181
301.147
297.306
293.651
290.176
286.875
283.744
280.777
277.97
275.319
272.818
270.463
268.25
266.172
264.227
262.407
260.709
259.127
257.657
256.292
255.029
253.861
252.783
251.791
250.88
250.045
249.28
248.582
247.946
247.368
246.843
246.368
245.939
245.552
245.203
244.891
244.611
244.361
244.138
243.939
243.764
243.608
243.471
243.35
243.245
243.152
243.072
243.003
242.943
242.892
242.849
242.813
242.783
242.759
242.74
242.725
242.715
242.708
242.705
242.705
242.708
242.713
242.721
242.732
242.744
242.759
242.776
242.795
242.817
242.84
242.865
242.892
242.921
242.952
242.985
243.02
243.057
243.096
243.137
243.18
243.225
243.272
243.321
243.372
243.424
395.933
387.877
379.936
372.186
364.676
357.438
350.485
343.821
337.443
331.342
325.507
319.928
314.596
309.499
304.629
299.979
295.541
291.309
287.278
283.441
279.794
276.333
273.051
269.945
267.01
264.24
261.631
259.179
256.876
254.719
252.702
250.819
249.065
247.434
245.92
244.518
243.222
242.027
240.926
239.915
238.988
238.14
237.365
236.659
236.017
235.435
234.907
234.43
234.001
233.614
233.267
232.956
232.679
232.431
232.211
232.016
231.843
231.691
231.557
231.439
231.337
231.248
231.171
231.104
231.048
231
230.96
230.926
230.899
230.878
230.862
230.85
230.842
230.838
230.838
230.841
230.847
230.856
230.867
230.881
230.897
230.916
230.937
230.96
230.985
231.013
231.043
231.074
231.108
231.145
231.183
231.223
231.266
231.311
231.358
231.407
231.459
231.513
231.569
231.626
395.861
387.653
379.533
371.566
363.797
356.258
348.968
341.936
335.167
328.659
322.409
316.412
310.66
305.149
299.872
294.824
289.998
285.391
280.997
276.812
272.831
269.049
265.463
262.066
258.855
255.824
252.969
250.283
247.761
245.399
243.189
241.125
239.203
237.415
235.756
234.219
232.798
231.488
230.281
229.172
228.155
227.225
226.375
225.601
224.896
224.257
223.679
223.156
222.685
222.26
221.88
221.539
221.234
220.962
220.721
220.506
220.317
220.15
220.003
219.874
219.761
219.664
219.579
219.506
219.444
219.391
219.347
219.31
219.281
219.257
219.239
219.226
219.217
219.213
219.212
219.215
219.221
219.231
219.243
219.258
219.275
219.296
219.318
219.343
219.371
219.4
219.432
219.467
219.504
219.543
219.584
219.628
219.674
219.723
219.774
219.827
219.883
219.941
220.002
220.064
395.767
387.362
379.03
370.823
362.786
354.946
347.328
339.944
332.805
325.913
319.27
312.875
306.727
300.822
295.156
289.727
284.531
279.563
274.821
270.3
265.997
261.906
258.025
254.347
250.869
247.585
244.49
241.578
238.843
236.28
233.883
231.644
229.558
227.618
225.817
224.148
222.606
221.183
219.872
218.668
217.564
216.554
215.631
214.79
214.025
213.331
212.702
212.134
211.622
211.161
210.748
210.377
210.046
209.751
209.488
209.256
209.05
208.868
208.708
208.568
208.446
208.339
208.247
208.168
208.1
208.043
207.995
207.955
207.922
207.896
207.877
207.862
207.853
207.848
207.847
207.85
207.856
207.866
207.879
207.895
207.913
207.935
207.959
207.986
208.015
208.047
208.081
208.118
208.157
208.199
208.243
208.29
208.34
208.392
208.446
208.503
208.563
208.625
208.69
208.757
395.656
387.026
378.456
369.994
361.679
353.54
345.601
337.878
330.383
323.125
316.109
309.337
302.811
296.531
290.495
284.702
279.151
273.838
268.762
263.918
259.304
254.916
250.749
246.8
243.064
239.535
236.208
233.077
230.136
227.379
224.8
222.391
220.146
218.057
216.119
214.322
212.662
211.129
209.718
208.421
207.232
206.144
205.15
204.244
203.42
202.672
201.995
201.383
200.831
200.335
199.889
199.49
199.133
198.815
198.532
198.281
198.059
197.863
197.691
197.54
197.408
197.293
197.194
197.108
197.035
196.973
196.921
196.878
196.843
196.815
196.793
196.777
196.767
196.761
196.76
196.763
196.769
196.78
196.793
196.81
196.829
196.852
196.877
196.906
196.937
196.97
197.007
197.046
197.087
197.131
197.178
197.228
197.281
197.336
197.393
197.454
197.517
197.583
197.652
197.722
395.534
386.659
377.835
369.106
360.508
352.07
343.815
335.763
327.927
320.318
312.945
305.814
298.928
292.29
285.901
279.761
273.87
268.227
262.83
257.676
252.764
248.089
243.649
239.438
235.453
231.687
228.136
224.793
221.653
218.708
215.953
213.379
210.98
208.748
206.676
204.756
202.98
201.342
199.833
198.446
197.174
196.01
194.947
193.978
193.097
192.297
191.573
190.918
190.328
189.797
189.32
188.892
188.511
188.17
187.868
187.599
187.361
187.152
186.967
186.806
186.664
186.541
186.435
186.343
186.265
186.199
186.143
186.096
186.058
186.028
186.005
185.988
185.976
185.97
185.968
185.971
185.977
185.988
186.002
186.019
186.04
186.063
186.09
186.12
186.152
186.187
186.225
186.266
186.31
186.356
186.406
186.458
186.513
186.571
186.632
186.695
186.762
186.831
186.903
186.977
395.406
386.271
377.182
368.179
359.295
350.56
341.996
333.622
325.457
317.512
309.798
302.323
295.094
288.114
281.388
274.916
268.7
262.741
257.036
251.586
246.387
241.438
236.734
232.271
228.046
224.052
220.285
216.739
213.406
210.28
207.354
204.621
202.073
199.702
197.501
195.461
193.575
191.834
190.23
188.757
187.405
186.168
185.037
184.007
183.071
182.22
181.45
180.754
180.126
179.561
179.054
178.6
178.194
177.832
177.51
177.224
176.971
176.748
176.552
176.38
176.23
176.099
175.986
175.888
175.805
175.734
175.674
175.624
175.584
175.551
175.526
175.508
175.495
175.488
175.486
175.488
175.495
175.506
175.52
175.538
175.559
175.584
175.611
175.642
175.676
175.712
175.752
175.795
175.84
175.889
175.94
175.995
176.052
176.112
176.176
176.242
176.311
176.384
176.459
176.536
395.273
385.871
376.51
367.229
358.06
349.029
340.161
331.476
322.992
314.723
306.682
298.879
291.321
284.015
276.967
270.178
263.652
257.39
251.392
245.657
240.184
234.971
230.014
225.31
220.854
216.641
212.667
208.923
205.405
202.105
199.015
196.129
193.437
190.932
188.606
186.451
184.457
182.617
180.922
179.364
177.935
176.627
175.433
174.344
173.353
172.454
171.639
170.903
170.239
169.642
169.105
168.625
168.195
167.812
167.472
167.169
166.902
166.666
166.458
166.276
166.117
165.979
165.859
165.755
165.667
165.591
165.528
165.475
165.432
165.397
165.371
165.351
165.337
165.329
165.326
165.328
165.335
165.346
165.36
165.379
165.401
165.426
165.454
165.486
165.521
165.559
165.6
165.644
165.691
165.741
165.794
165.851
165.91
165.972
166.038
166.107
166.179
166.254
166.331
166.411
395.138
385.465
375.83
366.27
356.816
347.495
338.329
329.341
320.548
311.968
303.613
295.494
287.623
280.006
272.649
265.558
258.736
252.185
245.906
239.899
234.163
228.698
223.498
218.563
213.886
209.463
205.289
201.357
197.66
194.192
190.945
187.911
185.081
182.448
180.002
177.735
175.638
173.702
171.919
170.28
168.777
167.401
166.143
164.997
163.955
163.008
162.151
161.376
160.678
160.049
159.484
158.978
158.526
158.123
157.764
157.446
157.164
156.916
156.697
156.505
156.337
156.191
156.065
155.956
155.863
155.783
155.716
155.66
155.615
155.578
155.549
155.528
155.513
155.504
155.501
155.503
155.509
155.52
155.534
155.553
155.575
155.601
155.63
155.663
155.699
155.738
155.78
155.825
155.873
155.925
155.98
156.038
156.099
156.163
156.23
156.301
156.375
156.452
156.532
156.614
395.002
385.058
375.148
365.311
355.576
345.969
336.513
327.23
318.14
309.259
300.602
292.182
284.01
276.095
268.445
261.065
253.96
247.133
240.586
234.319
228.333
222.626
217.195
212.037
207.149
202.525
198.16
194.047
190.18
186.551
183.152
179.976
177.014
174.256
171.695
169.321
167.125
165.098
163.23
161.513
159.938
158.496
157.179
155.978
154.885
153.894
152.995
152.183
151.451
150.792
150.2
149.67
149.196
148.773
148.397
148.063
147.768
147.507
147.278
147.076
146.9
146.747
146.614
146.5
146.402
146.318
146.248
146.189
146.141
146.102
146.071
146.049
146.033
146.023
146.019
146.02
146.026
146.037
146.052
146.07
146.093
146.119
146.149
146.182
146.218
146.258
146.301
146.347
146.397
146.45
146.506
146.565
146.627
146.693
146.762
146.834
146.91
146.989
147.071
147.155
394.867
384.653
374.472
364.361
354.35
344.463
334.724
325.156
315.777
306.607
297.661
288.952
280.493
272.294
264.363
256.708
249.333
242.243
235.44
228.926
222.7
216.762
211.11
205.741
200.65
195.834
191.286
187
182.969
179.186
175.643
172.331
169.241
166.366
163.694
161.217
158.926
156.81
154.862
153.07
151.426
149.921
148.546
147.292
146.152
145.117
144.179
143.331
142.566
141.878
141.26
140.706
140.211
139.77
139.377
139.028
138.72
138.447
138.208
137.997
137.813
137.653
137.514
137.395
137.292
137.204
137.13
137.069
137.018
136.977
136.945
136.921
136.903
136.893
136.888
136.889
136.894
136.905
136.92
136.938
136.961
136.987
137.017
137.051
137.088
137.128
137.172
137.219
137.269
137.323
137.38
137.44
137.503
137.57
137.641
137.714
137.791
137.871
137.955
138.04
394.734
384.254
373.806
363.427
353.144
342.985
332.972
323.127
313.471
304.023
294.799
285.814
277.081
268.61
260.412
252.494
244.862
237.521
230.474
223.724
217.27
211.113
205.25
199.679
194.395
189.395
184.673
180.222
176.035
172.104
168.423
164.981
161.77
158.781
156.003
153.428
151.046
148.846
146.819
144.956
143.246
141.681
140.251
138.947
137.76
136.683
135.707
134.825
134.03
133.313
132.67
132.094
131.579
131.119
130.71
130.348
130.026
129.743
129.493
129.274
129.083
128.916
128.771
128.646
128.539
128.447
128.37
128.306
128.252
128.209
128.175
128.15
128.131
128.12
128.114
128.114
128.12
128.13
128.144
128.163
128.185
128.212
128.242
128.276
128.313
128.354
128.398
128.446
128.496
128.551
128.608
128.669
128.733
128.801
128.872
128.947
129.025
129.106
129.19
129.277
394.604
383.863
373.154
362.513
351.967
341.543
331.264
321.152
311.23
301.515
292.024
282.775
273.779
265.05
256.597
248.429
240.552
232.973
225.694
218.719
212.048
205.682
199.618
193.855
188.388
183.213
178.324
173.716
169.38
165.309
161.496
157.93
154.603
151.505
148.627
145.958
143.489
141.209
139.108
137.176
135.403
133.78
132.297
130.944
129.714
128.597
127.585
126.67
125.845
125.102
124.435
123.837
123.302
122.826
122.401
122.025
121.692
121.397
121.138
120.911
120.712
120.538
120.388
120.258
120.147
120.051
119.971
119.904
119.848
119.803
119.767
119.74
119.721
119.708
119.702
119.701
119.706
119.715
119.729
119.748
119.77
119.797
119.827
119.861
119.898
119.939
119.984
120.031
120.083
120.137
120.195
120.256
120.321
120.389
120.461
120.536
120.614
120.696
120.781
120.868
394.477
383.482
372.519
361.623
350.822
340.142
329.606
319.238
309.059
299.088
289.343
279.841
270.596
261.62
252.924
244.518
236.409
228.603
221.104
213.915
207.038
200.473
194.219
188.273
182.631
177.29
172.243
167.485
163.007
158.803
154.864
151.18
147.743
144.542
141.568
138.809
136.257
133.9
131.728
129.731
127.898
126.22
124.687
123.288
122.016
120.861
119.814
118.868
118.014
117.246
116.556
115.937
115.385
114.891
114.452
114.063
113.718
113.413
113.145
112.909
112.703
112.524
112.368
112.233
112.118
112.019
111.935
111.865
111.808
111.76
111.723
111.694
111.674
111.66
111.653
111.651
111.655
111.664
111.678
111.696
111.718
111.745
111.775
111.809
111.846
111.887
111.931
111.979
112.03
112.085
112.143
112.204
112.269
112.338
112.409
112.485
112.563
112.646
112.731
112.818
394.354
383.113
371.904
360.761
349.713
338.786
328.004
317.39
306.964
296.749
286.761
277.018
267.534
258.324
249.397
240.765
232.435
224.414
216.706
209.315
202.242
195.489
189.053
182.934
177.127
171.628
166.431
161.53
156.918
152.587
148.529
144.733
141.191
137.892
134.826
131.983
129.352
126.922
124.683
122.623
120.733
119.003
117.421
115.979
114.667
113.475
112.396
111.42
110.539
109.746
109.034
108.396
107.826
107.317
106.864
106.462
106.106
105.791
105.514
105.271
105.058
104.873
104.712
104.573
104.453
104.351
104.264
104.192
104.131
104.082
104.043
104.013
103.991
103.976
103.968
103.966
103.969
103.978
103.991
104.008
104.03
104.056
104.086
104.12
104.157
104.197
104.242
104.289
104.34
104.395
104.453
104.514
104.579
104.647
104.719
104.794
104.872
104.955
105.04
105.127
394.236
382.757
371.31
359.93
348.645
337.481
326.461
315.611
304.95
294.501
284.282
274.309
264.599
255.165
246.02
237.173
228.634
220.409
212.503
204.92
197.662
190.73
184.123
177.839
171.875
166.227
160.888
155.852
151.113
146.662
142.49
138.588
134.946
131.554
128.402
125.478
122.772
120.273
117.97
115.851
113.907
112.127
110.5
109.016
107.666
106.44
105.329
104.324
103.418
102.602
101.87
101.213
100.626
100.102
99.6353
99.2213
98.8547
98.5309
98.2456
97.9952
97.776
97.5848
97.4188
97.2752
97.1517
97.0462
96.9566
96.8814
96.819
96.7679
96.7271
96.6955
96.6721
96.6562
96.647
96.6439
96.6465
96.6543
96.6669
96.684
96.7054
96.7309
96.7602
96.7933
96.83
96.8703
96.9141
96.9614
97.0121
97.0662
97.1238
97.1847
97.2491
97.317
97.3883
97.463
97.5412
97.6228
97.7076
97.7941
394.121
382.415
370.74
359.131
347.618
336.227
324.981
313.905
303.02
292.348
281.908
271.717
261.792
252.147
242.794
233.744
225.007
216.588
208.495
200.73
193.297
186.197
179.428
172.989
166.876
161.086
155.613
150.45
145.59
141.025
136.746
132.744
129.008
125.528
122.293
119.293
116.516
113.952
111.588
109.413
107.418
105.59
103.92
102.397
101.011
99.7519
98.6113
97.5799
96.6494
95.8116
95.0591
94.3846
93.7815
93.2433
92.7644
92.3391
91.9624
91.6296
91.3365
91.0791
90.8538
90.6572
90.4863
90.3386
90.2114
90.1026
90.0103
89.9326
89.868
89.815
89.7726
89.7395
89.7148
89.6977
89.6874
89.6835
89.6852
89.6922
89.7041
89.7206
89.7414
89.7663
89.795
89.8275
89.8637
89.9035
89.9467
89.9934
90.0436
90.0971
90.1541
90.2144
90.2782
90.3453
90.4159
90.4899
90.5674
90.6483
90.7323
90.818
394.012
382.087
370.193
358.366
346.636
335.027
323.565
312.274
301.176
290.292
279.642
269.245
259.116
249.27
239.721
230.479
221.554
212.953
204.682
196.747
189.148
181.888
174.966
168.381
162.128
156.205
150.604
145.321
140.348
135.675
131.295
127.198
123.373
119.81
116.498
113.425
110.581
107.955
105.533
103.306
101.262
99.3899
97.6788
96.1182
94.698
93.4083
92.2395
91.1827
90.2291
89.3706
88.5994
87.9082
87.2899
86.7383
86.2473
85.8113
85.4251
85.0839
84.7833
84.5193
84.2881
84.0863
83.9109
83.7592
83.6285
83.5166
83.4215
83.3415
83.2747
83.2199
83.1758
83.1412
83.1152
83.097
83.0857
83.0807
83.0816
83.0878
83.0989
83.1146
83.1347
83.1588
83.1869
83.2187
83.2542
83.2933
83.3358
83.3818
83.4311
83.4839
83.54
83.5995
83.6624
83.7287
83.7983
83.8713
83.9478
84.0276
84.1105
84.1951
393.907
381.773
369.671
357.636
345.698
333.883
322.215
310.719
299.418
288.334
277.485
266.892
256.57
246.535
236.8
227.377
218.275
209.502
201.064
192.967
185.213
177.802
170.736
164.013
157.628
151.579
145.859
140.463
135.382
130.608
126.133
121.946
118.037
114.395
111.01
107.87
104.963
102.277
99.8021
97.5252
95.4352
93.5209
91.7712
90.1754
88.7231
87.4041
86.2088
85.1279
84.1526
83.2745
82.4856
81.7785
81.146
80.5817
80.0793
79.6332
79.2379
78.8887
78.581
78.3107
78.0739
77.8673
77.6876
77.532
77.3979
77.2831
77.1854
77.103
77.0342
76.9776
76.9319
76.8959
76.8686
76.8491
76.8367
76.8308
76.8307
76.836
76.8462
76.8611
76.8804
76.9037
76.931
76.962
76.9966
77.0348
77.0765
77.1215
77.17
77.2217
77.2769
77.3353
77.3971
77.4622
77.5307
77.6025
77.6776
77.7561
77.8377
77.9208
393.808
381.475
369.175
356.942
344.806
332.794
320.931
309.242
297.748
286.474
275.438
264.659
254.155
243.942
234.032
224.437
215.168
206.233
197.639
189.389
181.488
173.937
166.735
159.881
153.373
147.205
141.373
135.87
130.688
125.819
121.254
116.983
112.995
109.28
105.826
102.622
99.6552
96.9148
94.3885
92.0646
89.9315
87.9776
86.1916
84.5626
83.0799
81.7334
80.5131
79.4095
78.4137
77.5171
76.7115
75.9894
75.3436
74.7672
74.2541
73.7984
73.3947
73.0379
72.7235
72.4472
72.2052
71.9938
71.81
71.6508
71.5135
71.3959
71.2957
71.211
71.1403
71.0819
71.0346
70.9971
70.9685
70.9478
70.9343
70.9273
70.9263
70.9306
70.94
70.9539
70.9723
70.9947
71.0211
71.0511
71.0848
71.122
71.1627
71.2067
71.254
71.3047
71.3586
71.4158
71.4763
71.54
71.6071
71.6774
71.7511
71.8279
71.9079
71.9894
393.714
381.192
368.703
356.283
343.96
331.762
319.714
307.841
296.167
284.712
273.499
262.546
251.87
241.488
231.414
221.658
212.233
203.145
194.403
186.011
177.972
170.288
162.959
155.983
149.358
143.079
137.142
131.538
126.262
121.304
116.654
112.304
108.242
104.458
100.939
97.6745
94.6522
91.86
89.2859
86.918
84.7442
82.753
80.9329
79.2727
77.7616
76.3891
75.1453
74.0204
73.0053
72.0913
71.2701
70.5339
69.8754
69.2878
68.7645
68.2998
67.888
67.5241
67.2034
66.9215
66.6744
66.4587
66.271
66.1083
65.968
65.8476
65.745
65.6582
65.5856
65.5255
65.4766
65.4377
65.4078
65.3859
65.3713
65.3632
65.3611
65.3645
65.3728
65.3858
65.4032
65.4246
65.45
65.479
65.5117
65.5478
65.5872
65.63
65.6761
65.7255
65.7781
65.8339
65.8929
65.9551
66.0205
66.0892
66.1611
66.2361
66.3142
66.3938
393.624
380.925
368.258
355.66
343.16
330.786
318.564
306.518
294.672
283.048
271.668
260.551
249.714
239.173
228.944
219.037
209.465
200.234
191.353
182.827
174.659
166.851
159.402
152.312
145.578
139.195
133.159
127.462
122.096
117.055
112.326
107.902
103.771
99.9213
96.3421
93.0212
89.9465
87.1058
84.4869
82.0775
79.8657
77.8396
75.9874
74.298
72.7601
71.3634
70.0974
68.9526
67.9194
66.989
66.1531
65.4037
64.7333
64.135
63.6023
63.1291
62.7098
62.3391
62.0124
61.7252
61.4735
61.2536
61.0622
60.8962
60.753
60.63
60.5251
60.4363
60.3618
60.3
60.2496
60.2093
60.1781
60.155
60.1392
60.1301
60.1269
60.1292
60.1366
60.1485
60.1649
60.1852
60.2095
60.2374
60.2689
60.3038
60.342
60.3835
60.4282
60.4761
60.5272
60.5814
60.6388
60.6993
60.763
60.8297
60.8997
60.9727
61.0487
61.1261
393.54
380.672
367.837
355.072
342.406
329.866
317.479
305.27
293.263
281.48
269.943
258.672
247.683
236.994
226.619
216.571
206.861
197.497
188.486
179.834
171.545
163.62
156.06
148.864
142.027
135.547
129.418
123.633
118.185
113.065
108.263
103.769
99.5732
95.6631
92.0272
88.6535
85.5298
82.6438
79.9829
77.5349
75.2875
73.2286
71.3465
69.6296
68.0668
66.6473
65.3606
64.197
63.1469
62.2012
61.3515
60.5897
59.9082
59.2999
58.7583
58.2771
57.8507
57.4738
57.1414
56.8492
56.5931
56.3692
56.1743
56.0053
55.8593
55.7339
55.6268
55.536
55.4597
55.3963
55.3444
55.3027
55.2703
55.246
55.2291
55.2188
55.2145
55.2158
55.222
55.2329
55.2481
55.2674
55.2905
55.3172
55.3474
55.381
55.4179
55.458
55.5012
55.5475
55.597
55.6495
55.7051
55.7637
55.8255
55.8902
55.9581
56.0289
56.1026
56.1777
393.461
380.435
367.442
354.519
341.696
329.001
316.459
304.097
291.939
280.007
268.323
256.906
245.776
234.948
224.437
214.257
204.417
194.928
185.796
177.027
168.625
160.592
152.927
145.631
138.699
132.128
125.913
120.046
114.521
109.327
104.457
99.8983
95.6414
91.6745
87.9858
84.5629
81.3935
78.465
75.765
73.2808
71.0002
68.9107
67.0006
65.2581
63.672
62.2312
60.9252
59.7441
58.6781
57.7181
56.8555
56.0821
55.3902
54.7726
54.2226
53.734
53.301
52.9181
52.5805
52.2836
52.0233
51.7958
51.5976
51.4256
51.277
51.1492
51.04
50.9473
50.8693
50.8044
50.751
50.7081
50.6743
50.6488
50.6308
50.6194
50.614
50.6141
50.6193
50.6291
50.6431
50.6612
50.6831
50.7085
50.7374
50.7696
50.8051
50.8436
50.8853
50.93
50.9777
51.0284
51.0821
51.1387
51.1983
51.261
51.3265
51.395
51.4663
51.5389
393.387
380.212
367.07
354
341.03
328.189
315.503
302.997
290.697
278.625
266.803
255.252
243.989
233.031
222.393
212.089
202.129
192.523
183.278
174.4
165.893
157.758
149.997
142.607
135.587
128.931
122.635
116.692
111.095
105.833
100.898
96.2797
91.9664
87.9467
84.2087
80.7399
77.5279
74.56
71.8235
69.3056
66.9939
64.8761
62.9398
61.1735
59.5655
58.1049
56.781
55.5835
54.5027
53.5294
52.6547
51.8705
51.1689
50.5426
49.9848
49.4892
49.05
48.6615
48.319
48.0177
47.7535
47.5225
47.3212
47.1465
46.9954
46.8655
46.7543
46.6598
46.5801
46.5136
46.4589
46.4146
46.3796
46.353
46.3337
46.3212
46.3147
46.3137
46.3178
46.3264
46.3393
46.3561
46.3767
46.4009
46.4284
46.4591
46.493
46.53
46.57
46.6129
46.6588
46.7076
46.7593
46.8138
46.8713
46.9316
46.9948
47.0608
47.1295
47.1995
393.317
380.003
366.723
353.514
340.407
327.429
314.608
301.968
289.536
277.333
265.383
253.705
242.318
231.239
220.483
210.064
199.992
190.277
180.927
171.947
163.342
155.113
147.261
139.785
132.682
125.948
119.577
113.563
107.898
102.574
97.5792
92.9047
88.5389
84.4701
80.6862
77.1748
73.9232
70.9186
68.1481
65.599
63.2584
61.1141
59.1536
57.365
55.7368
54.2577
52.917
51.7043
50.6098
49.624
48.7382
47.9439
47.2332
46.5988
46.0337
45.5317
45.0866
44.693
44.3458
44.0405
43.7726
43.5383
43.3342
43.1568
43.0034
42.8714
42.7583
42.6621
42.5808
42.5129
42.4568
42.4112
42.375
42.3472
42.3268
42.3132
42.3056
42.3034
42.3063
42.3138
42.3254
42.341
42.3603
42.3831
42.4092
42.4384
42.4708
42.5061
42.5443
42.5855
42.6294
42.6762
42.7258
42.7782
42.8333
42.8913
42.952
43.0154
43.0814
43.1487
393.252
379.808
366.398
353.06
339.825
326.72
313.772
301.008
288.452
276.128
264.058
252.262
240.76
229.568
218.702
208.176
198
188.184
178.736
169.662
160.965
152.649
144.713
137.157
129.977
123.17
116.73
110.65
104.923
99.5398
94.4901
89.7636
85.349
81.2347
77.4083
73.8574
70.569
67.5303
64.7283
62.1501
59.7828
57.6138
55.6308
53.8216
52.1746
50.6784
49.3221
48.0953
46.988
45.9907
45.0944
44.2907
43.5716
42.9297
42.3579
41.8497
41.3993
41.0009
40.6494
40.3402
40.0689
39.8316
39.6247
39.4449
39.2893
39.1553
39.0404
38.9426
38.8598
38.7905
38.7331
38.6863
38.6489
38.6199
38.5984
38.5836
38.5749
38.5716
38.5733
38.5796
38.59
38.6043
38.6223
38.6436
38.6683
38.696
38.7267
38.7603
38.7968
38.8361
38.8781
38.9228
38.9702
39.0204
39.0732
39.1286
39.1868
39.2476
39.3108
39.3752
393.192
379.627
366.096
352.638
339.283
326.059
312.994
300.114
287.443
275.006
262.824
250.92
239.311
228.014
217.046
206.42
196.147
186.237
176.699
167.537
158.756
150.359
142.346
134.715
127.464
120.589
114.085
107.945
102.16
96.722
91.621
86.8464
82.3868
78.2303
74.3645
70.7769
67.4545
64.3843
61.5531
58.9479
56.5559
54.3641
52.3602
50.532
48.8675
47.3554
45.9847
44.7448
43.6256
42.6176
41.7117
40.8993
40.1724
39.5234
38.9454
38.4316
37.9761
37.5732
37.2178
36.905
36.6305
36.3904
36.1809
35.9989
35.8412
35.7053
35.5887
35.4893
35.4051
35.3345
35.2758
35.2278
35.1892
35.1591
35.1365
35.1206
35.1108
35.1064
35.1069
35.1119
35.1211
35.1342
35.1507
35.1707
35.1938
35.22
35.249
35.281
35.3156
35.353
35.393
35.4356
35.4808
35.5286
35.579
35.632
35.6875
35.7455
35.8059
35.8675
393.135
379.458
365.816
352.246
338.78
325.446
312.272
299.283
286.506
273.964
261.679
249.673
237.965
226.572
215.509
204.791
194.428
184.432
174.809
165.567
156.708
148.236
140.15
132.451
125.134
118.197
111.634
105.437
99.5987
94.1105
88.9622
84.1431
79.6418
75.4463
71.5442
67.9227
64.5689
61.4695
58.6113
55.9813
53.5663
51.3535
49.3303
47.4844
45.8038
44.277
42.893
41.6409
40.5108
39.4929
38.578
37.7576
37.0235
36.368
35.7841
35.2652
34.805
34.398
34.0388
33.7227
33.4453
33.2025
32.9906
32.8064
32.6468
32.5092
32.391
32.2901
32.2045
32.1326
32.0727
32.0235
31.9839
31.9526
31.9289
31.9119
31.901
31.8954
31.8948
31.8987
31.9066
31.9183
31.9335
31.952
31.9737
31.9982
32.0257
32.0558
32.0886
32.124
32.162
32.2025
32.2455
32.291
32.3389
32.3893
32.4422
32.4974
32.555
32.6136
393.083
379.302
365.555
351.882
338.313
324.877
311.602
298.514
285.638
272.999
260.619
248.519
236.719
225.236
214.086
203.282
192.837
182.761
173.061
163.743
154.812
146.271
138.119
130.356