/*--------------------------------*- C++ -*----------------------------------*\
  =========                 |
  \\      /  F ield         | OpenFOAM: The Open Source CFD Toolbox
   \\    /   O peration     | Website:  https://openfoam.org
    \\  /    A nd           | Version:  10
     \\/     M anipulation  |
\*---------------------------------------------------------------------------*/
FoamFile
{
    format      ascii;
    class       volScalarField;
    location    "39";
    object      ddt0(T);
}
// * * * * * * * * * * * * * * * * * * * * * * * * * * * * * * * * * * * * * //

dimensions      [0 0 -1 1 0 0 0];

internalField   nonuniform List<scalar> 
10000
(
451.873
25.7968
88.1993
85.8586
85.4637
85.5434
85.5585
85.559
85.5597
85.5606
85.5614
85.5622
85.563
85.5638
85.5646
85.5653
85.5661
85.5669
85.5676
85.5684
85.5691
85.5698
85.5705
85.5713
85.572
85.5727
85.5734
85.574
85.5747
85.5754
85.5761
85.5767
85.5774
85.578
85.5786
85.5793
85.5799
85.5805
85.5811
85.5817
85.5823
85.5829
85.5834
85.584
85.5846
85.5851
85.5856
85.5862
85.5867
85.5872
85.5877
85.5881
85.5886
85.5891
85.5895
85.59
85.5904
85.5908
85.5913
85.5917
85.5921
85.5924
85.5928
85.5932
85.5935
85.5939
85.5942
85.5945
85.5948
85.5951
85.5954
85.5957
85.596
85.5963
85.5965
85.5968
85.597
85.5972
85.5974
85.5976
85.5978
85.598
85.5982
85.5983
85.5985
85.5986
85.5987
85.5989
85.599
85.5991
85.5992
85.5993
85.5993
85.5993
85.5986
85.5987
85.6667
86.1668
81.7164
64.8007
45.3822
-82.8836
-25.8794
-34.6043
-35.1207
-34.9201
-34.8982
-34.9007
-34.8996
-34.8974
-34.895
-34.8927
-34.8904
-34.8881
-34.8858
-34.8836
-34.8813
-34.8791
-34.8769
-34.8747
-34.8725
-34.8703
-34.8681
-34.866
-34.8639
-34.8618
-34.8597
-34.8576
-34.8556
-34.8535
-34.8515
-34.8495
-34.8476
-34.8456
-34.8437
-34.8418
-34.84
-34.8381
-34.8363
-34.8345
-34.8328
-34.831
-34.8293
-34.8276
-34.826
-34.8244
-34.8228
-34.8212
-34.8196
-34.8181
-34.8167
-34.8152
-34.8138
-34.8124
-34.811
-34.8097
-34.8084
-34.8071
-34.8059
-34.8046
-34.8035
-34.8023
-34.8012
-34.8001
-34.799
-34.798
-34.797
-34.796
-34.7951
-34.7942
-34.7933
-34.7925
-34.7917
-34.7909
-34.7901
-34.7894
-34.7887
-34.788
-34.7874
-34.7868
-34.7862
-34.7857
-34.7852
-34.7847
-34.7842
-34.7838
-34.7834
-34.783
-34.7827
-34.7824
-34.7821
-34.7819
-34.7816
-34.7814
-34.7828
-34.7922
-34.7785
-34.355
-35.2156
-25.5266
99.733
-32.0369
16.9714
7.73188
7.46957
7.72607
7.75042
7.7482
7.7507
7.75459
7.75851
7.76236
7.7662
7.77001
7.77381
7.77759
7.78135
7.78508
7.7888
7.79248
7.79614
7.79978
7.80338
7.80696
7.8105
7.81402
7.8175
7.82095
7.82436
7.82774
7.83108
7.83439
7.83766
7.84088
7.84407
7.84722
7.85033
7.8534
7.85642
7.8594
7.86234
7.86523
7.86808
7.87088
7.87364
7.87635
7.87901
7.88162
7.88419
7.88671
7.88918
7.8916
7.89398
7.8963
7.89857
7.9008
7.90297
7.90509
7.90717
7.90919
7.91116
7.91308
7.91495
7.91677
7.91854
7.92025
7.92192
7.92354
7.9251
7.92661
7.92807
7.92948
7.93084
7.93215
7.93341
7.93462
7.93578
7.93688
7.93794
7.93895
7.9399
7.94081
7.94166
7.94247
7.94323
7.94393
7.94459
7.9452
7.94575
7.94626
7.94672
7.94714
7.94755
7.94799
7.94691
7.93376
7.90422
8.07161
7.00541
6.62313
98.0201
-39.6112
8.84461
-0.140143
-0.316443
-0.0532861
-0.0299947
-0.0314269
-0.0274512
-0.0219999
-0.0165372
-0.0111439
-0.00578345
-0.000447416
0.00486298
0.0101457
0.015399
0.0206211
0.0258103
0.0309651
0.0360839
0.041165
0.0462071
0.0512084
0.0561676
0.0610832
0.0659538
0.070778
0.0755544
0.0802816
0.0849584
0.0895835
0.0941556
0.0986737
0.103136
0.107543
0.111892
0.116182
0.120414
0.124584
0.128694
0.132741
0.136726
0.140647
0.144503
0.148295
0.152021
0.15568
0.159272
0.162798
0.166255
0.169644
0.172964
0.176215
0.179396
0.182508
0.185549
0.18852
0.191421
0.194251
0.19701
0.199697
0.202314
0.20486
0.207334
0.209736
0.212068
0.214328
0.216516
0.218633
0.220679
0.222654
0.224557
0.226389
0.228151
0.229841
0.23146
0.233009
0.234488
0.235895
0.237233
0.2385
0.239698
0.240825
0.241882
0.24287
0.243788
0.244637
0.245416
0.246126
0.246765
0.247343
0.247938
0.248873
0.250252
0.246837
0.232857
0.364723
0.421545
0.0813968
97.6991
-40.0791
8.6057
-0.294226
-0.459512
-0.197501
-0.173951
-0.174057
-0.168538
-0.161535
-0.154531
-0.147604
-0.140714
-0.133856
-0.12703
-0.120239
-0.113486
-0.106773
-0.100102
-0.0934753
-0.0868951
-0.0803634
-0.0738822
-0.0674533
-0.0610788
-0.0547604
-0.0485001
-0.0422995
-0.0361605
-0.0300847
-0.0240739
-0.0181296
-0.0122533
-0.00644662
-0.000711014
0.00495213
0.0105414
0.0160556
0.0214934
0.0268536
0.0321351
0.0373368
0.0424577
0.0474967
0.0524529
0.0573255
0.0621136
0.0668165
0.0714335
0.0759638
0.0804068
0.084762
0.0890288
0.0932067
0.0972953
0.101294
0.105203
0.109021
0.112749
0.116386
0.119931
0.123386
0.126748
0.13002
0.133199
0.136287
0.139283
0.142187
0.145
0.147721
0.15035
0.152887
0.155334
0.157688
0.159952
0.162124
0.164205
0.166196
0.168096
0.169905
0.171624
0.173253
0.174791
0.17624
0.177599
0.178869
0.180049
0.18114
0.182142
0.183054
0.183874
0.184594
0.185235
0.186013
0.187322
0.186232
0.170462
0.183659
0.224514
0.215408
97.7675
-39.9069
8.82998
-0.0628411
-0.229144
0.0329455
0.0577104
0.0591321
0.06621
0.0747604
0.0833034
0.0917635
0.100179
0.108556
0.116894
0.125189
0.133438
0.141638
0.149787
0.157881
0.165919
0.173898
0.181815
0.189668
0.197454
0.205172
0.21282
0.220394
0.227893
0.235314
0.242657
0.249918
0.257096
0.264189
0.271195
0.278113
0.28494
0.291676
0.298318
0.304866
0.311318
0.317672
0.323927
0.330082
0.336136
0.342088
0.347937
0.353682
0.359321
0.364855
0.370282
0.375602
0.380814
0.385918
0.390912
0.395797
0.400571
0.405235
0.409789
0.414231
0.418562
0.422782
0.426889
0.430885
0.434769
0.438541
0.442201
0.445748
0.449184
0.452507
0.455719
0.458819
0.461807
0.464683
0.467448
0.470101
0.472644
0.475075
0.477396
0.479606
0.481706
0.483695
0.485575
0.487344
0.489005
0.490555
0.491997
0.49333
0.494554
0.495669
0.496674
0.497559
0.498316
0.499053
0.500284
0.501774
0.497469
0.493186
0.491905
0.505436
97.7804
-39.8876
8.85196
-0.0416217
-0.207616
0.0556899
0.0819724
0.0849544
0.0935835
0.103676
0.113754
0.123743
0.133681
0.143576
0.153422
0.163219
0.17296
0.182645
0.192268
0.201828
0.21132
0.220743
0.230093
0.239368
0.248564
0.257679
0.26671
0.275655
0.284512
0.293277
0.301948
0.310524
0.319001
0.327378
0.335652
0.343822
0.351885
0.35984
0.367685
0.375417
0.383037
0.390541
0.397928
0.405197
0.412347
0.419377
0.426284
0.433068
0.439729
0.446264
0.452674
0.458957
0.465112
0.471139
0.477037
0.482806
0.488445
0.493953
0.499331
0.504577
0.509692
0.514675
0.519527
0.524246
0.528832
0.533287
0.537609
0.541799
0.545856
0.549781
0.553574
0.557235
0.560764
0.56416
0.567426
0.57056
0.573562
0.576434
0.579174
0.581784
0.584264
0.586614
0.588834
0.590924
0.592884
0.594716
0.596419
0.597992
0.599438
0.600756
0.601945
0.603001
0.603902
0.604652
0.605499
0.606867
0.607273
0.606517
0.602579
0.60855
97.7809
-39.8894
8.85057
-0.0421662
-0.206831
0.0580032
0.0858456
0.09038
0.100552
0.112182
0.123791
0.135307
0.146764
0.158171
0.169524
0.180818
0.19205
0.203215
0.21431
0.225331
0.236275
0.247139
0.257919
0.268612
0.279214
0.289723
0.300136
0.310449
0.32066
0.330765
0.340763
0.350649
0.360423
0.370081
0.379621
0.38904
0.398336
0.407507
0.416551
0.425467
0.434251
0.442902
0.451419
0.4598
0.468044
0.476148
0.484111
0.491933
0.499612
0.507147
0.514536
0.52178
0.528876
0.535825
0.542625
0.549276
0.555777
0.562128
0.568328
0.574376
0.580273
0.586018
0.591611
0.597052
0.60234
0.607476
0.612459
0.617289
0.621967
0.626492
0.630865
0.635086
0.639154
0.64307
0.646835
0.650448
0.653909
0.65722
0.66038
0.663389
0.666248
0.668957
0.671516
0.673926
0.676186
0.678298
0.680261
0.682076
0.683742
0.685261
0.686633
0.687858
0.688923
0.689801
0.690538
0.691378
0.692287
0.693177
0.689556
0.694606
97.7816
-39.8882
8.85325
-0.0380044
-0.201127
0.0652647
0.0946584
0.100736
0.112446
0.125608
0.138746
0.151783
0.164756
0.177672
0.190527
0.203315
0.216032
0.228674
0.241237
0.253716
0.266109
0.27841
0.290616
0.302723
0.314728
0.326628
0.338418
0.350095
0.361657
0.373099
0.384419
0.395614
0.406681
0.417616
0.428418
0.439083
0.449609
0.459994
0.470234
0.480329
0.490275
0.500071
0.509715
0.519204
0.528538
0.537714
0.546731
0.555588
0.564282
0.572814
0.581181
0.589383
0.597418
0.605286
0.612986
0.620516
0.627877
0.635068
0.642088
0.648937
0.655614
0.662119
0.668452
0.674612
0.6806
0.686415
0.692057
0.697526
0.702823
0.707946
0.712898
0.717676
0.722283
0.726717
0.73098
0.735071
0.73899
0.742739
0.746317
0.749724
0.752961
0.756028
0.758926
0.761655
0.764214
0.766605
0.768828
0.770882
0.772769
0.774489
0.776042
0.77743
0.77865
0.779685
0.780519
0.781206
0.781991
0.783532
0.778551
0.785221
97.7825
-39.8859
8.85714
-0.0325546
-0.194127
0.0738129
0.104749
0.112364
0.125607
0.140297
0.154957
0.169512
0.183997
0.198418
0.212769
0.227047
0.241246
0.25536
0.269387
0.28332
0.297156
0.31089
0.324518
0.338036
0.351439
0.364725
0.377888
0.390926
0.403835
0.41661
0.429249
0.441748
0.454104
0.466313
0.478373
0.490281
0.502033
0.513627
0.525061
0.536331
0.547436
0.558373
0.56914
0.579735
0.590156
0.600401
0.610468
0.620357
0.630064
0.639589
0.648931
0.658088
0.667059
0.675844
0.68444
0.692848
0.701066
0.709095
0.716932
0.724579
0.732034
0.739296
0.746367
0.753245
0.75993
0.766422
0.772721
0.778828
0.784741
0.790462
0.79599
0.801325
0.806468
0.811419
0.816178
0.820746
0.825122
0.829307
0.833301
0.837106
0.84072
0.844144
0.84738
0.850426
0.853284
0.855953
0.858435
0.860729
0.862836
0.864755
0.866489
0.868037
0.869401
0.870576
0.871538
0.872255
0.872986
0.875236
0.868334
0.87701
97.7833
-39.8835
8.86105
-0.0270961
-0.187127
0.082352
0.114824
0.12397
0.138741
0.154955
0.171133
0.187201
0.203192
0.219112
0.234956
0.250719
0.266394
0.281976
0.297461
0.312844
0.328118
0.34328
0.358326
0.37325
0.388047
0.402715
0.417247
0.431641
0.445892
0.459996
0.473949
0.487748
0.501389
0.514868
0.528182
0.541327
0.554302
0.567102
0.579724
0.592167
0.604426
0.616501
0.628387
0.640084
0.651589
0.662899
0.674013
0.68493
0.695647
0.706162
0.716475
0.726585
0.736489
0.746186
0.755677
0.764959
0.774032
0.782895
0.791548
0.799989
0.808219
0.816237
0.824043
0.831636
0.839016
0.846183
0.853137
0.859879
0.866407
0.872722
0.878825
0.884715
0.890393
0.895859
0.901113
0.906155
0.910986
0.915607
0.920017
0.924216
0.928206
0.931987
0.935559
0.938922
0.942077
0.945024
0.947764
0.950296
0.952622
0.954742
0.956655
0.958363
0.959867
0.961169
0.962248
0.963029
0.963736
0.966764
0.957989
0.968552
97.7841
-39.8812
8.8649
-0.0217003
-0.180197
0.0908156
0.124817
0.13549
0.151784
0.169515
0.187206
0.20478
0.222273
0.239687
0.257018
0.27426
0.291406
0.308451
0.32539
0.342216
0.358924
0.375509
0.391967
0.408291
0.424478
0.440522
0.456418
0.472163
0.487752
0.503179
0.518442
0.533536
0.548457
0.563201
0.577765
0.592144
0.606336
0.620337
0.634145
0.647755
0.661165
0.674373
0.687375
0.700169
0.712753
0.725125
0.737282
0.749223
0.760946
0.772449
0.783729
0.794787
0.805621
0.816229
0.82661
0.836763
0.846687
0.856382
0.865847
0.87508
0.884082
0.892853
0.901391
0.909696
0.917769
0.925609
0.933216
0.94059
0.947731
0.954639
0.961314
0.967757
0.973968
0.979946
0.985693
0.991209
0.996493
1.00155
1.00637
1.01096
1.01533
1.01946
1.02337
1.02705
1.0305
1.03373
1.03672
1.03949
1.04204
1.04436
1.04645
1.04832
1.04996
1.05138
1.05257
1.05342
1.0541
1.05785
1.04746
1.05965
97.7849
-39.8789
8.86874
-0.0163353
-0.173303
0.0992366
0.134762
0.146956
0.164765
0.184008
0.203206
0.222282
0.241269
0.260172
0.278984
0.297699
0.316311
0.334812
0.353198
0.371462
0.389598
0.407601
0.425465
0.443185
0.460755
0.47817
0.495425
0.512515
0.529436
0.546182
0.562749
0.579133
0.595329
0.611333
0.627142
0.64275
0.658155
0.673353
0.68834
0.703113
0.717669
0.732005
0.746118
0.760006
0.773666
0.787095
0.800291
0.813252
0.825976
0.838462
0.850707
0.862709
0.874468
0.885983
0.897251
0.908271
0.919044
0.929567
0.93984
0.949863
0.959634
0.969154
0.978421
0.987437
0.996199
1.00471
1.01297
1.02097
1.02872
1.03622
1.04346
1.05046
1.0572
1.06369
1.06993
1.07591
1.08165
1.08714
1.09237
1.09736
1.1021
1.10658
1.11082
1.11482
1.11856
1.12206
1.12532
1.12832
1.13109
1.1336
1.13587
1.1379
1.13969
1.14123
1.14253
1.14344
1.1441
1.14844
1.13679
1.15028
97.7857
-39.8767
8.87255
-0.0109941
-0.166438
0.107621
0.144664
0.158372
0.177691
0.198439
0.219137
0.239707
0.260183
0.280567
0.300855
0.321037
0.341107
0.361059
0.380886
0.400582
0.42014
0.439554
0.458819
0.477927
0.496875
0.515655
0.534263
0.552693
0.57094
0.588999
0.606865
0.624533
0.641999
0.659258
0.676305
0.693137
0.709749
0.726138
0.7423
0.758231
0.773928
0.789388
0.804608
0.819584
0.834314
0.848796
0.863026
0.877003
0.890725
0.904189
0.917393
0.930337
0.943018
0.955434
0.967585
0.97947
0.991086
1.00243
1.01351
1.02432
1.03486
1.04512
1.05512
1.06484
1.07429
1.08347
1.09237
1.101
1.10936
1.11744
1.12526
1.1328
1.14007
1.14707
1.15379
1.16025
1.16644
1.17235
1.178
1.18338
1.18848
1.19333
1.1979
1.2022
1.20624
1.21002
1.21353
1.21677
1.21975
1.22246
1.22491
1.2271
1.22902
1.23069
1.23209
1.23308
1.23373
1.23852
1.22594
1.24043
97.7865
-39.8744
8.87636
-0.00567783
-0.159606
0.115967
0.15452
0.169735
0.190557
0.212803
0.234995
0.257052
0.279009
0.300869
0.322623
0.344266
0.365789
0.387184
0.408446
0.429567
0.45054
0.471358
0.492017
0.512508
0.532826
0.552966
0.57292
0.592684
0.612251
0.631616
0.650775
0.669722
0.688451
0.706958
0.725239
0.743288
0.761103
0.778677
0.796008
0.813092
0.829925
0.846503
0.862824
0.878883
0.894679
0.910208
0.925468
0.940456
0.95517
0.969608
0.983768
0.997648
1.01125
1.02456
1.03759
1.05033
1.06279
1.07496
1.08684
1.09843
1.10973
1.12074
1.13145
1.14188
1.15201
1.16185
1.1714
1.18066
1.18962
1.19829
1.20667
1.21476
1.22255
1.23006
1.23727
1.24419
1.25083
1.25717
1.26322
1.26899
1.27447
1.27966
1.28456
1.28918
1.29351
1.29756
1.30132
1.3048
1.30799
1.3109
1.31353
1.31588
1.31794
1.31973
1.32123
1.3223
1.32297
1.32805
1.31488
1.33007
97.7872
-39.8721
8.88014
-0.000388509
-0.152807
0.124271
0.164327
0.181041
0.203358
0.227095
0.250772
0.27431
0.297741
0.321068
0.344283
0.367379
0.390346
0.413178
0.435867
0.458405
0.480787
0.503003
0.525048
0.546915
0.568598
0.590089
0.611383
0.632473
0.653354
0.67402
0.694464
0.714683
0.734669
0.754419
0.773927
0.793188
0.812198
0.830952
0.849447
0.867677
0.88564
0.903331
0.920747
0.937884
0.95474
0.971312
0.987596
1.00359
1.01929
1.0347
1.04981
1.06462
1.07913
1.09334
1.10724
1.12084
1.13414
1.14712
1.1598
1.17217
1.18422
1.19597
1.20741
1.21853
1.22934
1.23984
1.25003
1.25991
1.26947
1.27873
1.28767
1.2963
1.30462
1.31262
1.32032
1.32771
1.33479
1.34156
1.34802
1.35417
1.36002
1.36556
1.37079
1.37572
1.38034
1.38466
1.38867
1.39239
1.39579
1.3989
1.4017
1.40421
1.40641
1.40831
1.40992
1.41108
1.41177
1.41703
1.40355
1.41918
97.788
-39.8699
8.8839
0.00487213
-0.146045
0.132531
0.174081
0.192286
0.21609
0.24131
0.266465
0.291475
0.316372
0.341159
0.365827
0.390367
0.414771
0.439032
0.463141
0.487089
0.510871
0.534478
0.557902
0.581137
0.604176
0.627012
0.649639
0.672049
0.694236
0.716195
0.737919
0.759402
0.780639
0.801624
0.822353
0.842819
0.863018
0.882946
0.902597
0.921968
0.941055
0.959852
0.978358
0.996567
1.01448
1.03209
1.04939
1.06638
1.08307
1.09944
1.11549
1.13123
1.14665
1.16175
1.17652
1.19097
1.2051
1.21889
1.23236
1.2455
1.25832
1.2708
1.28295
1.29477
1.30626
1.31742
1.32824
1.33874
1.3489
1.35873
1.36823
1.3774
1.38624
1.39475
1.40293
1.41078
1.4183
1.42549
1.43236
1.43889
1.44511
1.45099
1.45655
1.46179
1.4667
1.47129
1.47555
1.4795
1.48312
1.48642
1.4894
1.49206
1.4944
1.49642
1.49813
1.49937
1.50011
1.50544
1.4919
1.50775
97.7888
-39.8676
8.88764
0.0101024
-0.139323
0.140742
0.183779
0.203466
0.22875
0.255444
0.282068
0.308541
0.334896
0.361134
0.387246
0.413224
0.439057
0.464738
0.490258
0.515609
0.540783
0.565772
0.590568
0.615163
0.639551
0.663724
0.687675
0.711398
0.734884
0.758128
0.781124
0.803865
0.826345
0.848559
0.870501
0.892166
0.913547
0.934642
0.955443
0.975948
0.996152
1.01605
1.03564
1.05491
1.07387
1.09251
1.11083
1.12882
1.14648
1.16381
1.1808
1.19746
1.21378
1.22976
1.2454
1.2607
1.27565
1.29025
1.30451
1.31842
1.33198
1.34519
1.35806
1.37057
1.38273
1.39454
1.406
1.41711
1.42787
1.43827
1.44833
1.45804
1.46739
1.4764
1.48506
1.49337
1.50133
1.50894
1.51621
1.52313
1.5297
1.53593
1.54182
1.54736
1.55256
1.55742
1.56194
1.56611
1.56994
1.57344
1.57659
1.57941
1.58188
1.58403
1.58583
1.58716
1.58796
1.59328
1.57986
1.59576
97.7895
-39.8654
8.89136
0.0153007
-0.132641
0.148904
0.193418
0.214579
0.241332
0.269492
0.297576
0.325504
0.353308
0.380988
0.408536
0.435941
0.463195
0.490287
0.51721
0.543955
0.570513
0.596875
0.623035
0.648982
0.674711
0.700213
0.725481
0.750507
0.775285
0.799807
0.824066
0.848058
0.871774
0.895209
0.918357
0.941212
0.963769
0.986022
1.00797
1.0296
1.05091
1.07191
1.09257
1.11291
1.13291
1.15257
1.17189
1.19087
1.2095
1.22778
1.24571
1.26328
1.2805
1.29736
1.31386
1.33
1.34577
1.36118
1.37622
1.39089
1.4052
1.41914
1.43271
1.44591
1.45874
1.4712
1.48328
1.495
1.50635
1.51733
1.52794
1.53818
1.54805
1.55755
1.56668
1.57545
1.58385
1.59188
1.59955
1.60685
1.61379
1.62036
1.62657
1.63242
1.6379
1.64303
1.64779
1.65219
1.65624
1.65992
1.66325
1.66622
1.66883
1.6711
1.673
1.67442
1.67528
1.68052
1.66739
1.68319
97.7902
-39.8632
8.89505
0.0204655
-0.126002
0.157013
0.202994
0.22562
0.253833
0.283449
0.312984
0.342358
0.371601
0.400714
0.429688
0.458512
0.487177
0.515672
0.543989
0.572119
0.600051
0.627779
0.655293
0.682584
0.709645
0.736467
0.763043
0.789365
0.815425
0.841217
0.866732
0.891966
0.916909
0.941557
0.965904
0.989942
1.01367
1.03707
1.06015
1.0829
1.10532
1.1274
1.14914
1.17052
1.19156
1.21224
1.23256
1.25252
1.27212
1.29134
1.3102
1.32869
1.34679
1.36453
1.38188
1.39885
1.41544
1.43164
1.44746
1.4629
1.47794
1.4926
1.50687
1.52076
1.53425
1.54735
1.56007
1.57239
1.58433
1.59588
1.60703
1.6178
1.62819
1.63818
1.64778
1.657
1.66584
1.67429
1.68235
1.69003
1.69732
1.70424
1.71077
1.71692
1.72269
1.72808
1.73309
1.73772
1.74197
1.74585
1.74935
1.75247
1.75522
1.7576
1.75961
1.76111
1.76205
1.76715
1.75443
1.77003
97.791
-39.861
8.89872
0.0255951
-0.119408
0.165067
0.212506
0.236586
0.266249
0.297311
0.328287
0.359097
0.38977
0.420307
0.450697
0.48093
0.510996
0.540885
0.570586
0.600091
0.62939
0.658473
0.687332
0.715957
0.744341
0.772475
0.80035
0.827958
0.855293
0.882345
0.909109
0.935575
0.961738
0.987592
1.01313
1.03834
1.06323
1.08778
1.11198
1.13585
1.15936
1.18252
1.20532
1.22775
1.24981
1.2715
1.29282
1.31376
1.33431
1.35447
1.37425
1.39364
1.41263
1.43123
1.44943
1.46723
1.48463
1.50163
1.51822
1.53441
1.55019
1.56557
1.58054
1.5951
1.60925
1.62299
1.63633
1.64926
1.66178
1.67389
1.68559
1.69689
1.70778
1.71826
1.72833
1.738
1.74727
1.75613
1.76459
1.77264
1.78029
1.78754
1.79439
1.80084
1.8069
1.81255
1.8178
1.82266
1.82713
1.83119
1.83486
1.83814
1.84102
1.84352
1.84562
1.84721
1.84824
1.85316
1.84094
1.85625
97.7917
-39.8588
8.90236
0.0306881
-0.112862
0.173064
0.22195
0.247473
0.278577
0.311074
0.343481
0.375716
0.407809
0.439759
0.471556
0.503188
0.534646
0.565918
0.596994
0.627864
0.658518
0.688947
0.719142
0.749092
0.778789
0.808225
0.83739
0.866277
0.894876
0.92318
0.951182
0.978873
1.00625
1.0333
1.06001
1.08639
1.11243
1.13812
1.16345
1.18841
1.21301
1.23724
1.26109
1.28456
1.30765
1.33034
1.35265
1.37455
1.39605
1.41715
1.43785
1.45813
1.478
1.49746
1.5165
1.53513
1.55333
1.57111
1.58847
1.60541
1.62192
1.63801
1.65367
1.66891
1.68371
1.69809
1.71205
1.72557
1.73867
1.75134
1.76358
1.7754
1.78679
1.79776
1.8083
1.81842
1.82811
1.83738
1.84623
1.85466
1.86266
1.87025
1.87742
1.88417
1.8905
1.89641
1.90191
1.907
1.91167
1.91592
1.91976
1.92319
1.92621
1.92882
1.93102
1.93269
1.93381
1.93854
1.92686
1.94184
97.7924
-39.8566
8.90597
0.0357429
-0.106365
0.181
0.231322
0.258279
0.290812
0.324734
0.358561
0.392211
0.425713
0.459065
0.492258
0.525279
0.558118
0.590762
0.623203
0.655428
0.687428
0.719193
0.750713
0.781978
0.81298
0.843707
0.874153
0.904307
0.934162
0.963709
0.99294
1.02185
1.05042
1.07866
1.10655
1.13409
1.16127
1.18808
1.21452
1.24058
1.26626
1.29156
1.31645
1.34095
1.36505
1.38874
1.41202
1.43489
1.45734
1.47936
1.50096
1.52214
1.54288
1.56319
1.58307
1.60251
1.62151
1.64008
1.6582
1.67588
1.69311
1.70991
1.72625
1.74216
1.75761
1.77263
1.78719
1.80131
1.81498
1.82821
1.84099
1.85333
1.86522
1.87667
1.88767
1.89823
1.90835
1.91803
1.92726
1.93606
1.94442
1.95234
1.95982
1.96686
1.97347
1.97965
1.98539
1.9907
1.99557
2.00001
2.00402
2.0076
2.01075
2.01348
2.01577
2.01753
2.01873
2.02326
2.01215
2.02678
97.7932
-39.8545
8.90956
0.0407581
-0.0999184
0.188874
0.240621
0.269
0.302951
0.338286
0.373522
0.408576
0.443476
0.47822
0.512798
0.547197
0.581405
0.615412
0.649206
0.682776
0.716111
0.749202
0.782037
0.814606
0.846901
0.878911
0.910627
0.942039
0.973139
1.00392
1.03437
1.06448
1.09425
1.12366
1.15272
1.1814
1.20972
1.23765
1.26519
1.29234
1.31909
1.34544
1.37138
1.3969
1.422
1.44668
1.47093
1.49475
1.51813
1.54108
1.56358
1.58564
1.60725
1.6284
1.64911
1.66936
1.68916
1.70849
1.72737
1.74579
1.76374
1.78124
1.79827
1.81483
1.83093
1.84657
1.86174
1.87645
1.89069
1.90447
1.91778
1.93064
1.94302
1.95495
1.96641
1.97741
1.98795
1.99803
2.00766
2.01682
2.02553
2.03377
2.04157
2.04891
2.05579
2.06223
2.06821
2.07373
2.07881
2.08344
2.08762
2.09135
2.09463
2.09747
2.09986
2.1017
2.10299
2.10731
2.09678
2.11104
97.7939
-39.8523
8.91311
0.0457322
-0.0935252
0.196684
0.249844
0.279633
0.31499
0.351728
0.388361
0.424807
0.461093
0.497217
0.533169
0.568934
0.604502
0.639859
0.674996
0.709899
0.744559
0.778964
0.813103
0.846967
0.880544
0.913825
0.946801
0.979461
1.0118
1.0438
1.07546
1.10677
1.13772
1.1683
1.19851
1.22833
1.25777
1.28681
1.31545
1.34368
1.37149
1.39888
1.42585
1.45239
1.47848
1.50414
1.52936
1.55412
1.57843
1.60229
1.62568
1.64862
1.67108
1.69308
1.71461
1.73566
1.75624
1.77635
1.79598
1.81512
1.83379
1.85198
1.86968
1.88691
1.90365
1.9199
1.93568
1.95097
1.96578
1.9801
1.99395
2.00731
2.02019
2.03258
2.0445
2.05594
2.0669
2.07738
2.08738
2.09691
2.10596
2.11454
2.12264
2.13027
2.13743
2.14412
2.15034
2.15609
2.16137
2.16618
2.17052
2.1744
2.17781
2.18076
2.18325
2.18518
2.18656
2.19067
2.18071
2.1946
97.7946
-39.8502
8.91664
0.0506637
-0.0871868
0.204426
0.258988
0.290174
0.326926
0.365054
0.403073
0.440898
0.478559
0.516052
0.553365
0.590485
0.6274
0.664097
0.700564
0.73679
0.772762
0.80847
0.843903
0.879049
0.913898
0.94844
0.982665
1.01656
1.05012
1.08334
1.11619
1.14869
1.18081
1.21255
1.2439
1.27486
1.30541
1.33555
1.36527
1.39457
1.42344
1.45187
1.47985
1.50739
1.53448
1.56111
1.58728
1.61298
1.63821
1.66297
1.68725
1.71105
1.73437
1.7572
1.77954
1.8014
1.82275
1.84362
1.86399
1.88386
1.90324
1.92211
1.94049
1.95836
1.97574
1.99261
2.00898
2.02485
2.04022
2.05508
2.06945
2.08332
2.09668
2.10955
2.12192
2.13379
2.14516
2.15604
2.16643
2.17631
2.18571
2.19461
2.20302
2.21094
2.21837
2.22531
2.23176
2.23773
2.24321
2.2482
2.25271
2.25674
2.26028
2.26334
2.26592
2.26794
2.2694
2.27332
2.26391
2.27746
97.7953
-39.8481
8.92013
0.0555512
-0.080905
0.212099
0.26805
0.300622
0.338756
0.378261
0.417653
0.456846
0.495869
0.534718
0.573381
0.611844
0.650094
0.688118
0.725905
0.76344
0.800714
0.837714
0.874428
0.910845
0.946955
0.982746
1.01821
1.05333
1.08811
1.12252
1.15657
1.19024
1.22352
1.25641
1.28889
1.32097
1.35262
1.38385
1.41465
1.44501
1.47492
1.50437
1.53337
1.56191
1.58998
1.61757
1.64468
1.67131
1.69746
1.72311
1.74827
1.77293
1.79709
1.82074
1.8439
1.86654
1.88867
1.91029
1.93139
1.95198
1.97206
1.99162
2.01066
2.02918
2.04718
2.06466
2.08162
2.09807
2.11399
2.12939
2.14428
2.15865
2.1725
2.18583
2.19864
2.21094
2.22273
2.234
2.24476
2.255
2.26474
2.27396
2.28268
2.29088
2.29858
2.30577
2.31246
2.31864
2.32432
2.32949
2.33417
2.33834
2.34201
2.34518
2.34785
2.34995
2.3515
2.35523
2.34635
2.35957
97.796
-39.8461
8.92359
0.0603934
-0.0746815
0.219701
0.277028
0.310972
0.350475
0.391345
0.432097
0.472646
0.513019
0.553211
0.593211
0.633004
0.672577
0.711916
0.751009
0.789843
0.828406
0.866685
0.904668
0.942345
0.979703
1.01673
1.05342
1.08976
1.12573
1.16134
1.19656
1.2314
1.26583
1.29986
1.33347
1.36665
1.3994
1.43171
1.46357
1.49497
1.52592
1.55639
1.5864
1.61592
1.64495
1.6735
1.70155
1.7291
1.75615
1.78269
1.80872
1.83423
1.85922
1.8837
1.90765
1.93107
1.95397
1.97633
1.99817
2.01947
2.04024
2.06047
2.08017
2.09933
2.11795
2.13604
2.15359
2.1706
2.18707
2.20301
2.21841
2.23327
2.2476
2.26139
2.27465
2.28737
2.29957
2.31123
2.32236
2.33296
2.34303
2.35257
2.36159
2.37008
2.37804
2.38548
2.3924
2.3988
2.40467
2.41002
2.41486
2.41917
2.42297
2.42625
2.42902
2.4312
2.43283
2.43639
2.428
2.44092
97.7966
-39.844
8.92702
0.0651889
-0.0685182
0.22723
0.285919
0.321223
0.362081
0.404303
0.446402
0.488293
0.530002
0.571526
0.61285
0.65396
0.694843
0.735484
0.775871
0.815991
0.85583
0.895376
0.934617
0.973541
1.01214
1.05039
1.08829
1.12583
1.163
1.19978
1.23617
1.27216
1.30773
1.34288
1.3776
1.41189
1.44572
1.4791
1.51201
1.54446
1.57643
1.60791
1.6389
1.6694
1.6994
1.72889
1.75787
1.78633
1.81427
1.84169
1.86858
1.89493
1.92076
1.94604
1.97078
1.99498
2.01863
2.04174
2.06429
2.0863
2.10776
2.12866
2.14901
2.1688
2.18804
2.20672
2.22485
2.24242
2.25944
2.27591
2.29182
2.30717
2.32197
2.33622
2.34992
2.36306
2.37566
2.3877
2.3992
2.41015
2.42056
2.43042
2.43973
2.4485
2.45673
2.46442
2.47156
2.47817
2.48424
2.48977
2.49477
2.49923
2.50315
2.50654
2.5094
2.51166
2.51337
2.51678
2.50884
2.52149
97.7973
-39.842
8.93041
0.0699363
-0.0624167
0.234683
0.294721
0.331371
0.373571
0.417131
0.460564
0.503783
0.546815
0.589656
0.632291
0.674705
0.716885
0.758815
0.800484
0.841876
0.882978
0.923779
0.964264
1.00442
1.04424
1.08371
1.12281
1.16155
1.19989
1.23784
1.27538
1.31251
1.34921
1.38548
1.4213
1.45667
1.49158
1.52601
1.55997
1.59344
1.62643
1.65891
1.69088
1.72235
1.7533
1.78372
1.81362
1.84298
1.87181
1.9001
1.92784
1.95503
1.98167
2.00775
2.03328
2.05824
2.08265
2.10648
2.12975
2.15246
2.17459
2.19616
2.21715
2.23757
2.25742
2.27669
2.2954
2.31353
2.33109
2.34807
2.36448
2.38032
2.3956
2.4103
2.42443
2.43799
2.45098
2.46341
2.47527
2.48657
2.4973
2.50747
2.51708
2.52613
2.53462
2.54255
2.54993
2.55675
2.56301
2.56872
2.57387
2.57847
2.58252
2.58602
2.58896
2.5913
2.59309
2.59637
2.58884
2.60125
97.798
-39.8399
8.93377
0.0746345
-0.0563786
0.242058
0.303431
0.341413
0.384942
0.429826
0.474578
0.519112
0.563454
0.607598
0.65153
0.695235
0.738698
0.781904
0.82484
0.867491
0.909844
0.951886
0.993604
1.03498
1.07601
1.11668
1.15698
1.19689
1.2364
1.2755
1.31419
1.35244
1.39026
1.42763
1.46454
1.50099
1.53695
1.57244
1.60743
1.64192
1.6759
1.70937
1.74232
1.77474
1.80663
1.83798
1.86879
1.89904
1.92875
1.95789
1.98648
2.01449
2.04194
2.06882
2.09512
2.12085
2.14599
2.17055
2.19453
2.21792
2.24073
2.26295
2.28458
2.30562
2.32607
2.34594
2.36521
2.38389
2.40198
2.41948
2.43639
2.45271
2.46845
2.4836
2.49816
2.51213
2.52552
2.53832
2.55055
2.56219
2.57325
2.58373
2.59363
2.60295
2.6117
2.61988
2.62747
2.6345
2.64095
2.64683
2.65214
2.65689
2.66106
2.66466
2.6677
2.67012
2.67198
2.67514
2.66798
2.68019
97.7986
-39.838
8.93709
0.079282
-0.0504056
0.249354
0.312048
0.351347
0.396189
0.442383
0.488441
0.534276
0.579913
0.625346
0.670561
0.715543
0.760275
0.804744
0.848933
0.89283
0.936421
0.97969
1.02263
1.06521
1.10744
1.1493
1.19077
1.23184
1.27251
1.31276
1.35257
1.39195
1.43087
1.46933
1.50732
1.54482
1.58184
1.61836
1.65437
1.68987
1.72485
1.75929
1.7932
1.82657
1.85939
1.89166
1.92336
1.9545
1.98507
2.01507
2.04448
2.07332
2.10157
2.12923
2.1563
2.18277
2.20865
2.23393
2.25861
2.28268
2.30615
2.32902
2.35128
2.37294
2.39399
2.41443
2.43426
2.45348
2.4721
2.49011
2.50752
2.52432
2.54051
2.5561
2.57109
2.58547
2.59925
2.61243
2.62501
2.63699
2.64837
2.65916
2.66935
2.67894
2.68795
2.69636
2.70418
2.71141
2.71805
2.7241
2.72957
2.73445
2.73875
2.74246
2.74558
2.74808
2.75001
2.75307
2.74625
2.75829
97.7993
-39.836
8.94038
0.0838778
-0.0444992
0.256569
0.320568
0.36117
0.407312
0.454801
0.50215
0.54927
0.596188
0.642896
0.689381
0.735624
0.781612
0.827328
0.872758
0.917887
0.9627
1.00718
1.05132
1.09511
1.13852
1.18155
1.22419
1.26641
1.30822
1.34959
1.39053
1.43101
1.47102
1.51056
1.54961
1.58817
1.62623
1.66377
1.70079
1.73729
1.77324
1.80865
1.84352
1.87782
1.91156
1.94473
1.97732
2.00933
2.04076
2.0716
2.10184
2.13148
2.16052
2.18896
2.21679
2.244
2.27061
2.29659
2.32196
2.34671
2.37084
2.39435
2.41724
2.4395
2.46114
2.48215
2.50254
2.5223
2.54144
2.55996
2.57785
2.59512
2.61177
2.62779
2.6432
2.65798
2.67215
2.6857
2.69863
2.71095
2.72265
2.73374
2.74421
2.75408
2.76334
2.77198
2.78002
2.78746
2.79428
2.80051
2.80613
2.81115
2.81556
2.81938
2.82259
2.82516
2.82717
2.83013
2.82362
2.83551
97.7999
-39.834
8.94362
0.0884205
-0.0386609
0.263701
0.32899
0.37088
0.418306
0.467075
0.5157
0.564092
0.612275
0.660244
0.707982
0.755474
0.802702
0.849652
0.896308
0.942654
0.988676
1.03436
1.07969
1.12466
1.16924
1.21343
1.25722
1.30058
1.34352
1.38601
1.42804
1.46961
1.51071
1.55131
1.59142
1.63102
1.6701
1.70865
1.74667
1.78415
1.82108
1.85744
1.89325
1.92847
1.96312
1.99719
2.03066
2.06353
2.09581
2.12747
2.15853
2.18897
2.2188
2.248
2.27658
2.30453
2.33185
2.35853
2.38459
2.41
2.43478
2.45892
2.48242
2.50529
2.52751
2.54909
2.57002
2.59032
2.60998
2.62899
2.64737
2.6651
2.6822
2.69865
2.71447
2.72966
2.7442
2.75812
2.7714
2.78405
2.79606
2.80745
2.81821
2.82834
2.83785
2.84673
2.85499
2.86262
2.86963
2.87603
2.8818
2.88695
2.89149
2.89541
2.89871
2.90135
2.90343
2.90632
2.90007
2.91184
97.8006
-39.8321
8.94683
0.0929091
-0.0328923
0.270747
0.337312
0.380474
0.429168
0.479203
0.529089
0.578736
0.628171
0.677385
0.726362
0.775087
0.823541
0.871709
0.919576
0.967125
1.01434
1.06121
1.10772
1.15385
1.19959
1.24493
1.28985
1.33434
1.37839
1.42199
1.46511
1.50776
1.54992
1.59158
1.63272
1.67335
1.71345
1.753
1.79201
1.83046
1.86834
1.90565
1.94238
1.97852
2.01407
2.04902
2.08336
2.11708
2.15019
2.18268
2.21454
2.24578
2.27637
2.30633
2.33565
2.36432
2.39235
2.41973
2.44646
2.47253
2.49796
2.52272
2.54683
2.57029
2.59308
2.61522
2.6367
2.65752
2.67769
2.6972
2.71605
2.73424
2.75178
2.76866
2.78489