/*--------------------------------*- C++ -*----------------------------------*\
  =========                 |
  \\      /  F ield         | OpenFOAM: The Open Source CFD Toolbox
   \\    /   O peration     | Website:  https://openfoam.org
    \\  /    A nd           | Version:  10
     \\/     M anipulation  |
\*---------------------------------------------------------------------------*/
FoamFile
{
    format      ascii;
    class       volScalarField;
    location    "39";
    object      T;
}
// * * * * * * * * * * * * * * * * * * * * * * * * * * * * * * * * * * * * * //

dimensions      [0 0 0 1 0 0 0];

internalField   nonuniform List<scalar> 
10000
(
374.988
361.301
356.628
354.584
353.479
352.785
352.303
351.946
351.668
351.445
351.259
351.102
350.966
350.847
350.741
350.646
350.56
350.48
350.407
350.339
350.276
350.216
350.16
350.107
350.056
350.008
349.962
349.918
349.875
349.834
349.795
349.756
349.719
349.684
349.649
349.615
349.582
349.55
349.519
349.489
349.459
349.43
349.402
349.375
349.348
349.322
349.297
349.272
349.247
349.224
349.201
349.178
349.156
349.134
349.113
349.093
349.073
349.053
349.034
349.016
348.998
348.98
348.963
348.947
348.93
348.915
348.9
348.885
348.871
348.857
348.844
348.831
348.818
348.806
348.795
348.784
348.773
348.763
348.754
348.744
348.736
348.727
348.719
348.712
348.705
348.698
348.692
348.687
348.682
348.677
348.673
348.669
348.665
348.662
348.66
348.658
348.656
348.655
348.654
348.654
388.625
374.888
367.254
362.813
360.026
358.14
356.784
355.758
354.95
354.295
353.749
353.284
352.881
352.528
352.213
351.929
351.671
351.435
351.216
351.014
350.824
350.646
350.477
350.318
350.167
350.022
349.884
349.751
349.624
349.501
349.382
349.268
349.157
349.049
348.945
348.844
348.745
348.649
348.556
348.465
348.377
348.29
348.206
348.124
348.044
347.966
347.889
347.815
347.742
347.671
347.601
347.533
347.467
347.402
347.339
347.278
347.218
347.159
347.102
347.047
346.993
346.94
346.889
346.839
346.791
346.744
346.699
346.655
346.612
346.57
346.531
346.492
346.455
346.419
346.384
346.351
346.32
346.289
346.26
346.233
346.206
346.181
346.158
346.135
346.115
346.095
346.077
346.06
346.044
346.03
346.017
346.006
345.996
345.987
345.98
345.973
345.969
345.965
345.963
345.962
393.248
382.372
374.689
369.39
365.67
362.968
360.935
359.351
358.081
357.036
356.157
355.404
354.749
354.17
353.654
353.187
352.762
352.372
352.011
351.675
351.361
351.066
350.787
350.523
350.271
350.031
349.801
349.581
349.369
349.164
348.967
348.777
348.592
348.413
348.24
348.071
347.907
347.748
347.593
347.442
347.294
347.15
347.01
346.873
346.74
346.609
346.482
346.358
346.236
346.118
346.002
345.889
345.779
345.671
345.566
345.464
345.364
345.266
345.171
345.079
344.989
344.901
344.816
344.733
344.653
344.574
344.499
344.425
344.354
344.285
344.219
344.154
344.092
344.033
343.975
343.92
343.867
343.817
343.768
343.722
343.678
343.637
343.598
343.56
343.526
343.493
343.463
343.435
343.409
343.385
343.364
343.345
343.328
343.313
343.301
343.29
343.283
343.277
343.273
343.272
395.242
386.663
379.738
374.39
370.295
367.129
364.636
362.632
360.988
359.612
358.441
357.428
356.54
355.752
355.045
354.404
353.819
353.281
352.782
352.317
351.881
351.471
351.084
350.716
350.366
350.031
349.711
349.404
349.108
348.823
348.548
348.282
348.024
347.774
347.532
347.296
347.067
346.845
346.628
346.416
346.21
346.009
345.813
345.622
345.435
345.253
345.075
344.901
344.731
344.565
344.403
344.245
344.091
343.94
343.793
343.65
343.51
343.374
343.241
343.112
342.986
342.863
342.744
342.628
342.515
342.406
342.3
342.197
342.097
342.001
341.908
341.818
341.731
341.648
341.567
341.49
341.416
341.345
341.278
341.213
341.152
341.094
341.039
340.987
340.938
340.893
340.85
340.811
340.775
340.742
340.712
340.685
340.661
340.641
340.623
340.609
340.598
340.59
340.585
340.583
396.297
389.302
383.21
378.137
373.992
370.616
367.848
365.554
363.626
361.984
360.567
359.328
358.233
357.254
356.371
355.568
354.832
354.152
353.521
352.931
352.378
351.856
351.362
350.893
350.447
350.019
349.61
349.217
348.839
348.474
348.122
347.781
347.451
347.131
346.82
346.518
346.224
345.939
345.66
345.389
345.124
344.867
344.615
344.369
344.129
343.895
343.667
343.443
343.225
343.013
342.805
342.602
342.404
342.21
342.021
341.837
341.658
341.483
341.312
341.146
340.984
340.826
340.673
340.524
340.379
340.239
340.103
339.971
339.843
339.719
339.599
339.484
339.372
339.265
339.162
339.062
338.967
338.876
338.789
338.707
338.628
338.553
338.482
338.416
338.353
338.294
338.24
338.189
338.143
338.1
338.062
338.027
337.997
337.971
337.948
337.93
337.916
337.906
337.899
337.897
396.942
391.038
385.663
380.955
376.921
373.496
370.589
368.11
365.98
364.133
362.516
361.086
359.81
358.662
357.619
356.666
355.789
354.977
354.22
353.511
352.845
352.216
351.619
351.052
350.511
349.993
349.496
349.019
348.56
348.116
347.688
347.273
346.872
346.482
346.103
345.736
345.378
345.029
344.69
344.359
344.037
343.722
343.415
343.116
342.823
342.537
342.259
341.986
341.72
341.46
341.207
340.959
340.717
340.481
340.25
340.026
339.806
339.593
339.384
339.181
338.984
338.791
338.604
338.422
338.246
338.074
337.908
337.746
337.59
337.439
337.293
337.152
337.016
336.884
336.758
336.637
336.521
336.41
336.304
336.203
336.106
336.015
335.929
335.847
335.771
335.699
335.633
335.571
335.514
335.462
335.415
335.373
335.336
335.304
335.277
335.254
335.237
335.224
335.217
335.214
397.374
392.246
387.448
383.101
379.243
375.858
372.902
370.318
368.052
366.054
364.279
362.692
361.262
359.965
358.78
357.691
356.684
355.748
354.873
354.052
353.278
352.545
351.85
351.188
350.555
349.949
349.367
348.808
348.268
347.748
347.245
346.757
346.285
345.826
345.381
344.948
344.527
344.116
343.716
343.327
342.947
342.576
342.214
341.861
341.516
341.179
340.85
340.529
340.215
339.908
339.609
339.317
339.031
338.752
338.481
338.215
337.957
337.704
337.458
337.219
336.985
336.758
336.538
336.323
336.114
335.912
335.715
335.525
335.34
335.162
334.989
334.823
334.662
334.507
334.358
334.215
334.078
333.947
333.822
333.702
333.588
333.481
333.379
333.282
333.192
333.108
333.029
332.956
332.889
332.828
332.772
332.723
332.679
332.641
332.609
332.582
332.562
332.547
332.538
332.535
397.682
393.123
388.784
384.759
381.092
377.793
374.842
372.21
369.858
367.752
365.856
364.142
362.584
361.159
359.848
358.637
357.512
356.461
355.476
354.549
353.673
352.842
352.052
351.297
350.576
349.885
349.22
348.58
347.963
347.367
346.79
346.231
345.689
345.163
344.652
344.154
343.67
343.199
342.739
342.291
341.854
341.427
341.011
340.604
340.207
339.82
339.441
339.071
338.71
338.357
338.012
337.675
337.346
337.025
336.712
336.407
336.108
335.818
335.534
335.258
334.99
334.728
334.473
334.226
333.986
333.752
333.526
333.306
333.094
332.888
332.689
332.497
332.312
332.134
331.962
331.797
331.639
331.488
331.343
331.206
331.075
330.95
330.833
330.722
330.618
330.52
330.43
330.346
330.268
330.198
330.134
330.077
330.026
329.982
329.945
329.915
329.891
329.874
329.863
329.86
397.91
393.782
389.807
386.057
382.576
379.38
376.467
373.822
371.421
369.241
367.255
365.44
363.775
362.24
360.82
359.5
358.267
357.112
356.025
354.999
354.026
353.102
352.221
351.379
350.573
349.798
349.053
348.336
347.642
346.972
346.324
345.695
345.084
344.491
343.915
343.354
342.808
342.276
341.757
341.251
340.758
340.276
339.806
339.346
338.898
338.459
338.031
337.613
337.204
336.805
336.415
336.035
335.663
335.3
334.946
334.6
334.263
333.934
333.613
333.301
332.997
332.701
332.413
332.133
331.86
331.596
331.34
331.092
330.851
330.618
330.393
330.176
329.966
329.764
329.57
329.383
329.204
329.033
328.87
328.714
328.565
328.425
328.292
328.166
328.048
327.938
327.835
327.74
327.653
327.573
327.5
327.436
327.378
327.329
327.287
327.252
327.225
327.206
327.194
327.19
398.084
394.29
390.606
387.088
383.774
380.685
377.826
375.19
372.766
370.537
368.484
366.59
364.837
363.21
361.695
360.278
358.95
357.699
356.518
355.399
354.336
353.324
352.357
351.431
350.542
349.688
348.866
348.072
347.305
346.563
345.844
345.146
344.469
343.811
343.17
342.547
341.94
341.348
340.771
340.208
339.658
339.122
338.598
338.086
337.587
337.098
336.621
336.155
335.7
335.255
334.82
334.395
333.981
333.576
333.181
332.795
332.419
332.052
331.695
331.346
331.007
330.676
330.355
330.043
329.739
329.444
329.158
328.881
328.612
328.353
328.101
327.859
327.625
327.4
327.183
326.975
326.775
326.584
326.401
326.227
326.062
325.904
325.756
325.616
325.484
325.361
325.246
325.14
325.043
324.953
324.873
324.8
324.736
324.681
324.634
324.596
324.566
324.544
324.531
324.526
398.22
394.689
391.239
387.915
384.749
381.762
378.962
376.35
373.919
371.659
369.558
367.602
365.777
364.072
362.474
360.973
359.558
358.22
356.953
355.749
354.601
353.505
352.457
351.451
350.484
349.553
348.655
347.788
346.95
346.137
345.35
344.585
343.842
343.12
342.417
341.732
341.065
340.414
339.779
339.16
338.555
337.965
337.388
336.825
336.274
335.736
335.211
334.697
334.195
333.705
333.226
332.758
332.301
331.854
331.418
330.993
330.578
330.174
329.779
329.395
329.02
328.656
328.302
327.957
327.622
327.297
326.981
326.675
326.379
326.092
325.815
325.547
325.289
325.04
324.801
324.571
324.351
324.14
323.938
323.746
323.564
323.39
323.226
323.072
322.926
322.79
322.664
322.547
322.439
322.34
322.251
322.172
322.101
322.04
321.988
321.946
321.913
321.889
321.874
321.869
398.329
395.006
391.747
388.584
385.547
382.653
379.913
377.33
374.903
372.625
370.489
368.485
366.602
364.831
363.162
361.585
360.093
358.677
357.33
356.046
354.82
353.646
352.52
351.438
350.396
349.392
348.422
347.484
346.576
345.695
344.841
344.011
343.204
342.418
341.654
340.909
340.182
339.474
338.782
338.107
337.448
336.805
336.176
335.561
334.961
334.374
333.8
333.239
332.691
332.156
331.633
331.121
330.622
330.134
329.658
329.194
328.74
328.298
327.867
327.447
327.038
326.64
326.252
325.876
325.509
325.154
324.809
324.474
324.15
323.837
323.534
323.241
322.959
322.687
322.425
322.174
321.933
321.703
321.482
321.272
321.072
320.883
320.703
320.534
320.375
320.227
320.088
319.96
319.842
319.735
319.637
319.55
319.473
319.406
319.349
319.303
319.267
319.241
319.225
319.219
398.415
395.262
392.158
389.13
386.203
383.392
380.708
378.157
375.739
373.453
371.291
369.249
367.319
365.492
363.761
362.118
360.557
359.069
357.65
356.292
354.992
353.745
352.546
351.392
350.278
349.203
348.164
347.158
346.182
345.236
344.316
343.422
342.553
341.706
340.881
340.077
339.292
338.527
337.78
337.05
336.337
335.641
334.961
334.296
333.645
333.01
332.389
331.781
331.188
330.608
330.041
329.487
328.946
328.417
327.901
327.398
326.906
326.427
325.959
325.504
325.06
324.628
324.208
323.799
323.402
323.016
322.642
322.279
321.928
321.588
321.259
320.942
320.635
320.34
320.056
319.784
319.522
319.272
319.033
318.805
318.588
318.382
318.188
318.004
317.832
317.671
317.52
317.381
317.253
317.137
317.031
316.936
316.852
316.78
316.718
316.668
316.629
316.6
316.583
316.577
398.486
395.47
392.493
389.578
386.743
384.005
381.373
378.853
376.448
374.158
371.978
369.906
367.936
366.062
364.277
362.576
360.952
359.399
357.913
356.488
355.119
353.803
352.535
351.312
350.13
348.988
347.882
346.809
345.769
344.758
343.776
342.82
341.889
340.982
340.098
339.236
338.395
337.574
336.772
335.988
335.223
334.474
333.743
333.028
332.329
331.646
330.977
330.324
329.685
329.061
328.451
327.854
327.272
326.703
326.147
325.605
325.075
324.559
324.056
323.565
323.087
322.621
322.169
321.728
321.3
320.885
320.481
320.091
319.712
319.345
318.991
318.649
318.318
318
317.695
317.401
317.119
316.849
316.591
316.345
316.112
315.89
315.68
315.482
315.296
315.123
314.961
314.811
314.673
314.547
314.433
314.331
314.24
314.162
314.096
314.042
313.999
313.969
313.95
313.944
398.543
395.639
392.767
389.945
387.19
384.514
381.928
379.437
377.046
374.754
372.562
370.466
368.462
366.547
364.715
362.961
361.281
359.669
358.121
356.633
355.201
353.82
352.487
351.198
349.952
348.745
347.575
346.439
345.335
344.263
343.219
342.203
341.213
340.247
339.306
338.387
337.49
336.614
335.758
334.921
334.104
333.304
332.523
331.759
331.011
330.28
329.566
328.867
328.184
327.515
326.862
326.224
325.6
324.991
324.396
323.815
323.249
322.696
322.156
321.631
321.119
320.62
320.135
319.663
319.205
318.759
318.327
317.908
317.502
317.11
316.73
316.363
316.009
315.668
315.34
315.025
314.723
314.434
314.158
313.894
313.644
313.406
313.181
312.969
312.77
312.583
312.41
312.249
312.101
311.966
311.844
311.734
311.638
311.554
311.483
311.425
311.379
311.346
311.327
311.319
398.59
395.778
392.992
390.247
387.558
384.936
382.39
379.925
377.547
375.256
373.053
370.937
368.905
366.953
365.079
363.279
361.548
359.882
358.278
356.731
355.238
353.796
352.402
351.052
349.744
348.475
347.243
346.046
344.882
343.749
342.646
341.571
340.523
339.501
338.503
337.528
336.577
335.647
334.738
333.849
332.981
332.131
331.3
330.487
329.692
328.915
328.154
327.41
326.683
325.972
325.276
324.596
323.932
323.283
322.649
322.03
321.426
320.837
320.262
319.702
319.156
318.625
318.108
317.605
317.116
316.641
316.18
315.733
315.3
314.882
314.477
314.085
313.708
313.344
312.995
312.659
312.336
312.028
311.733
311.452
311.185
310.931
310.691
310.465
310.253
310.054
309.869
309.697
309.539
309.395
309.265
309.148
309.045
308.955
308.879
308.817
308.769
308.734
308.713
308.705
398.628
395.891
393.176
390.496
387.862
385.284
382.772
380.33
377.963
375.674
373.462
371.329
369.271
367.288
365.376
363.533
361.756
360.04
358.384
356.782
355.234
353.734
352.282
350.873
349.506
348.178
346.887
345.631
344.408
343.218
342.057
340.925
339.821
338.742
337.69
336.661
335.656
334.673
333.712
332.773
331.854
330.955
330.075
329.215
328.373
327.549
326.743
325.955
325.184
324.43
323.692
322.972
322.267
321.579
320.906
320.25
319.609
318.983
318.374
317.779
317.2
316.636
316.087
315.553
315.034
314.53
314.04
313.566
313.106
312.662
312.232
311.816
311.415
311.029
310.658
310.301
309.959
309.631
309.318
309.02
308.736
308.466
308.211
307.971
307.745
307.534
307.337
307.155
306.988
306.835
306.696
306.572
306.462
306.367
306.287
306.221
306.169
306.132
306.11
306.102
398.659
395.984
393.327
390.699
388.11
385.57
383.086
380.664
378.306
376.017
373.798
371.649
369.569
367.557
365.611
363.73
361.909
360.148
358.442
356.79
355.188
353.635
352.127
350.663
349.239
347.854
346.507
345.194
343.915
342.668
341.452
340.264
339.105
337.973
336.866
335.785
334.727
333.693
332.681
331.691
330.723
329.775
328.848
327.94
327.052
326.183
325.333
324.5
323.686
322.89
322.111
321.35
320.606
319.878
319.168
318.474
317.796
317.135
316.491
315.862
315.25
314.653
314.073
313.508
312.959
312.426
311.909
311.407
310.921
310.45
309.995
309.556
309.132
308.723
308.33
307.953
307.591
307.244
306.913
306.597
306.297
306.012
305.742
305.488
305.249
305.025
304.817
304.624
304.447
304.285
304.138
304.007
303.891
303.79
303.705
303.635
303.581
303.542
303.518
303.509
398.685
396.059
393.449
390.864
388.313
385.803
383.342
380.935
378.585
376.296
374.069
371.905
369.804
367.766
365.789
363.871
362.011
360.207
358.456
356.756
355.104
353.5
351.94
350.422
348.944
347.505
346.103
344.736
343.403
342.101
340.831
339.59
338.377
337.192
336.033
334.899
333.791
332.706
331.644
330.605
329.589
328.593
327.619
326.665
325.731
324.817
323.923
323.047
322.191
321.353
320.533
319.731
318.948
318.182
317.434
316.703
315.99
315.293
314.614
313.952
313.307
312.678
312.066
311.471
310.893
310.331
309.785
309.257
308.744
308.248
307.768
307.305
306.858
306.428
306.013
305.615
305.233
304.868
304.518
304.185
303.869
303.568
303.284
303.015
302.764
302.528
302.308
302.105
301.918
301.747
301.592
301.454
301.332
301.226
301.136
301.062
301.005
300.963
300.938
300.929
398.705
396.12
393.547
390.997
388.476
385.991
383.548
381.152
378.808
376.517
374.282
372.104
369.984
367.921
365.914
363.963
362.066
360.221
358.427
356.682
354.983
353.33
351.72
350.152
348.623
347.132
345.677
344.257
342.871
341.517
340.194
338.901
337.636
336.4
335.19
334.006
332.847
331.713
330.602
329.515
328.451
327.408
326.388
325.388
324.41
323.452
322.514
321.596
320.697
319.818
318.958
318.117
317.295
316.491
315.705
314.938
314.189
313.457
312.744
312.049
311.371
310.71
310.068
309.443
308.835
308.244
307.671
307.115
306.577
306.056
305.551
305.065
304.595
304.142
303.706
303.288
302.887
302.502
302.135
301.785
301.452
301.136
300.837
300.555
300.29
300.042
299.812
299.598
299.401
299.221
299.059
298.913
298.785
298.673
298.579
298.501
298.441
298.397
298.371
298.361
398.722
396.168
393.626
391.102
388.605
386.139
383.71
381.322
378.98
376.687
374.443
372.251
370.112
368.025
365.991
364.008
362.076
360.193
358.359
356.571
354.828
353.128
351.471
349.854
348.275
346.734
345.229
343.759
342.322
340.917
339.543
338.199
336.884
335.597
334.337
333.104
331.896
330.714
329.555
328.421
327.31
326.221
325.155
324.111
323.088
322.087
321.106
320.146
319.206
318.287
317.387
316.506
315.646
314.804
313.982
313.179
312.394
311.628
310.881
310.153
309.443
308.751
308.078
307.423
306.786
306.167
305.567
304.984
304.42
303.873
303.345
302.835
302.342
301.868
301.411
300.972
300.552
300.149
299.764
299.397
299.048
298.716
298.403
298.107
297.829
297.57
297.328
297.103
296.897
296.709
296.538
296.386
296.251
296.134
296.035
295.953
295.89
295.845
295.817
295.807
398.734
396.205
393.686
391.184
388.704
386.252
383.833
381.451
379.109
376.811
374.558
372.353
370.195
368.085
366.024
364.011
362.046
360.127
358.254
356.425
354.639
352.896
351.193
349.529
347.903
346.314
344.76
343.241
341.755
340.3
338.877
337.484
336.12
334.784
333.476
332.194
330.939
329.709
328.504
327.323
326.166
325.032
323.921
322.833
321.767
320.723
319.7
318.699
317.718
316.758
315.819
314.901
314.002
313.123
312.265
311.426
310.606
309.806
309.026
308.265
307.523
306.8
306.096
305.412
304.746
304.1
303.472
302.863
302.273
301.702
301.149
300.616
300.101
299.605
299.127
298.669
298.229
297.807
297.405
297.021
296.656
296.309
295.981
295.672
295.382
295.11
294.857
294.623
294.407
294.21
294.031
293.872
293.731
293.608
293.505
293.42
293.353
293.306
293.277
293.267
398.744
396.233
393.732
391.245
388.779
386.336
383.923
381.544
379.2
376.896
374.632
372.412
370.236
368.104
366.017
363.975
361.978
360.025
358.114
356.247
354.42
352.635
350.888
349.179
347.508
345.872
344.272
342.705
341.171
339.669
338.198
336.757
335.345
333.961
332.606
331.277
329.975
328.699
327.447
326.221
325.019
323.841
322.687
321.555
320.446
319.36
318.296
317.254
316.233
315.234
314.256
313.299
312.364
311.448
310.554
309.679
308.826
307.992
307.178
306.385
305.612
304.858
304.125
303.411
302.717
302.042
301.388
300.753
300.137
299.542
298.965
298.409
297.872
297.354
296.856
296.378
295.918
295.479
295.059
294.658
294.277
293.916
293.574
293.251
292.948
292.664
292.4
292.156
291.931
291.725
291.539
291.372
291.225
291.097
290.989
290.9
290.831
290.782
290.751
290.741
398.751
396.254
393.765
391.289
388.831
386.395
383.984
381.604
379.257
376.944
374.67
372.434
370.239
368.086
365.974
363.904
361.876
359.889
357.944
356.038
354.173
352.346
350.558
348.806
347.091
345.41
343.764
342.152
340.572
339.023
337.505
336.018
334.559
333.129
331.728
330.353
329.005
327.683
326.388
325.117
323.871
322.649
321.452
320.278
319.127
317.999
316.894
315.812
314.752
313.714
312.698
311.704
310.731
309.779
308.849
307.94
307.053
306.186
305.34
304.514
303.71
302.926
302.163
301.42
300.698
299.996
299.315
298.654
298.013
297.393
296.793
296.214
295.655
295.116
294.598
294.099
293.622
293.164
292.727
292.31
291.913
291.536
291.18
290.844
290.529
290.233
289.958
289.704
289.469
289.255
289.061
288.888
288.734
288.601
288.489
288.396
288.324
288.273
288.241
288.23
398.755
396.267
393.786
391.317
388.864
386.43
384.02
381.636
379.283
376.961
374.674
372.423
370.21
368.034
365.897
363.8
361.742
359.723
357.743
355.802
353.899
352.033
350.204
348.411
346.653
344.929
343.239
341.582
339.957
338.364
336.801
335.268
333.764
332.289
330.842
329.422
328.03
326.664
325.324
324.01
322.721
321.456
320.216
319.001
317.809
316.641
315.496
314.374
313.275
312.199
311.145
310.114
309.104
308.117
307.152
306.209
305.288
304.388
303.509
302.653
301.817
301.003
300.211
299.44
298.69
297.961
297.253
296.567
295.901
295.257
294.634
294.032
293.451
292.891
292.353
291.835
291.338
290.863
290.409
289.975
289.563
289.172
288.801
288.452
288.124
287.817
287.531
287.267
287.023
286.8
286.599
286.419
286.259
286.121
286.004
285.908
285.833
285.78
285.747
285.735
398.758
396.274
393.798
391.332
388.88
386.445
384.032
381.644
379.282
376.95
374.65
372.382
370.149
367.952
365.791
363.667
361.579
359.529
357.516
355.54
353.6
351.697
349.828
347.995
346.196
344.43
342.698
340.997
339.329
337.692
336.085
334.507
332.96
331.44
329.949
328.486
327.05
325.641
324.258
322.901
321.569
320.263
318.981
317.725
316.492
315.284
314.1
312.939
311.802
310.688
309.597
308.53
307.485
306.462
305.463
304.486
303.531
302.599
301.689
300.801
299.935
299.092
298.27
297.471
296.693
295.937
295.204
294.492
293.802
293.134
292.488
291.864
291.261
290.681
290.122
289.585
289.07
288.577
288.105
287.656
287.228
286.822
286.438
286.076
285.736
285.417
285.121
284.846
284.593
284.362
284.153
283.966
283.801
283.657
283.536
283.436
283.359
283.303
283.269
283.257
398.758
396.277
393.801
391.334
388.881
386.443
384.025
381.629
379.258
376.914
374.599
372.314
370.062
367.842
365.657
363.506
361.391
359.31
357.264
355.254
353.279
351.338
349.432
347.56
345.72
343.914
342.14
340.398
338.688
337.008
335.358
333.738
332.147
330.585
329.051
327.544
326.066
324.614
323.189
321.79
320.417
319.069
317.747
316.45
315.178
313.931
312.708
311.509
310.334
309.183
308.056
306.952
305.872
304.815
303.781
302.771
301.784
300.819
299.878
298.959
298.064
297.191
296.341
295.513
294.708
293.926
293.167
292.43
291.716
291.024
290.355
289.709
289.085
288.484
287.906
287.35
286.816
286.305
285.817
285.352
284.909
284.488
284.091
283.716
283.363
283.033
282.726
282.442
282.18
281.941
281.724
281.53
281.359
281.211
281.085
280.982
280.901
280.843
280.808
280.796
398.758
396.274
393.796
391.326
388.868
386.425
384
381.595
379.212
376.855
374.524
372.222
369.95
367.708
365.499
363.322
361.178
359.067
356.99
354.947
352.937
350.96
349.017
347.107
345.229
343.383
341.569
339.786
338.034
336.313
334.621
332.959
331.326
329.722
328.146
326.598
325.078
323.584
322.118
320.678
319.264
317.877
316.515
315.178
313.867
312.581
311.32
310.083
308.871
307.684
306.521
305.382
304.267
303.176
302.109
301.065
300.046
299.05
298.077
297.128
296.203
295.301
294.423
293.568
292.736
291.928
291.143
290.382
289.644
288.929
288.237
287.569
286.924
286.303
285.705
285.13
284.578
284.05
283.545
283.064
282.606
282.171
281.76
281.372
281.007
280.666
280.349
280.055
279.784
279.536
279.312
279.112
278.935
278.781
278.651
278.544
278.461
278.402
278.365
278.352
398.756
396.267
393.785
391.309
388.845
386.394
383.959
381.543
379.148
376.776
374.429
372.108
369.815
367.552
365.318
363.115
360.943
358.803
356.695
354.619
352.575
350.564
348.585
346.637
344.722
342.837
340.984
339.162
337.37
335.608
333.876
332.173
330.499
328.854
327.237
325.648
324.086
322.552
321.045
319.565
318.112
316.685
315.284
313.908
312.559
311.235
309.936
308.663
307.415
306.191
304.993
303.819
302.67
301.545
300.445
299.369
298.317
297.29
296.287
295.309
294.354
293.424
292.517
291.635
290.777
289.943
289.133
288.347
287.585
286.848
286.134
285.444
284.778
284.137
283.519
282.926
282.356
281.811
281.29
280.793
280.32
279.871
279.446
279.046
278.669
278.317
277.989
277.685
277.406
277.15
276.919
276.712
276.529
276.37
276.236
276.126
276.04
275.978
275.941
275.927
398.752
396.257
393.767
391.284
388.811
386.35
383.904
381.476
379.067
376.679
374.315
371.975
369.661
367.375
365.117
362.888
360.688
358.519
356.381
354.273
352.196
350.151
348.136
346.153
344.201
342.279
340.387
338.526
336.695
334.894
333.122
331.379
329.665
327.98
326.323
324.694
323.093
321.519
319.972
318.453
316.96
315.494
314.055
312.642
311.254
309.893
308.558
307.248
305.964
304.705
303.472
302.264
301.081
299.923
298.79
297.682
296.6
295.542
294.509
293.501
292.517
291.559
290.625
289.716
288.832
287.972
287.137
286.327
285.542
284.781
284.046
283.335
282.648
281.987
281.35
280.738
280.151
279.589
279.052
278.539
278.051
277.588
277.15
276.737
276.349
275.986
275.648
275.334
275.046
274.782
274.544
274.33
274.142
273.978
273.84
273.726
273.637
273.574
273.535
273.521
398.748
396.244
393.744
391.252
388.768
386.295
383.837
381.395
378.97
376.566
374.184
371.824
369.489
367.18
364.897
362.642
360.416
358.218
356.049
353.91
351.801
349.723
347.674
345.655
343.667
341.708
339.78
337.881
336.012
334.172
332.361
330.579
328.826
327.102
325.405
323.737
322.097
320.484
318.899
317.341
315.81
314.306
312.829
311.378
309.954
308.556
307.185
305.839
304.52
303.226
301.959
300.717
299.501
298.311
297.146
296.007
294.893
293.805
292.742
291.705
290.693
289.707
288.746
287.81
286.9
286.015
285.156
284.322
283.514
282.731
281.973
281.241
280.535
279.854
279.198
278.568
277.963
277.384
276.831
276.303
275.801
275.324
274.873
274.448
274.048
273.674
273.325
273.002
272.705
272.434
272.188
271.968
271.774
271.605
271.463
271.346
271.254
271.189
271.149
271.135
398.742
396.228
393.717
391.213
388.717
386.231
383.759
381.301
378.861
376.439
374.037
371.658
369.301
366.969
364.662
362.381
360.127
357.901
355.703
353.533
351.392
349.28
347.198
345.145
343.121
341.127
339.162
337.226
335.32
333.442
331.594
329.774
327.983
326.22
324.485
322.779
321.1
319.449
317.826
316.23
314.662
313.12
311.606
310.119
308.658
307.225
305.818
304.437
303.083
301.755
300.454
299.179
297.931
296.708
295.512
294.341
293.197
292.079
290.987
289.922
288.882
287.868
286.88
285.919
284.983
284.074
283.19
282.333
281.502
280.697
279.918
279.165
278.438
277.738
277.063
276.415
275.793
275.198
274.629
274.086
273.569
273.078
272.614
272.177
271.765
271.381
271.022
270.69
270.384
270.105
269.852
269.626
269.426
269.253
269.106
268.985
268.891
268.824
268.783
268.768
398.736
396.209
393.686
391.168
388.658
386.159
383.671
381.197
378.739
376.299
373.878
371.477
369.099
366.743
364.411
362.105
359.824
357.569
355.342
353.142
350.97
348.826
346.711
344.624
342.566
340.536
338.536
336.564
334.621
332.707
330.821
328.964
327.135
325.335
323.563
321.819
320.102
318.414
316.754
315.121
313.516
311.938
310.387
308.864
307.368
305.899
304.457
303.042
301.654
300.293
298.958
297.651
296.37
295.116
293.888
292.688
291.514
290.366
289.246
288.151
287.084
286.043
285.029
284.042
283.081
282.147
281.24
280.359
279.506
278.679
277.879
277.105
276.359
275.639
274.946
274.281
273.642
273.03
272.445
271.887
271.356
270.852
270.375
269.926
269.503
269.107
268.739
268.398
268.084
267.797
267.537
267.304
267.099
266.921
266.77
266.646
266.549
266.48
266.438
266.423
398.729
396.188
393.651
391.119
388.594
386.078
383.574
381.083
378.607
376.148
373.707
371.285
368.883
366.504
364.148
361.815
359.507
357.225
354.969
352.739
350.536
348.36
346.213
344.093
342.001
339.937
337.901
335.894
333.916
331.965
330.043
328.15
326.285
324.448
322.639
320.858
319.105
317.38
315.683
314.014
312.373
310.759
309.173
307.614
306.083
304.58
303.103
301.655
300.233
298.839
297.472
296.132
294.82
293.535
292.277
291.046
289.842
288.666
287.517
286.395
285.3
284.233
283.193
282.18
281.195
280.237
279.306
278.403
277.527
276.678
275.857
275.064
274.298
273.559
272.848
272.165
271.509
270.881
270.281
269.708
269.163
268.646
268.156
267.695
267.261
266.855
266.477
266.126
265.804
265.509
265.242
265.004
264.793
264.61
264.455
264.328
264.229
264.158
264.114
264.099
398.722
396.165
393.613
391.065
388.524
385.992
383.47
380.961
378.466
375.987
373.525
371.081
368.657
366.254
363.873
361.514
359.18
356.869
354.584
352.325
350.092
347.885
345.705
343.553
341.428
339.33
337.261
335.219
333.205
331.22
329.262
327.333
325.432
323.559
321.714
319.897
318.108
316.348
314.615
312.91
311.233
309.585
307.964
306.37
304.805
303.267
301.757
300.275
298.821
297.394
295.995
294.624
293.281
291.965
290.677
289.416
288.184
286.979
285.802
284.653
283.531
282.438
281.372
280.334
279.325
278.343
277.389
276.463
275.565
274.695
273.854
273.04
272.255
271.498
270.769
270.068
269.396
268.752
268.136
267.549
266.99
266.46
265.958
265.485
265.04
264.623
264.235
263.876
263.545
263.243
262.97
262.725
262.509
262.321
262.162
262.032
261.93
261.857
261.813
261.797
398.714
396.141
393.572
391.007
388.449
385.899
383.359
380.831
378.316
375.817
373.333
370.867
368.42
365.993
363.587
361.203
358.841
356.504
354.19
351.901
349.638
347.401
345.19
343.005
340.847
338.717
336.614
334.538
332.49
330.47
328.478
326.514
324.577
322.669
320.789
318.937
317.113
315.317
313.549
311.81
310.098
308.415
306.76
305.132
303.533
301.962
300.419
298.905
297.418
295.959
294.529
293.127
291.753
290.407
289.089
287.8
286.539
285.306
284.101
282.925
281.777
280.658
279.567
278.505
277.471
276.466
275.489
274.541
273.621
272.731
271.869
271.036
270.231
269.456
268.709
267.992
267.303
266.643
266.013
265.411
264.839
264.295
263.781
263.296
262.84
262.413
262.016
261.648
261.309
260.999
260.719
260.468
260.247
260.054
259.891
259.758
259.654
259.579
259.534
259.517
398.705
396.115
393.528
390.946
388.369
385.801
383.242
380.695
378.16
375.639
373.134
370.645
368.175
365.723
363.292
360.882
358.494
356.129
353.787
351.47
349.177
346.909
344.667
342.451
340.261
338.098
335.962
333.853
331.772
329.718
327.692
325.693
323.722
321.78
319.865
317.978
316.12
314.29
312.487
310.714
308.968
307.251
305.562
303.901
302.269
300.665
299.09
297.543
296.025
294.535
293.074
291.641
290.237
288.861
287.515
286.197
284.907
283.647
282.415
281.213
280.039
278.894
277.779
276.692
275.634
274.606
273.607
272.637
271.696
270.785
269.903
269.05
268.227
267.434
266.67
265.935
265.23
264.555
263.91
263.294
262.708
262.152
261.626
261.129
260.662
260.226
259.819
259.442
259.095
258.778
258.491
258.234
258.007
257.811
257.644
257.507
257.401
257.324
257.278
257.261
398.696
396.088
393.482
390.881
388.286
385.698
383.12
380.552
377.996
375.454
372.927
370.415
367.921
365.446
362.989