/*--------------------------------*- C++ -*----------------------------------*\
| =========                 |                                                 |
| \\      /  F ield         | OpenFOAM: The Open Source CFD Toolbox           |
|  \\    /   O peration     | Version:  2406                                  |
|   \\  /    A nd           | Website:  www.openfoam.com                      |
|    \\/     M anipulation  |                                                 |
\*---------------------------------------------------------------------------*/
FoamFile
{
    version     2.0;
    format      ascii;
    arch        "LSB;label=32;scalar=64";
    class       volScalarField;
    location    "12";
    object      p;
}
// * * * * * * * * * * * * * * * * * * * * * * * * * * * * * * * * * * * * * //

dimensions      [0 2 -2 0 0 0 0];

internalField   nonuniform List<scalar> 
34560
(
-42.615396
-42.60524
-42.592946
-42.579981
-42.567245
-42.557318
-42.552386
-42.552128
-42.554656
-42.683563
-42.671669
-42.656791
-42.640263
-42.623115
-42.608486
-42.598854
-42.594338
-42.593371
-42.744291
-42.731089
-42.714513
-42.695875
-42.676023
-42.65812
-42.64465
-42.635908
-42.630066
-42.802329
-42.787929
-42.769747
-42.749097
-42.726747
-42.705831
-42.688655
-42.675209
-42.66426
-42.856731
-42.8413
-42.82173
-42.799312
-42.774709
-42.75095
-42.730236
-42.711834
-42.695891
-42.905229
-42.889177
-42.868705
-42.845017
-42.818617
-42.792409
-42.768537
-42.745398
-42.724807
-42.948408
-42.931798
-42.910533
-42.88573
-42.857758
-42.829361
-42.80233
-42.775321
-42.750575
-42.985329
-42.9683
-42.946414
-42.920711
-42.891442
-42.861192
-42.831308
-42.80104
-42.772735
-43.015499
-42.998176
-42.975827
-42.949428
-42.919112
-42.887371
-42.855033
-42.821975
-42.790888
-43.038361
-43.020873
-42.998227
-42.971336
-42.940245
-42.907412
-42.87314
-42.837859
-42.804722
-43.053771
-43.036153
-43.013298
-42.98608
-42.954482
-42.920953
-42.885354
-42.848559
-42.814031
-43.061603
-43.043919
-43.020949
-42.99354
-42.961655
-42.92776
-42.891461
-42.853888
-42.818639
-43.061602
-43.043919
-43.020949
-42.99354
-42.961656
-42.927761
-42.891462
-42.853889
-42.81864
-43.05377
-43.036152
-43.013298
-42.98608
-42.954482
-42.920954
-42.885355
-42.848561
-42.814033
-43.038363
-43.020875
-42.998228
-42.971337
-42.940246
-42.907413
-42.873141
-42.837861
-42.804724
-43.015502
-42.998179
-42.97583
-42.949429
-42.919113
-42.887372
-42.855034
-42.821976
-42.79089
-42.985332
-42.968303
-42.946416
-42.920712
-42.891443
-42.861193
-42.831308
-42.801041
-42.772737
-42.94841
-42.9318
-42.910535
-42.885731
-42.857759
-42.829361
-42.80233
-42.775321
-42.750576
-42.90523
-42.889179
-42.868706
-42.845018
-42.818617
-42.792409
-42.768537
-42.745398
-42.724808
-42.856731
-42.8413
-42.82173
-42.799313
-42.77471
-42.750951
-42.730237
-42.711834
-42.695892
-42.802329
-42.787929
-42.769748
-42.749099
-42.72675
-42.705833
-42.688658
-42.67521
-42.664261
-42.744291
-42.731089
-42.714514
-42.695877
-42.676026
-42.658123
-42.644652
-42.63591
-42.630068
-42.683563
-42.671669
-42.656792
-42.640265
-42.623118
-42.608489
-42.598858
-42.594341
-42.593373
-42.615398
-42.605241
-42.592948
-42.579984
-42.567249
-42.557323
-42.552391
-42.552133
-42.554659
-39.736918
-39.736318
-39.735593
-39.734913
-39.734128
-39.732879
-39.730588
-39.726704
-39.721657
-39.742013
-39.741362
-39.740506
-39.73954
-39.738204
-39.735969
-39.732252
-39.726784
-39.720674
-39.746514
-39.745825
-39.744899
-39.743797
-39.742127
-39.739145
-39.734163
-39.727156
-39.720448
-39.750976
-39.750265
-39.749257
-39.747964
-39.745886
-39.742121
-39.735873
-39.727567
-39.720444
-39.755148
-39.754428
-39.753349
-39.751859
-39.749357
-39.744788
-39.73719
-39.728054
-39.720355
-39.758743
-39.758059
-39.756963
-39.755339
-39.752489
-39.747094
-39.738084
-39.728596
-39.720152
-39.7619
-39.761241
-39.760126
-39.758395
-39.755187
-39.748978
-39.738894
-39.729046
-39.719839
-39.764491
-39.763859
-39.762737
-39.760908
-39.75734
-39.750361
-39.739396
-39.729258
-39.719477
-39.766479
-39.765879
-39.764763
-39.762868
-39.758991
-39.75133
-39.739914
-39.729496
-39.719152
-39.767916
-39.767346
-39.766237
-39.764276
-39.760147
-39.751932
-39.740277
-39.729719
-39.718898
-39.768825
-39.768274
-39.76717
-39.765168
-39.760869
-39.752248
-39.740488
-39.729853
-39.718731
-39.769313
-39.76877
-39.767666
-39.765644
-39.761255
-39.752414
-39.740638
-39.729939
-39.718669
-39.769313
-39.76877
-39.767666
-39.765644
-39.761255
-39.752414
-39.740638
-39.729939
-39.718669
-39.768825
-39.768274
-39.76717
-39.765168
-39.760869
-39.752248
-39.740488
-39.729853
-39.718731
-39.767917
-39.767347
-39.766237
-39.764276
-39.760147
-39.751933
-39.740277
-39.729719
-39.718898
-39.76648
-39.76588
-39.764763
-39.762868
-39.758991
-39.75133
-39.739914
-39.729497
-39.719152
-39.764492
-39.76386
-39.762738
-39.760909
-39.75734
-39.750362
-39.739396
-39.729258
-39.719477
-39.761901
-39.761242
-39.760127
-39.758395
-39.755187
-39.748978
-39.738894
-39.729047
-39.719839
-39.758744
-39.75806
-39.756963
-39.75534
-39.75249
-39.747094
-39.738084
-39.728596
-39.720152
-39.755148
-39.754428
-39.753349
-39.751859
-39.749357
-39.744789
-39.737191
-39.728054
-39.720356
-39.750976
-39.750265
-39.749258
-39.747965
-39.745887
-39.742122
-39.735873
-39.727568
-39.720445
-39.746514
-39.745825
-39.7449
-39.743798
-39.742128
-39.739146
-39.734163
-39.727156
-39.720449
-39.742013
-39.741363
-39.740507
-39.739541
-39.738205
-39.73597
-39.732253
-39.726785
-39.720675
-39.736918
-39.736318
-39.735593
-39.734913
-39.734128
-39.73288
-39.730589
-39.726706
-39.721658
-38.510709
-38.510559
-38.510349
-38.510043
-38.509841
-38.510109
-38.511175
-38.513122
-38.515122
-38.517333
-38.51712
-38.516765
-38.516183
-38.515602
-38.515457
-38.516094
-38.517523
-38.519092
-38.523298
-38.523055
-38.522636
-38.521928
-38.521165
-38.520799
-38.521168
-38.522274
-38.523359
-38.528781
-38.52851
-38.528037
-38.527228
-38.52633
-38.525776
-38.525893
-38.52671
-38.526668
-38.533755
-38.533464
-38.532948
-38.532054
-38.531008
-38.530237
-38.530096
-38.530501
-38.529491
-38.538132
-38.537835
-38.537295
-38.536322
-38.535111
-38.534155
-38.533793
-38.533516
-38.531877
-38.54193
-38.541636
-38.541075
-38.540012
-38.538666
-38.537576
-38.537063
-38.535696
-38.533834
-38.545131
-38.544848
-38.544277
-38.543149
-38.541717
-38.540511
-38.539926
-38.537595
-38.535438
-38.547706
-38.547434
-38.546856
-38.545691
-38.544193
-38.542863
-38.542044
-38.539113
-38.536689
-38.549626
-38.549364
-38.548787
-38.547602
-38.546052
-38.54462
-38.543576
-38.540227
-38.537595
-38.550913
-38.550658
-38.55008
-38.548878
-38.547288
-38.54578
-38.544563
-38.540944
-38.538175
-38.551549
-38.551298
-38.550721
-38.549515
-38.547904
-38.546347
-38.545019
-38.541288
-38.538452
-38.551549
-38.551298
-38.550721
-38.549515
-38.547903
-38.546346
-38.545019
-38.541288
-38.538452
-38.550913
-38.550658
-38.55008
-38.548878
-38.547287
-38.545779
-38.544562
-38.540944
-38.538175
-38.549625
-38.549364
-38.548786
-38.547602
-38.546052
-38.54462
-38.543575
-38.540226
-38.537595
-38.547706
-38.547433
-38.546855
-38.545691
-38.544193
-38.542863
-38.542044
-38.539113
-38.536689
-38.545131
-38.544848
-38.544276
-38.543149
-38.541717
-38.540511
-38.539926
-38.537595
-38.535438
-38.54193
-38.541635
-38.541075
-38.540012
-38.538666
-38.537576
-38.537063
-38.535697
-38.533834
-38.538132
-38.537835
-38.537295
-38.536322
-38.535111
-38.534155
-38.533793
-38.533516
-38.531877
-38.533756
-38.533465
-38.532948
-38.532054
-38.531008
-38.530237
-38.530096
-38.530501
-38.529492
-38.528781
-38.52851
-38.528037
-38.527228
-38.526329
-38.525775
-38.525893
-38.52671
-38.526669
-38.523297
-38.523055
-38.522636
-38.521927
-38.521164
-38.520798
-38.521167
-38.522274
-38.52336
-38.517333
-38.51712
-38.516764
-38.516183
-38.515601
-38.515456
-38.516093
-38.517524
-38.519094
-38.510708
-38.510558
-38.510348
-38.510042
-38.50984
-38.510108
-38.511174
-38.513123
-38.515123
-36.481692
-36.481581
-36.481488
-36.481491
-36.481581
-36.481665
-36.48159
-36.481189
-36.480252
-36.483688
-36.483538
-36.483377
-36.483267
-36.483167
-36.482959
-36.482463
-36.481547
-36.480277
-36.485891
-36.485698
-36.485487
-36.48532
-36.48514
-36.484803
-36.4841
-36.482935
-36.481516
-36.488102
-36.487864
-36.4876
-36.487379
-36.487143
-36.486726
-36.485885
-36.484517
-36.482917
-36.490225
-36.48995
-36.48964
-36.48937
-36.489082
-36.488588
-36.487608
-36.486008
-36.484247
-36.492175
-36.491878
-36.49154
-36.491237
-36.490902
-36.490345
-36.489257
-36.487438
-36.485529
-36.493898
-36.493583
-36.493222
-36.492895
-36.492536
-36.491945
-36.490804
-36.488986
-36.486744
-36.495364
-36.495036
-36.49466
-36.49432
-36.493949
-36.493339
-36.492157
-36.490304
-36.487813
-36.496552
-36.496217
-36.495831
-36.495484
-36.495112
-36.494491
-36.493275
-36.491382
-36.488705
-36.49745
-36.497111
-36.496721
-36.496372
-36.496001
-36.495377
-36.494133
-36.492213
-36.489396
-36.498053
-36.497711
-36.497319
-36.49697
-36.496602
-36.495975
-36.494705
-36.492776
-36.489868
-36.498356
-36.498013
-36.49762
-36.497271
-36.496904
-36.496276
-36.494988
-36.493061
-36.490109
-36.498356
-36.498013
-36.49762
-36.497271
-36.496904
-36.496276
-36.494988
-36.493061
-36.490109
-36.498053
-36.497711
-36.497319
-36.49697
-36.496602
-36.495975
-36.494705
-36.492776
-36.489868
-36.49745
-36.497111
-36.496721
-36.496372
-36.496001
-36.495376
-36.494133
-36.492213
-36.489396
-36.496551
-36.496216
-36.495831
-36.495484
-36.495111
-36.494491
-36.493275
-36.491382
-36.488705
-36.495363
-36.495036
-36.49466
-36.494319
-36.493949
-36.493339
-36.492157
-36.490304
-36.487813
-36.493898
-36.493582
-36.493221
-36.492894
-36.492535
-36.491944
-36.490804
-36.488986
-36.486744
-36.492174
-36.491877
-36.491539
-36.491237
-36.490901
-36.490345
-36.489257
-36.487438
-36.485529
-36.490224
-36.489949
-36.489639
-36.48937
-36.489081
-36.488587
-36.487607
-36.486007
-36.484247
-36.488101
-36.487864
-36.487599
-36.487379
-36.487142
-36.486725
-36.485884
-36.484517
-36.482917
-36.48589
-36.485697
-36.485486
-36.485319
-36.485139
-36.484802
-36.484099
-36.482934
-36.481517
-36.483687
-36.483537
-36.483376
-36.483265
-36.483166
-36.482958
-36.482462
-36.481547
-36.480278
-36.481691
-36.48158
-36.481487
-36.48149
-36.48158
-36.481664
-36.481589
-36.481189
-36.480253
-34.767146
-34.767219
-34.767309
-34.767407
-34.767533
-34.767718
-34.767984
-34.768315
-34.768414
-34.768037
-34.768099
-34.768159
-34.768194
-34.768218
-34.768258
-34.768321
-34.768367
-34.768257
-34.768975
-34.769024
-34.769062
-34.76906
-34.76903
-34.769
-34.768975
-34.768922
-34.768799
-34.769788
-34.769823
-34.769842
-34.769813
-34.769751
-34.769685
-34.769611
-34.769487
-34.769291
-34.770478
-34.770504
-34.770507
-34.770452
-34.770355
-34.770252
-34.770129
-34.769924
-34.769632
-34.771068
-34.771086
-34.771074
-34.771
-34.770881
-34.77074
-34.770555
-34.770265
-34.769873
-34.771559
-34.77157
-34.771548
-34.771458
-34.771313
-34.771136
-34.770894
-34.770519
-34.770038
-34.771959
-34.771964
-34.771933
-34.771826
-34.771658
-34.77145
-34.771156
-34.770699
-34.770144
-34.772269
-34.772269
-34.772229
-34.77211
-34.771927
-34.771693
-34.771352
-34.770825
-34.770208
-34.772502
-34.772499
-34.772453
-34.772324
-34.772127
-34.77187
-34.771491
-34.770908
-34.770243
-34.772661
-34.772654
-34.772603
-34.772467
-34.772259
-34.771986
-34.771579
-34.770957
-34.770259
-34.772734
-34.772727
-34.772675
-34.772536
-34.772323
-34.772041
-34.771619
-34.770978
-34.770264
-34.772734
-34.772727
-34.772675
-34.772535
-34.772323
-34.772041
-34.771619
-34.770978
-34.770264
-34.77266
-34.772654
-34.772603
-34.772467
-34.772259
-34.771986
-34.771578
-34.770957
-34.770259
-34.772502
-34.772498
-34.772452
-34.772323
-34.772126
-34.77187
-34.77149
-34.770907
-34.770243
-34.772268
-34.772269
-34.772229
-34.772109
-34.771926
-34.771692
-34.771351
-34.770824
-34.770207
-34.771958
-34.771963
-34.771932
-34.771825
-34.771657
-34.771449
-34.771155
-34.770698
-34.770143
-34.771558
-34.771569
-34.771547
-34.771457
-34.771312
-34.771135
-34.770892
-34.770518
-34.770037
-34.771067
-34.771084
-34.771073
-34.770999
-34.77088
-34.770739
-34.770553
-34.770264
-34.769872
-34.770477
-34.770502
-34.770505
-34.770451
-34.770353
-34.77025
-34.770127
-34.769923
-34.769631
-34.769787
-34.769822
-34.769841
-34.769812
-34.769749
-34.769683
-34.769609
-34.769486
-34.76929
-34.768973
-34.769022
-34.769061
-34.769059
-34.769029
-34.768998
-34.768973
-34.76892
-34.768798
-34.768036
-34.768097
-34.768158
-34.768192
-34.768217
-34.768256
-34.76832
-34.768365
-34.768255
-34.767145
-34.767217
-34.767308
-34.767406
-34.767532
-34.767717
-34.767983
-34.768314
-34.768413
-32.959128
-32.959162
-32.959219
-32.959309
-32.959432
-32.959575
-32.959722
-32.959854
-32.959838
-32.959793
-32.959822
-32.959863
-32.959921
-32.959988
-32.960043
-32.960057
-32.960004
-32.959856
-32.960573
-32.960593
-32.960623
-32.960664
-32.960703
-32.960715
-32.960668
-32.960553
-32.960402
-32.961324
-32.961335
-32.961353
-32.961381
-32.961403
-32.961395
-32.961321
-32.961169
-32.960985
-32.962035
-32.962035
-32.96204
-32.962052
-32.962057
-32.962028
-32.961926
-32.961738
-32.961512
-32.962693
-32.962685
-32.962678
-32.962675
-32.962665
-32.962617
-32.962487
-32.96226
-32.961991
-32.963279
-32.963264
-32.963249
-32.963236
-32.963212
-32.963147
-32.96299
-32.962728
-32.962415
-32.963789
-32.96377
-32.963748
-32.963727
-32.963692
-32.963607
-32.963425
-32.963133
-32.962779
-32.964208
-32.964185
-32.96416
-32.964133
-32.964085
-32.963984
-32.963783
-32.963465
-32.963076
-32.964524
-32.964499
-32.964471
-32.964438
-32.964383
-32.964271
-32.964057
-32.963722
-32.963303
-32.964735
-32.964709
-32.964679
-32.964643
-32.964583
-32.964465
-32.964242
-32.963899
-32.963456
-32.964839
-32.964813
-32.964782
-32.964744
-32.964681
-32.964561
-32.964334
-32.963982
-32.963532
-32.964839
-32.964813
-32.964782
-32.964744
-32.964681
-32.964561
-32.964334
-32.963982
-32.963531
-32.964735
-32.964709
-32.964679
-32.964642
-32.964582
-32.964464
-32.964242
-32.963898
-32.963455
-32.964523
-32.964499
-32.96447
-32.964437
-32.964382
-32.964271
-32.964056
-32.963721
-32.963302
-32.964207
-32.964184
-32.964159
-32.964131
-32.964084
-32.963983
-32.963782
-32.963464
-32.963075
-32.963788
-32.963768
-32.963747
-32.963726
-32.96369
-32.963605
-32.963424
-32.963131
-32.962778
-32.963277
-32.963262
-32.963247
-32.963234
-32.96321
-32.963145
-32.962988
-32.962726
-32.962414
-32.962691
-32.962683
-32.962676
-32.962673
-32.962663
-32.962615
-32.962485
-32.962258
-32.961989
-32.962033
-32.962033
-32.962038
-32.962049
-32.962055
-32.962026
-32.961924
-32.961735
-32.961509
-32.961322
-32.961333
-32.961351
-32.961378
-32.961401
-32.961393
-32.961318
-32.961167
-32.960982
-32.96057
-32.960591
-32.960621
-32.960662
-32.960701
-32.960713
-32.960666
-32.96055
-32.960398
-32.959791
-32.959819
-32.95986
-32.959919
-32.959986
-32.960041
-32.960054
-32.960001
-32.959852
-32.959125
-32.95916
-32.959217
-32.959306
-32.959429
-32.959572
-32.959719
-32.959851
-32.959834
-31.174227
-31.174252
-31.174286
-31.174329
-31.17438
-31.174435
-31.17449
-31.174538
-31.174505
-31.174546
-31.174567
-31.174592
-31.174614
-31.174629
-31.174628
-31.1746
-31.174537
-31.174425
-31.174909
-31.174926
-31.174944
-31.174954
-31.174951
-31.174924
-31.174861
-31.174767
-31.174667
-31.175247
-31.175259
-31.175269
-31.175272
-31.17526
-31.17522
-31.175143
-31.175037
-31.17493
-31.175558
-31.175565
-31.17557
-31.175564
-31.17554
-31.175486
-31.175396
-31.175275
-31.175152
-31.175837
-31.175841
-31.17584
-31.175827
-31.175792
-31.175727
-31.175624
-31.175487
-31.175346
-31.176073
-31.176074
-31.176068
-31.17605
-31.176008
-31.175935
-31.175822
-31.175671
-31.175513
-31.176273
-31.176271
-31.176261
-31.176237
-31.176189
-31.17611
-31.175989
-31.175826
-31.175651
-31.176432
-31.176428
-31.176415
-31.176386
-31.176335
-31.176251
-31.176123
-31.17595
-31.17576
-31.176554
-31.176547
-31.176531
-31.176499
-31.176445
-31.176358
-31.176225
-31.176041
-31.175841
-31.176636
-31.176628
-31.17661
-31.176576
-31.17652
-31.17643
-31.176292
-31.176099
-31.175894
-31.176677
-31.176668
-31.176649
-31.176614
-31.176557
-31.176466
-31.176326
-31.176133
-31.175921
-31.176677
-31.176668
-31.176649
-31.176614
-31.176557
-31.176465
-31.176326
-31.176133
-31.175921
-31.176636
-31.176628
-31.17661
-31.176576
-31.176519
-31.176429
-31.176291
-31.176098
-31.175894
-31.176553
-31.176546
-31.17653
-31.176498
-31.176444
-31.176357
-31.176224
-31.17604
-31.17584
-31.176431
-31.176426
-31.176413
-31.176385
-31.176333
-31.17625
-31.176122
-31.175949
-31.175759
-31.176271
-31.176269
-31.176259
-31.176235
-31.176187
-31.176108
-31.175987
-31.175825
-31.17565
-31.176071
-31.176072
-31.176066
-31.176047
-31.176006
-31.175932
-31.175819
-31.175669
-31.175511
-31.175834
-31.175838
-31.175837
-31.175824
-31.17579
-31.175724
-31.175621
-31.175485
-31.175345
-31.175555
-31.175562
-31.175567
-31.175561
-31.175537
-31.175483
-31.175393
-31.175272
-31.17515
-31.175243
-31.175255
-31.175266
-31.175268
-31.175256
-31.175216
-31.17514
-31.175034
-31.174927
-31.174905
-31.174922
-31.174939
-31.17495
-31.174947
-31.17492
-31.174858
-31.174764
-31.174664
-31.174542
-31.174563
-31.174587
-31.174609
-31.174624
-31.174623
-31.174595
-31.174533
-31.174422
-31.174222
-31.174247
-31.174281
-31.174324
-31.174375
-31.17443
-31.174486
-31.174534
-31.174502
-29.393872
-29.393885
-29.393905
-29.393931
-29.393965
-29.394006
-29.394056
-29.394115
-29.394136
-29.394072
-29.394083
-29.394098
-29.394113
-29.394129
-29.394141
-29.394149
-29.394147
-29.394124
-29.394298
-29.394307
-29.394318
-29.394328
-29.394334
-29.394334
-29.394324
-29.394307
-29.39429
-29.39451
-29.394517
-29.394524
-29.39453
-29.394532
-29.394527
-29.394512
-29.39449
-29.394469
-29.394709
-29.394713
-29.394716
-29.394717
-29.394714
-29.394704
-29.394684
-29.394655
-29.394627
-29.394893
-29.394894
-29.394894
-29.394891
-29.394883
-29.394868
-29.394842
-29.394807
-29.394771
-29.395057
-29.395055
-29.395052
-29.395045
-29.395033
-29.395014
-29.394984
-29.394942
-29.394897
-29.3952
-29.395196
-29.39519
-29.39518
-29.395165
-29.395142
-29.395106
-29.395058
-29.395004
-29.39532
-29.395315
-29.395307
-29.395294
-29.395275
-29.395247
-29.395207
-29.395153
-29.39509
-29.395413
-29.395406
-29.395397
-29.395382
-29.39536
-29.395329
-29.395285
-29.395226
-29.395156
-29.395475
-29.395468
-29.395457
-29.395441
-29.395417
-29.395384
-29.395338
-29.395275
-29.3952
-29.395506
-29.395499
-29.395487
-29.39547
-29.395445
-29.395411
-29.395364
-29.395299
-29.395222
-29.395506
-29.395498
-29.395487
-29.39547
-29.395445
-29.395411
-29.395364
-29.395299
-29.395222
-29.395475
-29.395467
-29.395457
-29.39544
-29.395416
-29.395383
-29.395337
-29.395274
-29.395199
-29.395412
-29.395405
-29.395396
-29.395381
-29.395359
-29.395327
-29.395284
-29.395225
-29.395155
-29.395319
-29.395313
-29.395305
-29.395293
-29.395273
-29.395246
-29.395206
-29.395151
-29.395089
-29.395198
-29.395194
-29.395188
-29.395178
-29.395163
-29.395139
-29.395104
-29.395056
-29.395002
-29.395054
-29.395053
-29.39505
-29.395042
-29.39503
-29.395011
-29.394981
-29.39494
-29.394895
-29.39489
-29.394891
-29.394891
-29.394888
-29.394879
-29.394865
-29.394839
-29.394804
-29.394769
-29.394706
-29.394709
-29.394713
-29.394714
-29.39471
-29.3947
-29.39468
-29.394652
-29.394625
-29.394506
-29.394513
-29.39452
-29.394526
-29.394527
-29.394522
-29.394508
-29.394486
-29.394466
-29.394293
-29.394302
-29.394313
-29.394323
-29.394329
-29.394328
-29.39432
-29.394303
-29.394287
-29.394066
-29.394077
-29.394092
-29.394107
-29.394123
-29.394135
-29.394143
-29.394142
-29.39412
-29.393865
-29.393879
-29.393898
-29.393924
-29.393958
-29.394
-29.39405
-29.394109
-29.394131
-27.609633
-27.609638
-27.609646
-27.609657
-27.609673
-27.60969
-27.609708
-27.609725
-27.609719
-27.609747
-27.60975
-27.609755
-27.60976
-27.609764
-27.609764
-27.609756
-27.609739
-27.609707
-27.609872
-27.609874
-27.609877
-27.609878
-27.609877
-27.609869
-27.609852
-27.609826
-27.609799
-27.609991
-27.609992
-27.609992
-27.609992
-27.609988
-27.609977
-27.609956
-27.609928
-27.6099
-27.610102
-27.610101
-27.6101
-27.610097
-27.61009
-27.610076
-27.610052
-27.610021
-27.60999
-27.610202
-27.6102
-27.610197
-27.610193
-27.610184
-27.610167
-27.610141
-27.610106
-27.610069
-27.610289
-27.610287
-27.610283
-27.610277
-27.610266
-27.610248
-27.61022
-27.610181
-27.610139
-27.610363
-27.61036
-27.610355
-27.610348
-27.610336
-27.610317
-27.610288
-27.610246
-27.610198
-27.610424
-27.61042
-27.610414
-27.610405
-27.610393
-27.610374
-27.610343
-27.610299
-27.610245
-27.61047
-27.610465
-27.610458
-27.61045
-27.610437
-27.610418
-27.610386
-27.610339
-27.610282
-27.610501
-27.610496
-27.610489
-27.61048
-27.610467
-27.610447
-27.610415
-27.610367
-27.610306
-27.610516
-27.610511
-27.610504
-27.610494
-27.610481
-27.610462
-27.610429
-27.61038
-27.610318
-27.610516
-27.610511
-27.610504
-27.610494
-27.610481
-27.610461
-27.610429
-27.61038
-27.610318
-27.6105
-27.610495
-27.610488
-27.610479
-27.610466
-27.610446
-27.610414
-27.610366
-27.610306
-27.610468
-27.610464
-27.610457
-27.610448
-27.610436
-27.610416
-27.610385
-27.610338
-27.610281
-27.610422
-27.610418
-27.610412
-27.610404
-27.610391
-27.610372
-27.610341
-27.610297
-27.610244
-27.610361
-27.610358
-27.610353
-27.610345
-27.610334
-27.610315
-27.610285
-27.610244
-27.610196
-27.610287
-27.610284
-27.61028
-27.610274
-27.610263
-27.610245
-27.610217
-27.610179
-27.610137
-27.610199
-27.610197
-27.610194
-27.610189
-27.61018
-27.610164
-27.610138
-27.610103
-27.610067
-27.610098
-27.610097
-27.610095
-27.610092
-27.610086
-27.610072
-27.610048
-27.610017
-27.609986
-27.609986
-27.609987
-27.609987
-27.609987
-27.609983
-27.609972
-27.609951
-27.609923
-27.609897
-27.609866
-27.609869
-27.609871
-27.609873
-27.609872
-27.609864
-27.609847
-27.609821
-27.609795
-27.609741
-27.609744
-27.609748
-27.609753
-27.609757
-27.609757
-27.60975
-27.609732
-27.609701
-27.609626
-27.609631
-27.609639
-27.60965
-27.609665
-27.609683
-27.609701
-27.609718
-27.609712
-25.829002
-25.829005
-25.829009
-25.829015
-25.829024
-25.829034
-25.829048
-25.829065
-25.829072
-25.829063
-25.829065
-25.829068
-25.829071
-25.829074
-25.829076
-25.829077
-25.829076
-25.829068
-25.829129
-25.829131
-25.829133
-25.829134
-25.829134
-25.829133
-25.829129
-25.829124
-25.829118
-25.829192
-25.829192
-25.829193
-25.829193
-25.829192
-25.829189
-25.829185
-25.829178
-25.829172
-25.82925
-25.82925
-25.829249
-25.829248
-25.829246
-25.829242
-25.829236
-25.829228
-25.82922
-25.829303
-25.829302
-25.829301
-25.829299
-25.829295
-25.82929
-25.829283
-25.829274
-25.829264
-25.82935
-25.829349
-25.829347
-25.829344
-25.829339
-25.829333
-25.829325
-25.829314
-25.829301
-25.829391
-25.829389
-25.829387
-25.829383
-25.829378
-25.829371
-25.829361
-25.829349
-25.829333
-25.829425
-25.829423
-25.82942
-25.829415
-25.829409
-25.829401
-25.829391
-25.829377
-25.829359
-25.82945
-25.829448
-25.829445
-25.82944
-25.829433
-25.829425
-25.829414
-25.829398
-25.829379
-25.829467
-25.829465
-25.829461
-25.829456
-25.829449
-25.829441
-25.829429
-25.829413
-25.829392
-25.829476
-25.829473
-25.82947
-25.829464
-25.829457
-25.829448
-25.829437
-25.82942
-25.829398
-25.829476
-25.829473
-25.829469
-25.829464
-25.829457
-25.829448
-25.829437
-25.82942
-25.829398
-25.829467
-25.829464
-25.82946
-25.829455
-25.829448
-25.82944
-25.829428
-25.829412
-25.829391
-25.829449
-25.829447
-25.829443
-25.829438
-25.829432
-25.829423
-25.829412
-25.829397
-25.829378
-25.829423
-25.829421
-25.829418
-25.829413
-25.829407
-25.829399
-25.829389
-25.829375
-25.829358
-25.829388
-25.829387
-25.829384
-25.82938
-25.829375
-25.829368
-25.829359
-25.829346
-25.829331
-25.829347
-25.829346
-25.829344
-25.82934
-25.829336
-25.82933
-25.829322
-25.829311
-25.829299
-25.829299
-25.829298
-25.829297
-25.829295
-25.829291
-25.829286
-25.829279
-25.82927
-25.82926
-25.829245
-25.829245
-25.829245
-25.829243
-25.829241
-25.829237
-25.829231
-25.829224
-25.829217
-25.829186
-25.829187
-25.829188
-25.829188
-25.829187
-25.829184
-25.829179
-25.829173
-25.829168
-25.829123
-25.829125
-25.829127
-25.829128
-25.829128
-25.829127
-25.829123
-25.829118
-25.829113
-25.829057
-25.829059
-25.829062
-25.829064
-25.829067
-25.829069
-25.829071
-25.82907
-25.829062
-25.828994
-25.828997
-25.829002
-25.829008
-25.829016
-25.829027
-25.829041
-25.829058
-25.829065
-24.047039
-24.04704
-24.047042
-24.047045
-24.047049
-24.047053
-24.047059
-24.047064
-24.047064
-24.047075
-24.047075
-24.047076
-24.047077
-24.047078
-24.047078
-24.047076
-24.047072
-24.047064
-24.047113
-24.047113
-24.047113
-24.047113
-24.047113
-24.04711
-24.047106
-24.0471
-24.047093
-24.047149
-24.047149
-24.047148
-24.047148
-24.047146
-24.047143
-24.047138
-24.047132
-24.047125
-24.047182
-24.047182
-24.047181
-24.04718
-24.047177
-24.047174
-24.047168
-24.04716
-24.047152
-24.047212
-24.047212
-24.04721
-24.047209
-24.047206
-24.047202
-24.047196
-24.047187
-24.047177
-24.047239
-24.047238
-24.047236
-24.047234
-24.047231
-24.047227
-24.04722
-24.04721
-24.047199
-24.047261
-24.04726
-24.047258
-24.047256
-24.047253
-24.047248
-24.047241
-24.04723
-24.047217
-24.04728
-24.047278
-24.047276
-24.047274
-24.04727
-24.047265
-24.047258
-24.047247
-24.047232
-24.047294
-24.047292
-24.04729
-24.047287
-24.047284
-24.047279
-24.047271
-24.047259
-24.047243
-24.047303
-24.047301
-24.047299
-24.047296
-24.047293
-24.047288
-24.04728
-24.047267
-24.047251
-24.047308
-24.047306
-24.047304
-24.047301
-24.047297
-24.047292
-24.047284
-24.047271
-24.047254
-24.047307
-24.047306
-24.047303
-24.0473
-24.047297
-24.047292
-24.047284
-24.047271
-24.047254
-24.047302
-24.0473
-24.047298
-24.047295
-24.047292
-24.047287
-24.047279
-24.047266
-24.04725
-24.047292
-24.047291
-24.047288
-24.047286
-24.047282
-24.047277
-24.047269
-24.047258
-24.047242
-24.047278
-24.047276
-24.047274
-24.047272
-24.047268
-24.047263
-24.047256
-24.047245
-24.04723
-24.047259
-24.047258
-24.047256
-24.047253
-24.04725
-24.047245
-24.047238
-24.047228
-24.047215
-24.047236
-24.047235
-24.047233
-24.047231
-24.047228
-24.047223
-24.047216
-24.047207
-24.047196
-24.047209
-24.047208
-24.047206
-24.047205
-24.047202
-24.047198
-24.047192
-24.047183
-24.047174
-24.047178
-24.047177
-24.047176
-24.047175
-24.047173
-24.047169
-24.047163
-24.047156
-24.047149
-24.047144
-24.047143
-24.047143
-24.047142
-24.047141
-24.047138
-24.047133
-24.047127
-24.04712
-24.047107
-24.047107
-24.047107
-24.047107
-24.047106
-24.047104
-24.0471
-24.047094
-24.047088
-24.047068
-24.047069
-24.047069
-24.04707
-24.047071
-24.047071
-24.047069
-24.047066
-24.047058
-24.047032
-24.047033
-24.047034
-24.047037
-24.047041
-24.047046
-24.047051
-24.047057
-24.047058
-22.265901
-22.265902
-22.265902
-22.265904
-22.265906
-22.265909
-22.265912
-22.265916
-22.265917
-22.265919
-22.26592
-22.26592
-22.265921
-22.265921
-22.265922
-22.265921
-22.26592
-22.265917
-22.265939
-22.265939
-22.265939
-22.265939
-22.265939
-22.265938
-22.265937
-22.265935
-22.265932
-22.265957
-22.265957
-22.265957
-22.265956
-22.265956
-22.265955
-22.265953
-22.265951
-22.265948
-22.265974
-22.265973
-22.265973
-22.265972
-22.265972
-22.26597
-22.265968
-22.265966
-22.265963
-22.265989
-22.265988
-22.265988
-22.265987
-22.265986
-22.265984
-22.265982
-22.265979
-22.265976
-22.266002
-22.266002
-22.266001
-22.266
-22.265999
-22.265997
-22.265994
-22.265991
-22.265987
-22.266013
-22.266013
-22.266012
-22.266011
-22.266009
-22.266008
-22.266005
-22.266001
-22.265996
-22.266023
-22.266022
-22.266021
-22.26602
-22.266018
-22.266016
-22.266013
-22.266009
-22.266004
-22.26603
-22.266029
-22.266028
-22.266027
-22.266025
-22.266023
-22.26602
-22.266015
-22.266009
-22.266034
-22.266034
-22.266033
-22.266031
-22.266029
-22.266027
-22.266024
-22.266019
-22.266013
-22.266036
-22.266036
-22.266035
-22.266033
-22.266032
-22.266029
-22.266026
-22.266021
-22.266015
-22.266036
-22.266035
-22.266034
-22.266033
-22.266031
-22.266029
-22.266026
-22.266021
-22.266014
-22.266034
-22.266033
-22.266032
-22.26603
-22.266029
-22.266027
-22.266023
-22.266019
-22.266012
-22.266028
-22.266028
-22.266027
-22.266025
-22.266024
-22.266022
-22.266019
-22.266014
-22.266008
-22.266021
-22.26602
-22.26602
-22.266018
-22.266017
-22.266014
-22.266012
-22.266008
-22.266002
-22.266011
-22.266011
-22.26601
-22.266009
-22.266007
-22.266005
-22.266003
-22.265999
-22.265994
-22.265999
-22.265999
-22.265998
-22.265997
-22.265996
-22.265994
-22.265992
-22.265988
-22.265985
-22.265985
-22.265985
-22.265984
-22.265984
-22.265982
-22.265981
-22.265979
-22.265976
-22.265973
-22.26597
-22.265969
-22.265969
-22.265968
-22.265967
-22.265966
-22.265964
-22.265962
-22.26596
-22.265952
-22.265952
-22.265952
-22.265952
-22.265951
-22.26595
-22.265949
-22.265947
-22.265945
-22.265933
-22.265934
-22.265934
-22.265934
-22.265933
-22.265933
-22.265932
-22.26593
-22.265928
-22.265913
-22.265914
-22.265914
-22.265915
-22.265915
-22.265915
-22.265915
-22.265915
-22.265912
-22.265894
-22.265895
-22.265896
-22.265897
-22.265899
-22.265902
-22.265905
-22.26591
-22.265911
-20.484503
-20.484503
-20.484504
-20.484504
-20.484505
-20.484506
-20.484508
-20.48451
-20.48451
-20.484513
-20.484513
-20.484513
-20.484514
-20.484514
-20.484514
-20.484513
-20.484512
-20.48451
-20.484524
-20.484524
-20.484524
-20.484523
-20.484523
-20.484523
-20.484521
-20.48452
-20.484518
-20.484533
-20.484533
-20.484533
-20.484533
-20.484532
-20.484532
-20.48453
-20.484528
-20.484526
-20.484543
-20.484543
-20.484542
-20.484542
-20.484541
-20.48454
-20.484539
-20.484537
-20.484534
-20.484551
-20.484551
-20.48455
-20.48455
-20.484549
-20.484548
-20.484546
-20.484544
-20.484541
-20.484558
-20.484558
-20.484558
-20.484557
-20.484556
-20.484555
-20.484553
-20.484551
-20.484548
-20.484565
-20.484564
-20.484564
-20.484563
-20.484562
-20.484561
-20.484559
-20.484556
-20.484553
-20.48457
-20.484569
-20.484569
-20.484568
-20.484567
-20.484566
-20.484564
-20.484561