/*--------------------------------*- C++ -*----------------------------------*\
| =========                 |                                                 |
| \\      /  F ield         | OpenFOAM: The Open Source CFD Toolbox           |
|  \\    /   O peration     | Version:  2406                                  |
|   \\  /    A nd           | Website:  www.openfoam.com                      |
|    \\/     M anipulation  |                                                 |
\*---------------------------------------------------------------------------*/
FoamFile
{
    version     2.0;
    format      ascii;
    arch        "LSB;label=32;scalar=64";
    class       surfaceScalarField;
    location    "12";
    object      phi;
}
// * * * * * * * * * * * * * * * * * * * * * * * * * * * * * * * * * * * * * //

dimensions      [0 3 -1 0 0 0 0];

oriented        oriented;

internalField   nonuniform List<scalar> 
101088
(
-4.5966803e-05
1.9633138e-05
-1.2493694e-05
-1.714885e-05
-8.2632824e-05
8.421588e-05
-5.1786402e-05
-7.4096149e-05
-9.4134935e-05
0.00020088073
-0.00011855559
-0.00017736386
-6.7399542e-05
0.00037669846
-0.00020924039
-0.00033339246
-8.0009027e-06
0.00059555025
-0.00029896209
-0.00052815696
5.0501248e-05
0.00081651534
-0.00034849993
-0.00072485451
6.1779292e-05
0.00098965585
-0.00033515202
-0.00087538136
1.0171968e-06
0.0010790943
-0.00027208411
-0.00094742473
0.0010718034
-0.00019558367
-0.0009321776
-0.00011817249
-5.5667293e-05
2.1709072e-05
-1.5075052e-05
-9.7987741e-05
9.2305462e-05
-6.1733914e-05
-0.00010620686
0.00021832343
-0.00013957676
-6.3298485e-05
0.00040627395
-0.00024265606
2.251113e-05
0.00063959768
-0.00034044224
0.00010980536
0.00087623398
-0.00039034339
0.00014543648
0.0010648678
-0.00036981738
0.00010578744
0.001165072
-0.00029800193
0.0011573661
-0.00021433704
1.1349649e-05
-6.5277142e-05
2.3103302e-05
-1.7591085e-05
-0.00011278415
9.7422251e-05
-7.1283573e-05
-0.0001179651
0.00022871936
-0.00015932117
-6.2096348e-05
0.00042253607
-0.00027291159
4.3840872e-05
0.00066157383
-0.00037599874
0.00015227313
0.00090420216
-0.00042298778
0.0002059162
0.0010991946
-0.00039357172
0.00018224228
0.0012017655
-0.00031146787
0.0011909432
-0.00022526495
0.00010702072
-7.4604345e-05
2.36347e-05
-1.9902094e-05
-0.00012715384
9.8961766e-05
-7.9878304e-05
-0.0001297393
0.00023086513
-0.00017662113
-6.2948536e-05
0.00042391741
-0.00029829526
5.8481823e-05
0.00066049609
-0.00040400911
0.00018096697
0.00090066887
-0.00044602174
0.00024468957
0.0010940095
-0.00040707154
0.0002313539
0.0011928347
-0.00031851863
0.0011772808
-0.00022965198
0.00016888748
-8.339116e-05
2.3115001e-05
-2.1923668e-05
-0.00014074303
9.640757e-05
-8.7260174e-05
-0.00014147768
0.00022403018
-0.00019109642
-6.6307326e-05
0.00040977795
-0.00031858651
6.636296e-05
0.00063637882
-0.00042516046
0.00019709359
0.00086633433
-0.00046053121
0.00026420074
0.0010510639
-0.00041146718
0.00025680945
0.0011419488
-0.00032014442
0.0011224753
-0.00023137271
0.00020319755
-9.1847756e-05
2.1795538e-05
-2.3660416e-05
-0.00015468636
9.051157e-05
-9.3472485e-05
-0.00015573775
0.00020945598
-0.00020291822
-7.5877415e-05
0.00038169201
-0.00033442687
6.3185336e-05
0.00059077278
-0.00043997509
0.00019759504
0.00080252642
-0.00046802115
0.00026400102
0.00097079866
-0.00040780117
0.00026020627
0.0010516819
-0.00031719828
0.0010303091
-0.00023006583
0.00021344919
-9.9308958e-05
1.958225e-05
-2.5075674e-05
-0.00016700608
8.1081305e-05
-9.8416949e-05
-0.00016875101
0.00018708651
-0.0002119925
-8.5993271e-05
0.00034006095
-0.00034583806
5.6113866e-05
0.00052512562
-0.000449086
0.00018979149
0.00071224682
-0.00046961645
0.00025397963
0.00085952037
-0.00040397529
0.0002501541
0.00092775263
-0.00031126195
0.0009063399
-0.00022650689
0.00020728738
-0.00010579572
1.6582402e-05
-2.6191309e-05
-0.00017798611
6.8535997e-05
-0.0001022385
-0.00018112387
0.00015786984
-0.00021876538
-9.7231015e-05
0.00028648467
-0.00035381112
4.5508502e-05
0.00044186002
-0.00045420297
0.00017594317
0.00059881415
-0.00046741987
0.00023682746
0.00072107637
-0.00039798355
0.00023143343
0.00077529189
-0.00030401545
0.00075602001
-0.00022192606
0.00019052454
-0.0001111938
1.2953681e-05
-2.7039553e-05
-0.00018738176
5.3496201e-05
-0.00010509792
-0.00019232489
0.00012311592
-0.00022367722
-0.00010849085
0.00022323
-0.00035935978
3.3349171e-05
0.00034414349
-0.00045676258
0.00015920843
0.00046627447
-0.00046322892
0.00021616871
0.00056045839
-0.00039144757
0.0002091673
0.00060070235
-0.00029837507
0.00058491905
-0.0002172697
0.00016885613
-0.00011541945
8.9026181e-06
-2.7646969e-05
-0.00019499074
3.6721308e-05
-0.00010711895
-0.00020188381
8.439893e-05
-0.00022709992
-0.00011890572
0.00015286181
-0.00036300331
2.1300366e-05
0.0002355324
-0.00045779335
0.00014237866
0.00031907662
-0.00045847672
0.00019559841
0.00038291002
-0.00038542227
0.0001873539
0.00040965104
-0.00029411334
0.00039834376
-0.00021326195
0.0001470749
-0.0001182319
4.5253396e-06
-2.8035712e-05
-0.00020004501
1.8652981e-05
-0.00010837174
-0.00020833758
4.2856994e-05
-0.00022912865
-0.00012628667
7.7604827e-05
-0.00036494967
1.2271105e-05
0.00011955273
-0.00045781508
0.00012924799
0.0001619419
-0.00045419537
0.00017947407
0.00019411132
-0.00038086292
0.00017017896
0.00020745438
-0.00029075741
0.00020154231
-0.00021038538
0.00012977674
-0.00011968392
-5.7982179e-11
-2.8216579e-05
-0.00020272808
-1.0872212e-10
-0.00010897256
-0.00021184913
-1.2533435e-11
-0.00023014109
-0.00013032199
2.0016924e-11
-0.00036599266
7.4355118e-06
-2.4907111e-10
-0.00045799355
0.00012222509
-3.2477527e-10
-0.00045210702
0.00017084447
-4.0854657e-10
-0.00037880296
0.00016085024
-2.3290208e-10
-0.00028922452
1.2023333e-09
-0.00020912776
0.00012020067
-0.00011968339
-4.5253267e-06
-2.8216575e-05
-0.00020272704
-1.8652883e-05
-0.00010897255
-0.00021184868
-4.2856715e-05
-0.00023014106
-0.0001303221
-7.7604699e-05
-0.00036599262
7.4357776e-06
-0.00011955327
-0.0004579935
0.00012222518
-0.00016194271
-0.000452107
0.00017084462
-0.00019411246
-0.00037880295
0.00016085085
-0.00020745526
-0.00028922454
-0.00020154064
-0.00020912778
0.00012020081
-0.00011823077
-8.9024054e-06
-2.8035712e-05
-0.00020004289
-3.6720742e-05
-0.00010837174
-0.00020833698
-8.439825e-05
-0.00022912865
-0.00012628709
-0.00015286158
-0.0003649497
1.2271957e-05
-0.00023553296
-0.00045781509
0.00012924829
-0.00031907779
-0.00045419542
0.00017947451
-0.0003829119
-0.00038086298
0.0001701806
-0.00040965284
-0.00029075748
-0.00039834375
-0.00021038546
0.00012977704
-0.00011541894
-1.2953543e-05
-2.7646965e-05
-0.00019499003
-5.3495902e-05
-0.00010711894
-0.00020188463
-0.00012311558
-0.00022709991
-0.00011890672
-0.00022322985
-0.0003630033
2.1301572e-05
-0.00034414394
-0.0004577933
0.00014237894
-0.00046627616
-0.00045847673
0.00019559895
-0.00056046114
-0.0003854223
0.00018735605
-0.00060070506
-0.0002941134
-0.00058492071
-0.00021326205
0.00014707516
-0.00011119467
-1.6582505e-05
-2.7039555e-05
-0.00018738367
-6.8536388e-05
-0.00010509793
-0.00019232721
-0.00015787019
-0.00022367724
-0.0001084923
-0.00028648471
-0.0003593598
3.3350332e-05
-0.00044186075
-0.00045676256
0.00015920856
-0.00059881679
-0.00046322897
0.00021616925
-0.00072107996
-0.00039144761
0.00020916949
-0.0007752953
-0.00029837514
-0.00075602273
-0.00021726981
0.00016885645
-0.00010579607
-1.9582315e-05
-2.6191309e-05
-0.00017798663
-8.108145e-05
-0.0001022385
-0.00018112414
-0.00018708653
-0.00021876538
-9.7231963e-05
-0.00034006093
-0.00035381113
4.5509158e-05
-0.00052512687
-0.00045420301
0.00017594314
-0.00071225012
-0.00046741996
0.00023682785
-0.00085952424
-0.0003979836
0.00023143521
-0.0009277564
-0.00030401549
-0.00090634285
-0.00022192615
0.00019052511
-9.9308332e-05
-2.179556e-05
-2.5075678e-05
-0.00016700494
-9.0511554e-05
-9.8416966e-05
-0.0001687506
-0.00020945623
-0.00021199255
-8.599554e-05
-0.00038169283
-0.00034583816
5.6113143e-05
-0.00059077431
-0.00044908615
0.00018979149
-0.00080252887
-0.00046961659
0.00025397985
-0.0009708015
-0.00040397538
0.00025015534
-0.0010516852
-0.00031126202
-0.0010303116
-0.00022650697
0.00020728819
-9.1847992e-05
-2.3115108e-05
-2.3660427e-05
-0.00015468684
-9.640801e-05
-9.347253e-05
-0.00015573857
-0.00022403111
-0.00020291831
-7.5879772e-05
-0.00040977879
-0.00033442696
6.3184316e-05
-0.0006363787
-0.00043997526
0.00019759544
-0.00086633433
-0.00046802132
0.00026400085
-0.0010510649
-0.00040780133
0.00026020701
-0.0011419511
-0.00031719838
-0.0011224772
-0.00023006588
0.00021344964
-8.3390718e-05
-2.3634681e-05
-2.1923663e-05
-0.00014074052
-9.8961583e-05
-8.7260151e-05
-0.00014147319
-0.00023086459
-0.00019109638
-6.6304866e-05
-0.0004239169
-0.00031858649
6.6362635e-05
-0.00066049609
-0.00042516053
0.00019709381
-0.00090066923
-0.00046053129
0.00026419975
-0.0010940111
-0.00041146729
0.0002568097
-0.0011928371
-0.00032014447
-0.0011772827
-0.00023137273
0.00020319767
-7.4603661e-05
-2.3103294e-05
-1.9902092e-05
-0.00012715182
-9.7422312e-05
-7.98783e-05
-0.0001297369
-0.00022871971
-0.00017662114
-6.2948008e-05
-0.00042253699
-0.00029829528
5.8480638e-05
-0.00066157485
-0.00040400909
0.00018096615
-0.000904203
-0.00044602177
0.00024468774
-0.0010991982
-0.00040707158
0.00023135311
-0.0012017686
-0.00031851863
-0.0011909433
-0.00022965198
0.00016888787
-6.527684e-05
-2.1709109e-05
-1.7591078e-05
-0.00011278301
-9.2305641e-05
-7.1283549e-05
-0.00011796319
-0.00021832388
-0.00015932112
-6.2094724e-05
-0.00040627487
-0.00027291152
4.3840885e-05
-0.00063959918
-0.00037599865
0.00015227045
-0.00087623538
-0.00042298774
0.00020591499
-0.0010648689
-0.00039357174
0.00018224226
-0.0011650739
-0.00031146785
-0.0011573666
-0.00022526491
0.00010701932
-5.5667281e-05
-1.9633107e-05
-1.5075047e-05
-9.7987269e-05
-8.4215782e-05
-6.1733898e-05
-0.00010620578
-0.00020088049
-0.00013957673
-6.3297291e-05
-0.000376698
-0.00024265602
2.2512398e-05
-0.0005955499
-0.00034044217
0.00010980501
-0.00081651568
-0.00039034333
0.00014543592
-0.00098965628
-0.00036981742
0.00010578922
-0.0010790951
-0.00029800192
-0.0010718061
-0.00021433704
1.1347058e-05
-4.5966662e-05
-1.2493693e-05
-1.7148854e-05
-8.2632174e-05
-5.1786401e-05
-7.4096181e-05
-9.4134032e-05
-0.0001185556
-0.000177364
-6.7399167e-05
-0.00020924042
-0.00033339292
-8.0000525e-06
-0.00029896215
-0.00052815805
5.0502447e-05
-0.00034850002
-0.00072485678
6.1778972e-05
-0.00033515208
-0.00087538437
1.0162952e-06
-0.00027208413
-0.00094742666
-0.00019558371
-0.00093217731
-0.00011817476
7.6643282e-09
2.9049298e-06
-1.3114491e-05
-2.2918051e-06
1.3039516e-06
1.2818556e-05
-5.5683924e-05
-1.0217434e-05
5.4453538e-06
3.1018437e-05
-0.00012880937
-2.4906391e-05
1.3066947e-05
5.7711033e-05
-0.00022788263
-4.6690911e-05
2.431938e-05
8.6925273e-05
-0.0003262399
-7.0900583e-05
3.8022196e-05
0.00010677373
-0.00038167612
-8.7300703e-05
5.0135488e-05
0.00010794638
-0.00036817104
-8.7039818e-05
5.8009254e-05
9.3226493e-05
-0.00030107128
-7.2112869e-05
7.2732453e-05
-0.00021871531
-5.2880151e-05
6.1288608e-05
1.2758887e-08
3.4258241e-06
-1.5608725e-05
1.7790035e-06
1.5016469e-05
-6.569816e-05
7.58917e-06
3.5987579e-05
-0.0001503563
1.8757998e-05
6.6048212e-05
-0.00026216235
3.5592753e-05
9.8035658e-05
-0.00036838758
5.475151e-05
0.00011920766
-0.0004219359
7.0326968e-05
0.00012029695
-0.0003977444
7.9687576e-05
0.00010580493
-0.00031994294
8.8061833e-05
-0.00023194326
8.1963318e-05
5.783415e-08
3.7738278e-06
-1.7997065e-05
2.5133778e-06
1.6471583e-05
-7.5194509e-05
1.037808e-05
3.9242424e-05
-0.00017044094
2.5332399e-05
7.131306e-05
-0.00029313058
4.7218589e-05
0.00010451525
-0.00040436394
7.0377366e-05
0.00012559096
-0.000452529
8.7419816e-05
0.0001261595
-0.0004164775
9.6889147e-05
0.0001133209
-0.00032845314
0.00010022837
-0.00023620543
9.566291e-05
9.476138e-08
3.9318329e-06
-2.0155086e-05
3.2187612e-06
1.7114577e-05
-8.3645634e-05
1.3149435e-05
4.0607708e-05
-0.00018791694
3.1964038e-05
7.3280737e-05
-0.00031907624
5.858753e-05
0.00010642615
-0.00043254203
8.4818561e-05
0.00012676938
-0.00047343163
0.00010240812
0.00012708856
-0.00042558988
0.00011074136
0.00011732009
-0.00033085151
0.00010821184
-0.0002311692
0.0001042742
1.2037859e-07
3.882193e-06
-2.1994547e-05
3.833689e-06
1.6902622e-05
-9.076204e-05
1.5618518e-05
4.0042975e-05
-0.00020231729
3.7942804e-05
7.1960214e-05
-0.00033959047
6.8380346e-05
0.00010389417
-0.0004530654
9.6963051e-05
0.0001232876
-0.00048563162
0.00011581079
0.00012374335
-0.00042696936
0.00012133455
0.0001177925
-0.000326141
0.00011112597
-0.00022292958
0.00010997649
8.0015681e-08
3.6763604e-06
-2.3534532e-05
4.1357944e-06
1.5995392e-05
-9.6620747e-05
1.7277208e-05
3.7829797e-05
-0.00021384578
4.2242078e-05
6.7711398e-05
-0.00035514201
7.5695562e-05
9.7560628e-05
-0.00046709577
0.00010592035
0.00011563107
-0.00049059013
0.00012715159
0.00011740001
-0.00042268946
0.0001286171
0.00011402995
-0.0003149012
0.00010860578
-0.00021233575
0.00011340687
5.5987251e-08
3.3056685e-06
-2.4761037e-05
4.4284106e-06
1.4389067e-05
-0.00010118327
1.875546e-05
3.4005758e-05
-0.00022249565
4.5783143e-05
6.0786301e-05
-0.00036594
8.1395499e-05
8.7619826e-05
-0.00047475754
0.00011324893
0.00010379408
-0.00048963316
0.00013566585
0.0001062225
-0.00041521522
0.00013321106
0.00010502768
-0.00029980471
0.00010080794
-0.00020049088
0.0001149928
1.8979412e-08
2.7929765e-06
-2.5697417e-05
4.5958226e-06
1.2175169e-05
-0.00010460136
1.9801777e-05
2.8775696e-05
-0.00022874158
4.8266968e-05
5.1562052e-05
-0.00037305254
8.5145928e-05
7.4387068e-05
-0.0004778492
0.00011841338
8.8241838e-05
-0.00048513476
0.00014142651
9.1975882e-05
-0.00040675045
0.00013557432
9.201609e-05
-0.00028515162
8.8140353e-05
-0.00018862929
0.00011494516
-4.1600312e-08
2.1794327e-06
-2.6384244e-05
4.5862068e-06
9.5157753e-06
-0.00010706602
2.0264448e-05
2.2503128e-05
-0.00023308258
4.9600139e-05
4.0360143e-05
-0.0003774942
8.7395641e-05
5.8309967e-05
-0.0004784814
0.00012225373
6.9300428e-05
-0.00047914515
0.00014469493
7.3231377e-05
-0.00039514447
0.00013583491
7.4173972e-05
-0.00027167303
7.0923905e-05
-0.00017780191
0.00011358374
-1.0291658e-07
1.494511e-06
-2.6859322e-05
4.5074958e-06
6.5319515e-06
-0.00010874562
2.0390743e-05
1.5454272e-05
-0.00023593375
5.0075434e-05
2.7731103e-05
-0.00038005905
8.8266513e-05
4.0105062e-05
-0.00047777979
0.00012457819
4.7717115e-05
-0.00047320462
0.0001462428
5.1040154e-05
-0.00038489553
0.00013472434
5.2002154e-05
-0.00026042312
4.9783775e-05
-0.00016886556
0.0001114684
-1.3654889e-07
7.6365598e-07
-2.7168526e-05
4.4739983e-06
3.3347064e-06
-0.00010978522
2.0475612e-05
7.8883544e-06
-0.00023756388
5.0283877e-05
1.4157395e-05
-0.00038118393
8.8493944e-05
2.0486012e-05
-0.00047640586
0.00012585163
2.4403287e-05
-0.00046823872
0.00014670526
2.6391853e-05
-0.00037706775
0.00013330686
2.6878779e-05
-0.00025223558
2.5742427e-05
-0.00016245054
0.00010941375
-1.5506681e-07
6.1677627e-13
-2.729784e-05
4.4470915e-06
1.7846033e-11
-0.00011023991
2.0492493e-05
7.6246472e-11
-0.00023829782
5.0337859e-05
1.0752167e-11
-0.00038168029
8.8495374e-05
-3.7103625e-10
-0.00047566405
0.00012648703
-8.1409934e-10
-0.00046569412
0.00014674033
-1.2138909e-09
-0.00037266248
0.00013241073
-1.0820733e-09
-0.0002480149
-1.1013801e-10
-0.00015913404
0.00010815984
-1.5494339e-07
-7.6362928e-07
-2.7297836e-05
4.4473622e-06
-3.3346049e-06
-0.0001102399
2.0492622e-05
-7.8881418e-06
-0.0002382978
5.0337849e-05
-1.4157362e-05
-0.00038168026
8.8495518e-05
-2.0486767e-05
-0.00047566402
0.00012648706
-2.440498e-05
-0.00046569412
0.00014674037
-2.6394368e-05
-0.00037266251
0.00013241088
-2.6880995e-05
-0.00024801493
-2.5742742e-05
-0.00015913406
0.00010815987
-1.3622578e-07
-1.4944324e-06
-2.7168526e-05
4.4746784e-06
-6.5317265e-06
-0.00010978523
2.0475881e-05
-1.5453964e-05
-0.00023756389
5.0283856e-05
-2.773106e-05
-0.00038118396
8.8494367e-05
-4.0105824e-05
-0.00047640592
0.00012585173
-4.7718953e-05
-0.00046823881
0.00014670543
-5.1042867e-05
-0.00037706786
0.00013330729
-5.2004465e-05
-0.00025223568
-4.9784307e-05
-0.00016245062
0.00010941382
-1.0263425e-07
-2.1793534e-06
-2.6859319e-05
4.5080369e-06
-9.5155813e-06
-0.00010874561
2.0390753e-05
-2.2502894e-05
-0.00023593374
5.0075361e-05
-4.0360129e-05
-0.00038005904
8.8267084e-05
-5.8310698e-05
-0.0004777798
0.00012457832
-6.9302435e-05
-0.00047320468
0.0001462431
-7.3234276e-05
-0.00038489563
0.00013472493
-7.4176347e-05
-0.00026042324
-7.0924653e-05
-0.00016886567
0.00011146847
-4.1665567e-08
-2.7929631e-06
-2.6384245e-05
4.5860241e-06
-1.2175171e-05
-0.00010706602
2.0263993e-05
-2.8775655e-05
-0.00023308259
4.9600074e-05
-5.1562062e-05
-0.00037749423
8.7396206e-05
-7.4387829e-05
-0.00047848145
0.00012225387
-8.8244086e-05
-0.00047914524
0.00014469537
-9.1978947e-05
-0.00039514459
0.00013583552
-9.2018542e-05
-0.00027167316
-8.814124e-05
-0.00017780203
0.00011358386
1.8809871e-08
-3.3056652e-06
-2.5697419e-05
4.5955071e-06
-1.4389059e-05
-0.00010460137
1.9801615e-05
-3.4005668e-05
-0.00022874161
4.8267081e-05
-6.0786275e-05
-0.00037305259
8.5146296e-05
-8.7620768e-05
-0.00047784928
0.00011841353
-0.00010379658
-0.00048513488
0.00014142703
-0.00010622571
-0.00040675058
0.0001355748
-0.00010503027
-0.00028515175
-0.0001008088
-0.00018862942
0.00011494539
5.6028984e-08
-3.6763406e-06
-2.4761042e-05
4.4285577e-06
-1.5995304e-05
-0.00010118329
1.8755707e-05
-3.7829695e-05
-0.00022249571
4.5782902e-05
-6.7711589e-05
-0.00036594008
8.1395447e-05
-9.7561796e-05
-0.00047475766
0.00011324911
-0.00011563351
-0.00048963331
0.00013566636
-0.00011740309
-0.00041521536
0.00013321138
-0.00011403248
-0.00029980486
-0.00010860629
-0.00020049099
0.00011499306
7.9977101e-08
-3.8822085e-06
-2.3534541e-05
4.1356479e-06
-1.6902711e-05
-9.6620786e-05
1.7276848e-05
-4.0043272e-05
-0.00021384586
4.224132e-05
-7.1960795e-05
-0.00035514214
7.569539e-05
-0.00010389511
-0.00046709597
0.0001059206
-0.00012328947
-0.00049059036
0.00012715195
-0.00012374593
-0.00042268967
0.00012861733
-0.0001177946
-0.00031490137
-0.00011112612
-0.00021233583
0.0001134071
1.20489e-07
-3.9318125e-06
-2.1994544e-05
3.8342196e-06
-1.711449e-05
-9.0762032e-05
1.5619507e-05
-4.0607516e-05
-0.00020231728
3.794356e-05
-7.328062e-05
-0.0003395905
6.8380445e-05
-0.00010642676
-0.0004530655
9.6963163e-05
-0.00012677129
-0.0004856318
0.00011581078
-0.0001270911
-0.00042696955
0.00012133476
-0.00011732195
-0.00032614112
-0.00010821214
-0.00022292961
0.0001099768
9.4991044e-08
-3.7738096e-06
-2.0155083e-05
3.2194413e-06
-1.6471568e-05
-8.3645625e-05
1.3150211e-05
-3.9242537e-05
-0.00018791693
3.1964095e-05
-7.1313642e-05
-0.00031907626
5.8586829e-05
-0.00010451665
-0.00043254207
8.4818208e-05
-0.00012559306
-0.00047343175
0.00010240755
-0.00012616257
-0.00042559001
0.00011074123
-0.00011332303
-0.00033085157
-0.00010022829
-0.0002311692
0.00010427426
5.7993668e-08
-3.4258234e-06
-1.7997058e-05
2.5139112e-06
-1.50165e-05
-7.5194483e-05
1.0378803e-05
-3.5987772e-05
-0.0001704409
2.5332792e-05
-6.6048913e-05
-0.00029313054
4.7218415e-05
-9.8037335e-05
-0.00040436394
7.0376131e-05
-0.00011921027
-0.00045252906
8.7418754e-05
-0.00012029974
-0.00041647758
9.6888703e-05
-0.00010580698
-0.00032845315
-8.8061857e-05
-0.00023620539
9.5662053e-05
1.2741859e-08
-2.9049364e-06
-1.5608722e-05
1.7790656e-06
-1.2818602e-05
-6.5698147e-05
7.5892984e-06
-3.101861e-05
-0.00015035628
1.8758013e-05
-5.7711533e-05
-0.00026216234
3.5592579e-05
-8.6926376e-05
-0.0003683876
5.4750338e-05
-0.0001067755
-0.00042193597
7.0325909e-05
-0.00010794795
-0.00039774447
7.9687247e-05
-9.3226969e-05
-0.00031994295
-7.2732307e-05
-0.00023194321
8.1962044e-05
7.6623607e-09
-1.3114489e-05
-2.2918147e-06
1.3040324e-06
-5.5683919e-05
-1.0217488e-05
5.4455045e-06
-0.00012880936
-2.4906569e-05
1.3066973e-05
-0.00022788265
-4.6691425e-05
2.4319208e-05
-0.00032623996
-7.0901782e-05
3.8021544e-05
-0.00038167621
-8.7302937e-05
5.0134986e-05
-0.00036817108
-8.7042782e-05
5.8008959e-05
-0.00030107129
-7.2115975e-05
-0.00021871527
-5.2880715e-05
6.1288655e-05
1.4803954e-07
1.1875013e-06
-1.3207157e-05
-1.2428748e-06
5.1825201e-07
4.7988509e-06
-5.572283e-05
-5.1301027e-06
1.8017909e-06
1.0454698e-05
-0.00012902172
-1.1525734e-05
6.2870997e-06
1.6436721e-05
-0.0002295209
-1.9283581e-05
1.6925536e-05
1.7388537e-05
-0.00033033921
-2.3927763e-05
3.5100248e-05
5.2575685e-06
-0.00038710063
-1.8008362e-05
5.842142e-05
-2.3401345e-05
-0.00037131807
3.2268033e-06
8.1035352e-05
-5.8841113e-05
-0.00029854014
3.3696021e-05
-8.2481549e-05
-0.00021102079
6.0461618e-05
9.5360603e-05
2.41461e-07
1.1338254e-06
-1.5796488e-05
9.9923419e-07
4.4160217e-06
-6.6073008e-05
3.4918817e-06
9.1317415e-06
-0.00015152575
1.0969112e-05
1.2977658e-05
-0.00026618024
2.6904421e-05
1.0002375e-05
-0.0003769367
5.125659e-05
-7.7900697e-06
-0.00043324074
7.9178405e-05
-4.1844627e-05
-0.00040722355
0.0001018112
-7.9522206e-05
-0.00032189512
-0.00010163289
-0.00022518466
0.00011420404
3.6519167e-07
1.0663125e-06
-1.8294683e-05
1.5751842e-06
3.9875614e-06
-7.5975905e-05
5.2841898e-06
7.7473979e-06
-0.00017276563
1.5527755e-05
9.5514131e-06
-0.00029994869
3.6081797e-05
3.1355099e-06
-0.00041805238
6.5747056e-05
-1.900836e-05
-0.00047097596
9.6689682e-05
-5.6255385e-05
-0.00043300878
0.0001174881
-9.3737225e-05
-0.00033503679
-0.00011403286
-0.00023048758
0.00012417013
5.0230977e-07
9.7695435e-07
-2.0567932e-05
2.2124525e-06
3.505781e-06
-8.4873748e-05
7.2084287e-06
6.3577305e-06
-0.00019152314
2.018969e-05
6.4518894e-06
-0.00032895856
4.4971548e-05
-2.4366228e-06
-0.00045175251
7.92131e-05
-2.7232043e-05
-0.00049944965
0.0001121734
-6.5669496e-05
-0.00044913665
0.00012907312
-0.00010170959
-0.00033977922
-0.00011819221
-0.00022965599
0.00013171946
6.3646431e-07
8.6582271e-07
-2.2519762e-05
2.832753e-06
2.987627e-06
-9.2439924e-05
9.0683389e-06
5.0361146e-06
-0.00020723134
2.4619594e-05
3.8939996e-06
-0.00035258459
5.3272669e-05
-6.3962476e-06
-0.00047775902
9.1449197e-05
-3.2068376e-05
-0.00051897211
0.00012540739
-6.9656114e-05
-0.00045694162
0.00013878503
-0.00010349975
-0.00033772854
-0.0001159978
-0.00022426322
0.00013792454
7.5777382e-07
7.3780992e-07
-2.4164219e-05
3.401997e-06
2.448763e-06
-9.872613e-05
1.0797697e-05
3.8090736e-06
-0.00022001517
2.8767538e-05
1.8979624e-06
-0.00037111719
6.0953671e-05
-8.9812563e-06
-0.00049669673
0.00010268204
-3.3713371e-05
-0.00053067346
0.00013658547
-6.8342927e-05
-0.00045790553
0.00014799473
-9.9516831e-05
-0.00033029314
-0.00010822863
-0.00021593517
0.00014382498
8.5562805e-07
6.0211575e-07
-2.5480808e-05
3.8660913e-06
1.9240661e-06
-0.00010366882
1.2231909e-05
2.7481354e-06
-0.00022980077
3.2362045e-05
4.3504813e-07
-0.00038460788
6.7789183e-05
-1.0138131e-05
-0.00050902731
0.00011254294
-3.2535657e-05
-0.000535565
0.0001449988
-6.2633207e-05
-0.00045338015
0.00015656946
-8.8812478e-05
-0.00032207945
-9.5716963e-05
-0.00020582176
0.00014938852
9.2505395e-07
4.713637e-07
-2.649169e-05
4.2012885e-06
1.4550037e-06
-0.00010740851
1.3316073e-05
1.9151313e-06
-0.00023702355
3.5244684e-05
-4.9029401e-07
-0.00039405604
7.3599867e-05
-9.8927322e-06
-0.00051644929
0.00012093066
-2.9094754e-05
-0.00053590704
0.00015186529
-5.4616799e-05
-0.00044570127
0.00016366796
-7.4749896e-05
-0.00031101664
-7.9860917e-05
-0.00019523102
0.00015441351
9.7833979e-07
3.4528402e-07
-2.7236652e-05
4.4603683e-06
1.0349947e-06
-0.00011012827
1.4186907e-05
1.258202e-06
-0.00024215244
3.747836e-05
-8.8035164e-07
-0.00040039561
7.8077132e-05
-8.4917998e-06
-0.0005204808
0.00012715535
-2.3616094e-05
-0.00053370238
0.00015769369
-4.337426e-05
-0.0004369255
0.00016933928
-5.8115874e-05
-0.0002999525
-6.1697946e-05
-0.0001853071
0.00015868141
1.0140903e-06
2.261454e-07
-2.7754348e-05
4.6392522e-06
6.6132819e-07
-0.00011199726
1.4816287e-05
7.4304148e-07
-0.00024559582
3.911015e-05
-8.3935593e-07
-0.0004043939
8.1346694e-05
-6.1849304e-06
-0.00052232327
0.00013166962
-1.6605134e-05
-0.00053053859
0.00016217284
-3.0012652e-05
-0.00042876073
0.00017368921
-3.9694752e-05
-0.00029036061
-4.1956045e-05
-0.00017699463
0.00016207629
1.0391583e-06
1.100176e-07
-2.8091521e-05
4.7653e-06
3.1494399e-07
-0.00011316497
1.5243917e-05
3.2855501e-07
-0.00024762811
4.0215345e-05
-5.0901889e-07
-0.00040648574
8.3527948e-05
-3.2657382e-06
-0.00052263811
0.00013462942
-8.5989346e-06
-0.00052734642
0.00016518161
-1.5423952e-05
-0.00042220913
0.0001766208
-2.0151145e-05
-0.00028321851
-2.1221459e-05
-0.00017098564
0.00016442124
1.0459633e-06
2.8064058e-11
-2.8233795e-05
4.8000333e-06
8.7915374e-11
-0.00011367915
1.5386971e-05
1.1795583e-10
-0.00024855644
4.0664796e-05
-5.6223742e-11
-0.0004074672
8.4493886e-05
-6.0083366e-10
-0.00052275891
0.00013592659
-1.3322745e-09
-0.00052572452
0.00016663886
-1.8444593e-09
-0.00041879735
0.00017805471
-1.4619166e-09
-0.00027958063
-2.8506987e-10
-0.00016792499
0.00016562454
1.0459186e-06
-1.0997886e-07
-2.8233791e-05
4.7999407e-06
-3.1482376e-07
-0.00011367914
1.5386895e-05
-3.2839555e-07
-0.00024855641
4.0664738e-05
5.088475e-07
-0.00040746715
8.4493893e-05
3.2645127e-06
-0.00052275886
0.00013592656
8.5962402e-06
-0.00052572449
0.0001666389
1.5420302e-05
-0.00041879734
0.00017805473
2.0148298e-05
-0.00027958065
2.1220989e-05
-0.00016792501
0.0001656246
1.0390807e-06
-2.2613155e-07
-2.8091521e-05
4.7651433e-06
-6.6129047e-07
-0.00011316497
1.5243823e-05
-7.4300144e-07
-0.0002476281
4.0215288e-05
8.3908786e-07
-0.00040648574
8.3527994e-05
6.1836758e-06
-0.00052263813
0.0001346294
1.6602402e-05
-0.00052734647
0.00016518176
3.0009138e-05
-0.0004222092
0.00017662088
3.9692108e-05
-0.00028321859
4.1955806e-05
-0.0001709857
0.00016442144
1.0140995e-06
-3.4525416e-07
-2.7754342e-05
4.6392744e-06
-1.0349149e-06
-0.00011199724
1.4816423e-05
-1.2581342e-06
-0.00024559578
3.9110293e-05
8.8007578e-07
-0.00040439383
8.1346772e-05
8.4905628e-06
-0.00052232323
0.0001316697
2.3613388e-05
-0.00053053859
0.00016217311
4.3370952e-05
-0.00042876079
0.00017368934
5.8113464e-05
-0.00029036071
6.1697906e-05
-0.00017699473
0.00016207658
9.7844317e-07
-4.7130271e-07
-2.7236649e-05
4.4606096e-06
-1.4548257e-06
-0.00011012826
1.4187337e-05
-1.9149497e-06
-0.00024215242
3.747882e-05
4.9009748e-07
-0.00040039559
7.8077246e-05
9.8915897e-06
-0.00052048081
0.00012715568
2.9092187e-05
-0.00053370243
0.00015769407
5.4613679e-05
-0.00043692561
0.00016933943
7.4747649e-05
-0.00029995264
7.9861e-05
-0.00018530722
0.00015868171
9.2505507e-07
-6.0206543e-07
-2.6491692e-05
4.2013648e-06
-1.9239226e-06
-0.00010740851
1.3316418e-05
-2.7479572e-06
-0.00023702357
3.5245288e-05
-4.3522275e-07
-0.00039405607
7.3599982e-05
1.0136982e-05
-0.00051644937
0.00012093123
3.2533122e-05
-0.00053590715
0.00015186568
6.2629996e-05
-0.00044570142
0.00016366805
8.8810202e-05
-0.0003110168
9.5717173e-05
-0.00019523115
0.00015441383
8.5550029e-07
-7.3776948e-07
-2.5480813e-05
3.8658349e-06
-2.4486742e-06
-0.00010366884
1.2231933e-05
-3.8089872e-06
-0.00022980082
3.2362717e-05
-1.898307e-06
-0.00038460796
6.7789391e-05
8.9797848e-06
-0.00050902744
0.00011254354
3.3710475e-05
-0.00053556516
0.00014499908
6.8339174e-05
-0.00045338035
0.00015656947
9.9514391e-05
-0.00032207963
0.00010822913
-0.00020582189
0.00014938896
7.5769303e-07
-8.6576822e-07
-2.4164228e-05
3.4017807e-06
-2.9874634e-06
-9.8726164e-05
1.0797803e-05
-5.0359124e-06
-0.00022001526
2.8768445e-05
-3.8943043e-06
-0.00037111733
6.0954063e-05
6.3944369e-06
-0.00049669694
0.00010268245
3.2064805e-05
-0.00053067371
0.00013658569
6.965172e-05
-0.00045790578
0.00014799474
0.00010349726
-0.0003302933
0.00011599863
-0.00021593528
0.0001438255
6.3635688e-07
-9.7692673e-07
-2.2519764e-05
2.8323399e-06
-3.5057163e-06
-9.2439932e-05
9.0678726e-06
-6.3577617e-06
-0.00020723136
2.4619694e-05
-6.4525601e-06
-0.00035258465
5.3272736e-05
2.4344101e-06
-0.00047775913
9.1449263e-05
2.7228342e-05
-0.00051897227
0.00012540767
6.5665544e-05
-0.00045694179
0.00013878515
0.00010170754
-0.00033772867
0.00011819293
-0.00022426328
0.00013792482
5.0218994e-07
-1.0663155e-06
-2.0567929e-05
2.211962e-06
-3.9876101e-06
-8.4873735e-05
7.2076207e-06
-7.747637e-06
-0.00019152312
2.0189243e-05
-9.5523018e-06
-0.00032895855
4.497163e-05
-3.1377099e-06
-0.00045175254
7.9213121e-05
1.9004981e-05
-0.00049944973
0.00011217361
5.6252171e-05
-0.00044913676
0.0001290731
9.3735659e-05
-0.0003397793
0.00011403282
-0.000229656
0.00013171935
3.6510926e-07
-1.1338284e-06
-1.8294676e-05
1.574801e-06
-4.4160669e-06
-7.597588e-05
5.2835312e-06
-9.1319298e-06
-0.00017276558
1.5527422e-05
-1.2978315e-05
-0.00029994863
3.6082101e-05
-1.0004137e-05
-0.00041805235
6.5747084e-05
7.7868339e-06
-0.00047097598
9.6689143e-05
4.1841085e-05
-0.00043300881
0.00011748668
7.9520429e-05
-0.00033503681
0.00010163276
-0.00023048754
0.00012416967
2.414451e-07
-1.1875076e-06
-1.5796485e-05
9.9910014e-07
-4.7989031e-06
-6.6072997e-05
3.49157e-06
-1.0454894e-05
-0.00015152573
1.0968697e-05
-1.643735e-05
-0.00026618023
2.6903854e-05
-1.7390102e-05
-0.00037693672
5.1255523e-05
-5.2601173e-06
-0.00043324079
7.9176789e-05
2.3398736e-05
-0.00040722359
0.00010180839
5.8840006e-05
-0.00032189513
8.2482002e-05
-0.00022518459
0.00011420353
1.480226e-07
-1.3207156e-05
-1.2428838e-06
5.1809573e-07
-5.5722827e-05
-5.1301681e-06
1.8013529e-06
-0.00012902171
-1.1525948e-05
6.2862449e-06
-0.0002295209
-1.9284148e-05
1.6924033e-05
-0.00033033924
-2.3928988e-05
3.5098509e-05
-0.00038710067
-1.8010237e-05
5.8419798e-05
-0.00037131809
3.2246014e-06
8.103379e-05
-0.00029854012
3.3693295e-05
-0.0002110207
6.046038e-05
9.5360631e-05
-2.0372931e-08
5.5864924e-07
-1.3270204e-05
-4.7522916e-07
6.6963372e-08
2.227736e-06
-5.611664e-05
-1.9212713e-06
3.546982e-07
4.5595874e-06
-0.00012982611
-4.0429492e-06
8.9651814e-07
5.8429791e-06
-0.00023028028
-5.6254445e-06
2.5912364e-06
1.6778e-06
-0.00033037194
-3.3397513e-06
8.0416454e-06
-1.4134369e-05
-0.00038616799
7.7514008e-06
2.0308297e-05
-4.3988332e-05
-0.00037002654
3.0429932e-05
3.9605465e-05
-7.9519188e-05
-0.00029788528
5.9567018e-05
-0.00010544587
-0.00021134955
8.4123021e-05
6.1257223e-05
-8.1095157e-09
6.3775746e-07
-1.5867489e-05
2.3021679e-07
2.4677594e-06
-6.6551353e-05