/*--------------------------------*- C++ -*----------------------------------*\
| =========                 |                                                 |
| \\      /  F ield         | OpenFOAM: The Open Source CFD Toolbox           |
|  \\    /   O peration     | Version:  2406                                  |
|   \\  /    A nd           | Website:  www.openfoam.com                      |
|    \\/     M anipulation  |                                                 |
\*---------------------------------------------------------------------------*/
FoamFile
{
    version     2.0;
    format      ascii;
    arch        "LSB;label=32;scalar=64";
    class       volVectorField;
    location    "12";
    object      U;
}
// * * * * * * * * * * * * * * * * * * * * * * * * * * * * * * * * * * * * * //

dimensions      [0 1 -1 0 0 0 0];

internalField   nonuniform List<vector> 
34560
(
(-0.04950057 0.0097798721 0.013665722)
(-0.14918919 0.030863318 0.041367565)
(-0.25440903 0.057993591 0.068477493)
(-0.3471104 0.091471182 0.088340839)
(-0.40526987 0.12916331 0.095768097)
(-0.41421681 0.16841374 0.088972418)
(-0.37814028 0.20497485 0.07249733)
(-0.31810407 0.23519789 0.054526122)
(-0.25883902 0.25634569 0.043113313)
(-0.053818661 0.011039527 0.014392265)
(-0.15947408 0.034091846 0.043036406)
(-0.2665063 0.062821081 0.069596501)
(-0.35416047 0.09719327 0.086671837)
(-0.40008577 0.1349095 0.089695018)
(-0.39325513 0.17300559 0.078441655)
(-0.34346486 0.20755663 0.059449008)
(-0.27579613 0.23511726 0.04187492)
(-0.21421838 0.2534438 0.03243334)
(-0.057870023 0.011698331 0.014338889)
(-0.16906073 0.035750098 0.042578144)
(-0.27759391 0.065194736 0.067498333)
(-0.36016408 0.099620665 0.08140447)
(-0.39430066 0.13652926 0.080489472)
(-0.37303442 0.17282996 0.065905359)
(-0.31167756 0.20478302 0.045560508)
(-0.23871735 0.22897826 0.028866753)
(-0.17696354 0.24380035 0.021116963)
(-0.061363407 0.012141435 0.014133683)
(-0.17703624 0.036694795 0.041632892)
(-0.28616702 0.066148709 0.064564199)
(-0.36339708 0.099760918 0.075101149)
(-0.38665031 0.13492202 0.070377435)
(-0.35286967 0.16864733 0.053014356)
(-0.28248465 0.1973583 0.032076903)
(-0.20631188 0.21778875 0.016628657)
(-0.14580771 0.22916473 0.010848945)
(-0.06421208 0.012055731 0.013655477)
(-0.18326643 0.036205002 0.039981506)
(-0.29216822 0.064801 0.060699193)
(-0.36394841 0.096855434 0.067992941)
(-0.37731537 0.12965644 0.05988716)
(-0.33278708 0.16038721 0.040340356)
(-0.25552561 0.18558031 0.019454328)
(-0.17782302 0.20232601 0.0055948633)
(-0.11947586 0.21066401 0.0016987459)
(-0.066502284 0.011595314 0.012950426)
(-0.18800619 0.034652562 0.037718106)
(-0.2960416 0.061589888 0.056080349)
(-0.36240127 0.091285515 0.060332055)
(-0.36679135 0.12104778 0.049357686)
(-0.3131461 0.14830046 0.028213051)
(-0.23077023 0.16974724 0.0078349354)
(-0.15323094 0.18302564 -0.0041812423)
(-0.097173753 0.18900276 -0.0062656011)
(-0.068257226 0.01071698 0.01218745)
(-0.19138116 0.031887255 0.035305893)
(-0.2981052 0.056328208 0.051346891)
(-0.35930887 0.082923947 0.052782131)
(-0.35576184 0.10906976 0.039380375)
(-0.29452984 0.13250167 0.017137487)
(-0.20839393 0.15019714 -0.0025373891)
(-0.13187522 0.16044804 -0.012713367)
(-0.078310022 0.16457466 -0.013075927)
(-0.069564207 0.0093910427 0.011400572)
(-0.19371568 0.027869631 0.032876174)
(-0.29899277 0.049033075 0.046771961)
(-0.35559175 0.07181796 0.045761697)
(-0.34527813 0.093910659 0.030381674)
(-0.27784677 0.11333958 0.0074496724)
(-0.18892564 0.12745777 -0.011387166)
(-0.11373579 0.13503902 -0.019887065)
(-0.06261972 0.13778867 -0.018730557)
(-0.070513477 0.0076790838 0.010668696)
(-0.19530007 0.022760453 0.030644621)
(-0.2992255 0.039948396 0.042686658)
(-0.35198982 0.058322125 0.039654572)
(-0.33615953 0.075975727 0.022723232)
(-0.26383295 0.091267205 -0.00059110565)
(-0.17288859 0.10199531 -0.018535909)
(-0.098964818 0.10731313 -0.025605882)
(-0.050023681 0.10909058 -0.023233877)
(-0.071165282 0.0056963589 0.010055032)
(-0.19631184 0.016868705 0.028788876)
(-0.29910578 0.029545308 0.039358511)
(-0.34889058 0.043023133 0.034776153)
(-0.32886989 0.055888078 0.016704235)
(-0.25297375 0.066905149 -0.0067815456)
(-0.16087333 0.074382031 -0.023899092)
(-0.087765403 0.077877774 -0.029815062)
(-0.04053765 0.078947569 -0.026551767)
(-0.071562275 0.0035243601 0.009628178)
(-0.19684079 0.010418396 0.027494437)
(-0.29875769 0.018197105 0.037038655)
(-0.34647108 0.026418524 0.031394685)
(-0.32365759 0.034224108 0.012570279)
(-0.24549382 0.040856018 -0.010960381)
(-0.15281991 0.045243951 -0.027428556)
(-0.080251791 0.047220453 -0.032517512)
(-0.034212868 0.047769778 -0.028663782)
(-0.071747274 0.0011627645 0.0094119432)
(-0.19710437 0.0034431435 0.026847254)
(-0.29862134 0.0060400022 0.035896598)
(-0.34533299 0.0088111631 0.029736184)
(-0.32113168 0.011451867 0.010536681)
(-0.24182397 0.013693244 -0.013014484)
(-0.14885225 0.015159461 -0.029145755)
(-0.076529315 0.015813756 -0.033813952)
(-0.03107711 0.015991639 -0.029668829)
(-0.071747277 -0.0011627989 0.0094119053)
(-0.19710438 -0.0034431756 0.026847128)
(-0.29862134 -0.0060399605 0.035896471)
(-0.345333 -0.0088111336 0.02973616)
(-0.32113167 -0.011451967 0.010536682)
(-0.24182398 -0.013693376 -0.013014518)
(-0.14885226 -0.015159629 -0.029145777)
(-0.076529326 -0.015813877 -0.033814027)
(-0.031077129 -0.015991338 -0.029668905)
(-0.071562277 -0.0035243039 0.0096280748)
(-0.19684079 -0.010418284 0.027494159)
(-0.2987577 -0.018196976 0.037038399)
(-0.34647113 -0.02641847 0.031394663)
(-0.32365758 -0.034224201 0.012570281)
(-0.24549384 -0.040856187 -0.010960469)
(-0.15281993 -0.045244194 -0.0274286)
(-0.080251813 -0.047220675 -0.032517703)
(-0.034212915 -0.047769663 -0.028663964)
(-0.071165283 -0.0056962371 0.010054953)
(-0.19631185 -0.016868476 0.028788748)
(-0.29910583 -0.029545109 0.039358485)
(-0.34889067 -0.043023055 0.034776287)
(-0.32886988 -0.055888162 0.016704267)
(-0.25297379 -0.066905388 -0.0067816408)
(-0.16087335 -0.07438238 -0.023899108)
(-0.087765417 -0.077878126 -0.029815285)
(-0.040537704 -0.078947708 -0.026551957)
(-0.070513487 -0.0076790532 0.010668754)
(-0.19530011 -0.022760393 0.030644823)
(-0.29922556 -0.03994833 0.042687007)
(-0.35198988 -0.058322091 0.039654881)
(-0.33615951 -0.075975839 0.022723314)
(-0.26383301 -0.091267559 -0.00059114021)
(-0.1728886 -0.10199576 -0.018535862)
(-0.09896482 -0.10731358 -0.025606055)
(-0.050023727 -0.10909091 -0.023233998)
(-0.069564198 -0.009391089 0.011400618)
(-0.19371565 -0.027869717 0.032876228)
(-0.29899271 -0.04903309 0.046772054)
(-0.35559173 -0.071817921 0.045761803)
(-0.34527817 -0.093910811 0.030381762)
(-0.27784688 -0.11334005 0.007449732)
(-0.18892568 -0.1274583 -0.011387063)
(-0.1137358 -0.13503955 -0.019887148)
(-0.062619749 -0.13778907 -0.018730601)
(-0.068257223 -0.01071701 0.012187404)
(-0.19138116 -0.031887338 0.035305741)
(-0.29810524 -0.056328286 0.05134677)
(-0.35930899 -0.082923992 0.052782273)
(-0.35576203 -0.10906996 0.039380681)
(-0.29452999 -0.13250215 0.01713768)
(-0.20839401 -0.15019765 -0.0025372636)
(-0.13187525 -0.16044856 -0.012713378)
(-0.07831003 -0.16457499 -0.01307593)
(-0.066502302 -0.011595397 0.01295051)
(-0.18800625 -0.034652808 0.037718271)
(-0.29604164 -0.061590208 0.05608055)
(-0.36240123 -0.091285697 0.060332345)
(-0.36679143 -0.12104785 0.049357985)
(-0.31314616 -0.14830066 0.028213186)
(-0.23077033 -0.16974756 0.0078350127)
(-0.15323099 -0.18302601 -0.0041812156)
(-0.09717374 -0.18900298 -0.0062655387)
(-0.064212054 -0.012055757 0.013655477)
(-0.18326635 -0.03620512 0.039981339)
(-0.29216807 -0.064801237 0.060698693)
(-0.36394831 -0.096855639 0.067992385)
(-0.37731545 -0.12965644 0.059886966)
(-0.33278711 -0.1603872 0.040340408)
(-0.25552567 -0.18558043 0.019454475)
(-0.17782304 -0.20232619 0.0055950542)
(-0.11947584 -0.21066419 0.0016989464)
(-0.061363418 -0.012141415 0.014133616)
(-0.17703629 -0.036694793 0.041632652)
(-0.28616712 -0.066148806 0.064563808)
(-0.36339718 -0.09976107 0.075100901)
(-0.38665034 -0.13492207 0.07037752)
(-0.35286969 -0.16864736 0.053014588)
(-0.28248464 -0.1973585 0.032077274)
(-0.20631184 -0.21778893 0.016629082)
(-0.1458077 -0.22916479 0.010849125)
(-0.057870025 -0.011698374 0.014338896)
(-0.16906074 -0.035750259 0.042578146)
(-0.27759394 -0.065195083 0.067498279)
(-0.3601641 -0.099621148 0.081404427)
(-0.39430059 -0.13652967 0.080489556)
(-0.37303436 -0.17283013 0.065905695)
(-0.31167759 -0.20478324 0.045561024)
(-0.23871731 -0.22897847 0.028866988)
(-0.17696348 -0.24380023 0.021117104)
(-0.053818649 -0.011039517 0.01439226)
(-0.15947405 -0.034091845 0.043036379)
(-0.26650625 -0.062821149 0.069596393)
(-0.35416037 -0.097193412 0.086671682)
(-0.40008553 -0.13490972 0.089694903)
(-0.39325488 -0.17300575 0.078441767)
(-0.34346484 -0.20755668 0.059449272)
(-0.27579601 -0.23511726 0.041874944)
(-0.21421841 -0.25344404 0.032433705)
(-0.049500565 -0.0097798753 0.013665711)
(-0.14918918 -0.030863349 0.041367524)
(-0.25440904 -0.057993667 0.068477419)
(-0.34711042 -0.091471243 0.088340861)
(-0.40526989 -0.12916342 0.095768272)
(-0.41421682 -0.16841401 0.088972704)
(-0.37814028 -0.20497512 0.072497656)
(-0.31810399 -0.23519807 0.05452649)
(-0.25883915 -0.25634613 0.043113626)
(-0.0867405 0.0017106361 0.0015637641)
(-0.26673753 0.0055392711 0.0048373174)
(-0.46520809 0.010373266 0.0080959593)
(-0.65318418 0.015828996 0.010371955)
(-0.79136611 0.021065304 0.010474215)
(-0.84858401 0.025120512 0.0075854918)
(-0.82403539 0.027535142 0.0021078068)
(-0.7501698 0.028605404 -0.0042731887)
(-0.66849715 0.029104708 -0.010425089)
(-0.094853945 0.002081547 0.0016917265)
(-0.28798748 0.0066180945 0.0051530473)
(-0.49461772 0.012121479 0.0083827762)
(-0.68052216 0.018005327 0.01021259)
(-0.80347527 0.023272415 0.0093550341)
(-0.83595075 0.027011002 0.0052208425)
(-0.78663392 0.028779188 -0.0011725162)
(-0.69701958 0.029216024 -0.0078603739)
(-0.60915374 0.029563163 -0.013666709)
(-0.10231158 0.0022964513 0.0016262305)
(-0.30740581 0.007261537 0.0049111311)
(-0.5211677 0.013182199 0.0077755218)
(-0.70451676 0.019315612 0.0089536356)
(-0.81297817 0.024547213 0.0071839703)
(-0.82340825 0.027976872 0.0021544939)
(-0.75418685 0.02922654 -0.0046447717)
(-0.65355077 0.029345577 -0.011059955)
(-0.56190076 0.029874262 -0.015803812)
(-0.10879346 0.0024282307 0.0014994177)
(-0.32390264 0.0076354631 0.0044732155)
(-0.54290283 0.013752348 0.0068269817)
(-0.72256036 0.019926696 0.0072356412)
(-0.81708668 0.024991491 0.0045223148)
(-0.80833871 0.028047675 -0.0012967459)
(-0.72359359 0.028854645 -0.0082682573)
(-0.61583329 0.02887283 -0.014093065)
(-0.52196307 0.02949032 -0.017506877)
(-0.11407348 0.0024336928 0.0013107681)
(-0.33703247 0.0076422344 0.0038604859)
(-0.55943229 0.013710244 0.0056234192)
(-0.7345591 0.019736791 0.0052451582)
(-0.8160641 0.02449168 0.0016784027)
(-0.790761 0.027173044 -0.0047552363)
(-0.694022 0.027714991 -0.01185596)
(-0.58194509 0.027785218 -0.017002792)
(-0.4877437 0.028312187 -0.019065502)
(-0.11833413 0.0023446562 0.0010783493)
(-0.3472942 0.0073575829 0.0031232617)
(-0.57154951 0.013154965 0.0042462231)
(-0.74154927 0.018815287 0.0031182215)
(-0.81097297 0.023185454 -0.0011469427)
(-0.77140195 0.025550996 -0.0080227004)
(-0.66537029 0.026002063 -0.015203396)
(-0.55028523 0.026226204 -0.019717732)
(-0.45795741 0.02643759 -0.020514721)
(-0.12166763 0.0021662357 0.00084342461)
(-0.35499197 0.0067924829 0.0023742439)
(-0.5798404 0.012112099 0.0028632479)
(-0.74443404 0.017226231 0.0010423043)
(-0.80290206 0.021167684 -0.0038156504)
(-0.75133282 0.023203778 -0.011041496)
(-0.63832454 0.023631909 -0.018214484)
(-0.52159937 0.023897993 -0.022136828)
(-0.43208571 0.023863917 -0.0218311)
(-0.1241517 0.0018916137 0.00061508568)
(-0.36049923 0.0059372149 0.0016512991)
(-0.58514975 0.010572577 0.0015545647)
(-0.74454827 0.015035332 -0.00085796273)
(-0.79355733 0.018424085 -0.006186945)
(-0.7321602 0.020122827 -0.013666041)
(-0.61400769 0.020585944 -0.020798636)
(-0.4965169 0.020844687 -0.024180588)
(-0.41004403 0.02064395 -0.022971965)
(-0.1259373 0.0015426857 0.0004130193)
(-0.36430781 0.0048478555 0.001016417)
(-0.58838859 0.0086244458 0.00042491274)
(-0.74325079 0.012265089 -0.0024390889)
(-0.78445099 0.015034489 -0.0081992748)
(-0.71528305 0.016391975 -0.015869987)
(-0.5933022 0.01689804 -0.022937552)
(-0.47559722 0.017121279 -0.025759057)
(-0.39196194 0.016821924 -0.023845042)
(-0.12714788 0.0011410452 0.00024904817)
(-0.36679671 0.0035905891 0.00050283326)
(-0.59020759 0.0063882467 -0.0004772247)
(-0.74145997 0.0090758713 -0.0036936943)
(-0.77662469 0.011113829 -0.0097157315)
(-0.70163593 0.012114907 -0.017562007)
(-0.57651167 0.012584238 -0.024585351)
(-0.4592959 0.012746902 -0.026903525)
(-0.37807474 0.01246006 -0.024442645)
(-0.12797856 0.00070554711 0.00013333838)
(-0.36838872 0.0022192379 0.00013856569)
(-0.59113166 0.0039439716 -0.0011179216)
(-0.73972066 0.0055950738 -0.0045756324)
(-0.77071657 0.0068419443 -0.010752194)
(-0.69188978 0.0074552805 -0.018708514)
(-0.56471058 0.0077897219 -0.02569556)
(-0.44810066 0.0078703592 -0.027635907)
(-0.36864132 0.0076725848 -0.024801689)
(-0.12828986 0.00023591258 7.7180986e-05)
(-0.36900043 0.00074198625 -3.8044396e-05)
(-0.59144439 0.0013200188 -0.0014282513)
(-0.73879778 0.0018734662 -0.0050021354)
(-0.76777701 0.0022903425 -0.01125274)
(-0.68703325 0.0024968586 -0.019274177)
(-0.55878614 0.002624483 -0.026247288)
(-0.44246805 0.0026521231 -0.027986054)
(-0.36389186 0.0025883247 -0.024966714)
(-0.12828986 -0.00023590389 7.7175034e-05)
(-0.36900043 -0.00074195835 -3.8074336e-05)
(-0.59144439 -0.0013199624 -0.0014282864)
(-0.73879779 -0.0018734628 -0.0050021452)
(-0.76777703 -0.0022904945 -0.011252746)
(-0.68703329 -0.0024971401 -0.019274187)
(-0.55878619 -0.0026248587 -0.026247285)
(-0.4424681 -0.0026524485 -0.027986065)
(-0.36389191 -0.0025883757 -0.024966726)
(-0.12797856 -0.00070551899 0.00013331664)
(-0.36838872 -0.002219179 0.00013848433)
(-0.59113167 -0.0039438971 -0.0011180107)
(-0.73972071 -0.0055950646 -0.0045756565)
(-0.77071664 -0.006842093 -0.01075221)
(-0.69188989 -0.007455575 -0.018708536)
(-0.5647107 -0.0077901152 -0.02569555)
(-0.44810077 -0.0078706948 -0.027635939)
(-0.36864143 -0.0076726559 -0.024801719)
(-0.12714789 -0.0011409957 0.00024901837)
(-0.36679674 -0.0035904917 0.00050275184)
(-0.59020766 -0.0063881488 -0.0004772946)
(-0.74146008 -0.0090758552 -0.0036937021)
(-0.7766248 -0.011113974 -0.0097157473)
(-0.70163608 -0.012115224 -0.017562024)
(-0.57651181 -0.012584655 -0.02458533)
(-0.45929603 -0.012747248 -0.026903568)
(-0.3780749 -0.012460157 -0.024442683)
(-0.12593732 -0.0015426486 0.00041300909)
(-0.36430785 -0.004847779 0.0010164034)
(-0.58838869 -0.0086243691 0.00042493432)
(-0.7432509 -0.012265088 -0.0024390566)
(-0.7844511 -0.015034646 -0.0081992772)
(-0.7152832 -0.016392326 -0.015869978)
(-0.59330232 -0.016898481 -0.022937518)
(-0.47559734 -0.017121635 -0.025759095)
(-0.39196211 -0.016822042 -0.023845079)
(-0.12415171 -0.0018916041 0.00061508845)
(-0.36049925 -0.0059371886 0.0016513097)
(-0.58514979 -0.010572538 0.0015545949)
(-0.74454833 -0.015035347 -0.00085794902)
(-0.79355743 -0.018424267 -0.0061869319)
(-0.73216033 -0.020123219 -0.013665991)
(-0.61400778 -0.020586416 -0.020798585)
(-0.49651701 -0.020845063 -0.024180599)
(-0.4100442 -0.020644073 -0.022971991)
(-0.12166763 -0.0021662238 0.0008434164)
(-0.354992 -0.006792453 0.0023742177)
(-0.57984048 -0.012112058 0.0028632209)
(-0.74443413 -0.017226251 0.0010423106)
(-0.80290219 -0.021167882 -0.003815572)
(-0.75133295 -0.023204192 -0.011041393)
(-0.63832464 -0.0236324 -0.018214414)
(-0.52159949 -0.023898381 -0.022136801)
(-0.43208585 -0.023864007 -0.021831105)
(-0.11833414 -0.0023446667 0.0010783633)
(-0.34729425 -0.0073576182 0.0031232869)
(-0.57154958 -0.01315501 0.0042462766)
(-0.74154931 -0.018815367 0.0031183274)
(-0.8109731 -0.023185645 -0.0011467987)
(-0.77140211 -0.025551372 -0.0080225757)
(-0.66537046 -0.026002516 -0.015203314)
(-0.55028538 -0.026226554 -0.019717671)
(-0.45795749 -0.026437616 -0.020514703)
(-0.11407345 -0.0024336926 0.0013107667)
(-0.3370324 -0.0076422559 0.0038604446)
(-0.55943221 -0.013710296 0.0056233099)
(-0.73455908 -0.019736887 0.0052450407)
(-0.81606422 -0.024491856 0.0016784048)
(-0.79076122 -0.027173374 -0.0047551202)
(-0.69402226 -0.027715393 -0.011855832)
(-0.58194524 -0.027785511 -0.017002655)
(-0.48774372 -0.028312173 -0.019065432)
(-0.10879346 -0.0024282207 0.0014993952)
(-0.32390267 -0.0076354637 0.0044731336)
(-0.54290292 -0.013752386 0.0068268485)
(-0.72256051 -0.019926788 0.0072355946)
(-0.81708682 -0.02499167 0.0045224612)
(-0.80833895 -0.028047978 -0.0012965058)
(-0.72359381 -0.028855057 -0.0082680006)
(-0.61583338 -0.028873125 -0.014092783)
(-0.52196307 -0.029490292 -0.017506691)
(-0.10231157 -0.0022964571 0.001626217)
(-0.30740578 -0.0072615777 0.004911093)
(-0.52116768 -0.013182322 0.0077754684)
(-0.70451679 -0.019315845 0.0089536608)
(-0.81297828 -0.024547549 0.0071841364)
(-0.82340847 -0.027977242 0.002154812)
(-0.75418709 -0.029226976 -0.0046443367)
(-0.65355084 -0.029345911 -0.011059541)
(-0.56190069 -0.029874242 -0.015803513)
(-0.094853928 -0.0020815405 0.0016917239)
(-0.28798744 -0.0066180908 0.0051530517)
(-0.49461769 -0.012121528 0.008382798)
(-0.68052217 -0.018005483 0.010212673)
(-0.80347533 -0.023272709 0.0093552238)
(-0.83595085 -0.027011362 0.0052212318)
(-0.78663408 -0.028779526 -0.0011720126)
(-0.69701965 -0.029216255 -0.0078600072)
(-0.60915365 -0.029563352 -0.013666233)
(-0.086740483 -0.0017106466 0.0015637744)
(-0.26673749 -0.005539312 0.0048373484)
(-0.46520805 -0.010373363 0.0080960145)
(-0.65318417 -0.015829163 0.010372075)
(-0.79136619 -0.021065564 0.010474464)
(-0.84858417 -0.025120875 0.0075859332)
(-0.82403545 -0.027535485 0.0021082923)
(-0.75016985 -0.028605562 -0.0042725964)
(-0.66849711 -0.029104818 -0.010424702)
(-0.072693827 0.00081394187 0.00072410047)
(-0.22462722 0.0024097032 0.0020929826)
(-0.39364892 0.0040887732 0.0032377099)
(-0.5549127 0.0055193619 0.0035505105)
(-0.67257305 0.0062766426 0.0020799518)
(-0.71546039 0.0058714261 -0.0019088323)
(-0.67945667 0.004020843 -0.0082089803)
(-0.59369384 0.0009654134 -0.014959274)
(-0.49973801 -0.0021641306 -0.020140117)
(-0.079060194 0.00076100214 0.00058790847)
(-0.24155579 0.00216791 0.0016384855)
(-0.41747358 0.0035292782 0.0023115202)
(-0.57731402 0.0044911261 0.0019211098)
(-0.68176591 0.0046567919 -0.00057939045)
(-0.70136143 0.0035937571 -0.0058565734)
(-0.63995402 0.0012148096 -0.013321108)
(-0.53574057 -0.0020418215 -0.020669736)
(-0.43302358 -0.0052081693 -0.025479349)
(-0.084912722 0.00071234608 0.00046517969)
(-0.25713772 0.0019544339 0.0012355484)
(-0.43937078 0.003043571 0.0015079429)
(-0.59777757 0.0036232988 0.00055166132)
(-0.69002787 0.0033616902 -0.0027349047)
(-0.68888104 0.0019487522 -0.0089707476)
(-0.60609777 -0.00050929508 -0.017240281)
(-0.48771885 -0.0035530328 -0.024766105)
(-0.38027024 -0.0065126738 -0.028938899)
(-0.089966948 0.00065459633 0.00035603236)
(-0.27038671 0.0017299445 0.00088352219)
(-0.4575259 0.0025715104 0.0008110408)
(-0.61378537 0.002835457 -0.00062815692)
(-0.69452347 0.0022557427 -0.0045754714)
(-0.67513499 0.00064441882 -0.011597787)
(-0.57472631 -0.0017847846 -0.020468249)
(-0.4460336 -0.0046450932 -0.02788158)
(-0.33649541 -0.0073776901 -0.031425916)
(-0.09399229 0.00058841094 0.00026114985)
(-0.28076339 0.0015015712 0.00058687166)
(-0.47125435 0.0021302697 0.00023729652)
(-0.62466131 0.0021562284 -0.0015837216)
(-0.69461365 0.0014099661 -0.006064497)
(-0.65931404 -0.00027615253 -0.013728954)
(-0.54463663 -0.0026443661 -0.023016185)
(-0.40897282 -0.0053406517 -0.030239823)
(-0.29922666 -0.0076247869 -0.033135104)
(-0.097143821 0.00051298608 0.00017461634)
(-0.28864649 0.0012689892 0.00032755088)
(-0.48106882 0.0017212074 -0.00023767905)
(-0.63092907 0.0016110481 -0.0023487082)
(-0.69070161 0.00077588156 -0.0072548129)
(-0.64155 -0.00087179177 -0.015404954)
(-0.51547189 -0.0030610449 -0.024903265)
(-0.37579153 -0.005584081 -0.031930967)
(-0.2669792 -0.0073645408 -0.034368437)
(-0.099524024 0.00042674121 0.00010169453)
(-0.29433978 0.0010221073 0.00011908967)
(-0.48749758 0.0013222229 -0.00060590099)
(-0.63334085 0.0011412321 -0.0029395563)
(-0.6837798 0.00026539847 -0.0081857266)
(-0.6226867 -0.0012061042 -0.016711655)
(-0.48758349 -0.0031103161 -0.026216449)
(-0.34593514 -0.0053280594 -0.033026118)
(-0.23892802 -0.0066838022 -0.035264617)
(-0.10120871 0.00034210218 4.562457e-05)
(-0.29817831 0.00079484219 -3.3102424e-05)
(-0.49128485 0.00098550945 -0.0008661509)
(-0.63317204 0.00073642917 -0.0033542224)
(-0.67541147 -7.0891035e-05 -0.008860891)
(-0.60426291 -0.0013192872 -0.017701464)
(-0.46208584 -0.0029382475 -0.027149728)
(-0.31966435 -0.0046656615 -0.033685303)
(-0.21490578 -0.0057152096 -0.03583451)
(-0.1023401 0.00026151463 3.8815836e-06)
(-0.30060854 0.0005926812 -0.00014266037)
(-0.49322703 0.00071076631 -0.0010485725)
(-0.63156031 0.00044605314 -0.0036321164)
(-0.6669728 -0.00024185106 -0.0093030914)
(-0.58771016 -0.0012580928 -0.018351395)
(-0.44016148 -0.0025863935 -0.027776958)
(-0.29759243 -0.0038068929 -0.034113145)
(-0.195092 -0.0045872925 -0.036171753)
(-0.1030519 0.00018330158 -2.6057345e-05)
(-0.30203498 0.00040616657 -0.00021868417)
(-0.49401857 0.00046818462 -0.0011698263)
(-0.62942677 0.00024619168 -0.0038074852)
(-0.6595381 -0.00027782106 -0.0095767517)
(-0.57416567 -0.0010257405 -0.018748993)
(-0.42294397 -0.0019895889 -0.028149147)
(-0.28036053 -0.0028106805 -0.034373256)
(-0.1798029 -0.0033496957 -0.036358664)
(-0.10354663 0.00010797747 -4.5320031e-05)
(-0.30292137 0.00023526347 -0.00026646555)
(-0.49426474 0.00026258218 -0.0012443962)
(-0.62744432 0.00011647641 -0.0039124309)
(-0.65382253 -0.00021126271 -0.0097400474)
(-0.56436066 -0.00067128448 -0.018979659)
(-0.41087838 -0.0012541692 -0.028357553)
(-0.26846875 -0.0017245061 -0.034517711)
(-0.16937131 -0.0020393872 -0.036453899)
(-0.10369106 3.4811735e-05 -5.3813818e-05)
(-0.3031671 7.4023379e-05 -0.0002862584)
(-0.49420271 7.9727123e-05 -0.0012719834)
(-0.6263519 2.7611566e-05 -0.0039421006)
(-0.65093619 -8.4783945e-05 -0.0098074282)
(-0.55944555 -0.00024050874 -0.019065941)
(-0.40481745 -0.00043660822 -0.028441075)
(-0.26247664 -0.00058618537 -0.034580978)
(-0.16410796 -0.00068626067 -0.036494383)
(-0.10369106 -3.4779101e-05 -5.3809582e-05)
(-0.3031671 -7.3949117e-05 -0.0002862491)
(-0.49420271 -7.9653237e-05 -0.0012719717)
(-0.6263519 -2.7640013e-05 -0.0039420914)
(-0.65093621 8.455161e-05 -0.0098074204)
(-0.55944559 0.0002400731 -0.019065928)
(-0.40481749 0.00043606897 -0.028441063)
(-0.26247668 0.00058577187 -0.034580976)
(-0.164108 0.00068617834 -0.036494394)
(-0.10354663 -0.00010795723 -4.5311877e-05)
(-0.30292138 -0.00023521644 -0.00026645257)
(-0.49426475 -0.00026253671 -0.0012443796)
(-0.62744434 -0.00011652566 -0.0039124171)
(-0.65382259 0.00021102009 -0.0097400296)
(-0.56436075 0.00067083855 -0.018979625)
(-0.4108785 0.0012536386 -0.028357527)
(-0.26846887 0.0017241097 -0.034517709)
(-0.16937141 0.0020393291 -0.03645393)
(-0.10305191 -0.00018329062 -2.6059483e-05)
(-0.30203499 -0.00040614685 -0.00021869975)
(-0.4940186 -0.00046817327 -0.0011698471)
(-0.62942682 -0.00024626791 -0.0038074998)
(-0.6595382 0.00027756711 -0.0095767392)
(-0.5741658 0.0010252853 -0.018748947)
(-0.42294413 0.0019890743 -0.028149123)
(-0.2803607 0.0028103089 -0.034373259)
(-0.17980305 0.0033496665 -0.03635871)
(-0.10234011 -0.00026149473 3.8652124e-06)
(-0.30060857 -0.00059264888 -0.00014269857)
(-0.49322708 -0.00071075195 -0.0010486328)
(-0.63156038 -0.00044613368 -0.0036321723)
(-0.66697292 0.00024159951 -0.0093030952)
(-0.58771031 0.0012576428 -0.018351351)
(-0.44016167 0.0025858967 -0.027776947)
(-0.29759263 0.0038065416 -0.034113144)
(-0.19509218 0.0045872816 -0.036171798)
(-0.10120872 -0.00034206666 4.5616115e-05)
(-0.29817834 -0.00079477067 -3.3114522e-05)
(-0.49128492 -0.00098545482 -0.00086619153)
(-0.63317214 -0.00073649175 -0.0033542833)
(-0.6754116 7.0647451e-05 -0.008860899)
(-0.60426305 0.0013188503 -0.01770142)
(-0.46208603 0.0029377512 -0.027149713)
(-0.31966456 0.0046653166 -0.033685271)
(-0.21490598 0.0057152171 -0.035834543)
(-0.099524035 -0.00042670968 0.00010169546)
(-0.29433982 -0.0010220411 0.00011910181)
(-0.48749766 -0.0013221695 -0.00060589378)
(-0.63334095 -0.0011413112 -0.0029395825)
(-0.68377992 -0.0002656767 -0.0081857202)
(-0.62268684 0.0012056402 -0.016711588)
(-0.48758369 0.0031097717 -0.026216384)
(-0.34593535 0.0053277022 -0.033026032)
(-0.23892821 0.0066838574 -0.035264649)
(-0.097143826 -0.00051295415 0.00017460633)
(-0.28864651 -0.0012689173 0.00032754476)
(-0.48106887 -0.0017211441 -0.00023768538)
(-0.63092917 -0.0016111453 -0.0023487472)
(-0.69070175 -0.00077623876 -0.0072548016)
(-0.64155019 0.0008712305 -0.015404832)
(-0.51547211 0.0030604032 -0.024903114)
(-0.37579174 0.0055836989 -0.031930846)
(-0.26697936 0.0073646695 -0.034368481)
(-0.093992288 -0.00058837904 0.00026113763)
(-0.2807634 -0.0015014928 0.00058686907)
(-0.47125439 -0.0021301922 0.0002373324)
(-0.62466141 -0.002156324 -0.0015836485)
(-0.69461381 -0.0014103764 -0.0060643458)
(-0.65931428 0.00027551844 -0.013728718)
(-0.54463689 0.0026436912 -0.023015974)
(-0.40897303 0.0053402849 -0.030239715)
(-0.29922677 0.007624965 -0.033135131)
(-0.089966947 -0.00065458782 0.00035603297)
(-0.27038671 -0.0017299274 0.00088355459)
(-0.45752593 -0.0025715097 0.00081115751)
(-0.61378547 -0.0028356119 -0.00062795718)
(-0.69452365 -0.0022561937 -0.0045752159)
(-0.67513524 -0.00064506604 -0.011597512)
(-0.57472656 0.0017841805 -0.020468032)
(-0.44603376 0.0046448217 -0.027881448)
(-0.33649546 0.0073778816 -0.031425845)
(-0.084912715 -0.00071234823 0.00046518573)
(-0.25713771 -0.0019544474 0.0012355912)
(-0.43937078 -0.0030436098 0.0015080632)
(-0.59777763 -0.0036234645 0.00055185644)
(-0.69002803 -0.0033621154 -0.0027346655)
(-0.68888127 -0.0019493866 -0.0089704803)
(-0.60609797 0.00050872029 -0.017240017)
(-0.48771896 0.0035528457 -0.024765836)
(-0.38027024 0.0065129227 -0.028938722)
(-0.079060184 -0.00076100135 0.00058790663)
(-0.24155577 -0.0021679189 0.0016384994)
(-0.41747356 -0.0035293131 0.0023115846)
(-0.57731405 -0.0044912502 0.0019212637)
(-0.68176603 -0.0046570966 -0.00057912548)
(-0.70136162 -0.0035942509 -0.0058562211)
(-0.63995417 -0.0012152792 -0.013320785)
(-0.53574064 0.0020417262 -0.020669434)
(-0.43302347 0.0052084438 -0.025479139)
(-0.072693812 -0.00081395052 0.00072410972)
(-0.22462718 -0.0024097364 0.0020930243)
(-0.39364886 -0.0040888404 0.0032378074)
(-0.55491267 -0.0055194958 0.0035506962)
(-0.67257309 -0.006276878 0.0020802643)
(-0.7154605 -0.0058717581 -0.001908453)
(-0.67945672 -0.0040211351 -0.0082086588)
(-0.59369385 -0.00096539292 -0.014958829)
(-0.49973783 0.0021643108 -0.020139779)
(-0.07970375 0.00034911592 0.00031709353)
(-0.24559677 0.001021092 0.00089845817)
(-0.42934396 0.0016268 0.0013179336)
(-0.60407529 0.001803502 0.0012657973)
(-0.73183356 0.00098073826 0.00037516849)
(-0.78039365 -0.0013777764 -0.0016921189)
(-0.74596872 -0.0053505069 -0.0050069594)
(-0.65898175 -0.01022826 -0.0090544915)
(-0.56285248 -0.014915151 -0.01304494)
(-0.086950917 0.00039015692 0.00031224128)
(-0.26492708 0.0011050404 0.00085717735)
(-0.45687988 0.0016792704 0.0011601679)
(-0.63112911 0.0016654804 0.00085168642)
(-0.74633008 0.00040503795 -0.00048959754)
(-0.77207913 -0.0026514062 -0.0032057122)
(-0.71245405 -0.0074161361 -0.007240196)
(-0.60668892 -0.0128408 -0.011842269)
(-0.50044025 -0.017520908 -0.01612006)
(-0.093661792 0.00042679169 0.00029253294)
(-0.28287928 0.0011762236 0.00076914863)
(-0.48251108 0.0017193361 0.00092109119)
(-0.65643353 0.0015477482 0.00034833803)
(-0.76038714 -3.637646e-05 -0.0013806667)
(-0.76623203 -0.0035359892 -0.004587605)
(-0.68562966 -0.0086886997 -0.0090932949)
(-0.5650991 -0.014194558 -0.013919814)
(-0.45203031 -0.018610294 -0.017888958)
(-0.099506685 0.00042813407 0.00024832063)
(-0.29832666 0.0011482856 0.00061184104)
(-0.50418239 0.001606949 0.00057008723)
(-0.6771326 0.001261212 -0.0002919549)
(-0.7707062 -0.00058920987 -0.0023904058)
(-0.75929287 -0.0043809891 -0.0059947015)
(-0.66145683 -0.009698156 -0.01079672)
(-0.52960521 -0.015081428 -0.015609873)
(-0.41171281 -0.019105196 -0.019053838)
(-0.10423562 0.00039950842 0.00019371785)
(-0.31068272 0.0010377637 0.00043038593)
(-0.52113922 0.0013699742 0.00019669753)
(-0.69246214 0.00084660084 -0.00092319953)
(-0.77650681 -0.001202408 -0.0033166366)
(-0.75019836 -0.0051336667 -0.0072144107)
(-0.6382551 -0.010402742 -0.012131123)
(-0.49797955 -0.015462742 -0.016758172)
(-0.37719359 -0.018959852 -0.019638386)
(-0.10801387 0.00035070956 0.00013559599)
(-0.32034679 0.00087492549 0.00024601311)
(-0.53391278 0.0010614288 -0.00015583294)
(-0.70293644 0.00038711938 -0.0014747942)
(-0.77809653 -0.0017608529 -0.0040687178)
(-0.73880345 -0.0056478956 -0.0080876401)
(-0.61533505 -0.010628047 -0.012961431)
(-0.46893698 -0.015153588 -0.017281342)
(-0.34700937 -0.018119953 -0.019640487)
(-0.11093892 0.00028853823 8.3845701e-05)
(-0.32760625 0.00068245684 8.7676747e-05)
(-0.54298972 0.00072748935 -0.00044376517)
(-0.70919799 -5.3322963e-05 -0.0018930281)
(-0.77618145 -0.0021805844 -0.0045790992)
(-0.72571397 -0.0058300307 -0.0086135314)
(-0.59290713 -0.010317048 -0.013364675)
(-0.44213321 -0.014200522 -0.017308541)
(-0.32046592 -0.016644213 -0.019165042)
(-0.1130788 0.00022292704 4.228566e-05)
(-0.33276938 0.00049283417 -3.3551341e-05)
(-0.54905088 0.00042696467 -0.00064941114)
(-0.71236631 -0.00038478741 -0.0021619216)
(-0.77217531 -0.002363791 -0.004853458)
(-0.71232545 -0.0056072511 -0.0088118754)
(-0.57203019 -0.0094606135 -0.013385068)
(-0.41819566 -0.012676398 -0.016992793)
(-0.29755215 -0.014574414 -0.018439778)
(-0.11457812 0.00016097612 1.199303e-05)
(-0.33628486 0.00032788097 -0.00011668555)
(-0.55288812 0.00019829318 -0.00077745446)
(-0.71355497 -0.00055795297 -0.0023009425)
(-0.76740093 -0.0022606027 -0.0049394672)
(-0.69996879 -0.0049484801 -0.0087707072)
(-0.55381498 -0.0080503368 -0.013148569)