/*--------------------------------*- C++ -*----------------------------------*\
| =========                 |                                                 |
| \\      /  F ield         | OpenFOAM: The Open Source CFD Toolbox           |
|  \\    /   O peration     | Version:  2406                                  |
|   \\  /    A nd           | Website:  www.openfoam.com                      |
|    \\/     M anipulation  |                                                 |
\*---------------------------------------------------------------------------*/
FoamFile
{
    version     2.0;
    format      ascii;
    arch        "LSB;label=32;scalar=64";
    class       volScalarField;
    location    "10.75";
    object      p;
}
// * * * * * * * * * * * * * * * * * * * * * * * * * * * * * * * * * * * * * //

dimensions      [0 2 -2 0 0 0 0];

internalField   nonuniform List<scalar> 
34560
(
-42.510495
-42.500135
-42.487516
-42.474099
-42.460747
-42.450091
-42.444458
-42.443811
-42.446459
-42.579327
-42.567206
-42.551931
-42.534824
-42.516907
-42.501392
-42.490999
-42.486113
-42.485614
-42.640294
-42.626851
-42.609824
-42.590557
-42.569844
-42.550942
-42.536653
-42.527526
-42.522618
-42.698475
-42.683826
-42.66515
-42.643792
-42.620471
-42.59845
-42.580384
-42.566806
-42.556551
-42.752894
-42.737192
-42.717085
-42.693878
-42.6682
-42.643245
-42.621522
-42.603491
-42.58787
-42.80128
-42.784936
-42.763877
-42.739331
-42.711773
-42.684282
-42.659229
-42.636718
-42.616418
-42.844334
-42.827419
-42.805525
-42.779816
-42.750629
-42.720879
-42.692909
-42.666177
-42.641769
-42.881114
-42.863771
-42.841235
-42.814594
-42.784039
-42.752365
-42.721943
-42.691449
-42.663435
-42.911079
-42.893434
-42.87042
-42.843049
-42.811382
-42.778105
-42.745432
-42.71212
-42.681056
-42.933683
-42.915864
-42.89254
-42.864649
-42.832161
-42.797676
-42.763219
-42.727874
-42.694475
-42.948864
-42.930912
-42.907364
-42.879127
-42.846099
-42.810813
-42.775146
-42.738466
-42.7035
-42.956575
-42.938554
-42.914881
-42.886442
-42.853105
-42.817385
-42.781081
-42.743723
-42.70796
-42.956574
-42.938553
-42.91488
-42.886442
-42.853105
-42.817384
-42.781081
-42.743723
-42.70796
-42.948862
-42.930911
-42.907362
-42.879126
-42.846098
-42.810812
-42.775146
-42.738466
-42.7035
-42.93368
-42.915862
-42.892538
-42.864647
-42.83216
-42.797675
-42.763219
-42.727874
-42.694475
-42.911076
-42.89343
-42.870417
-42.843046
-42.81138
-42.778103
-42.745431
-42.712119
-42.681056
-42.881111
-42.863768
-42.841232
-42.814592
-42.784037
-42.752363
-42.721941
-42.691448
-42.663435
-42.844332
-42.827416
-42.805522
-42.779813
-42.750627
-42.720877
-42.692907
-42.666176
-42.641769
-42.801277
-42.784933
-42.763873
-42.739328
-42.711771
-42.68428
-42.659227
-42.636717
-42.616417
-42.752892
-42.73719
-42.717083
-42.693877
-42.668198
-42.643243
-42.621519
-42.603488
-42.587868
-42.698472
-42.683823
-42.665148
-42.643789
-42.620468
-42.598447
-42.580381
-42.566803
-42.556549
-42.640292
-42.62685
-42.609823
-42.590556
-42.569843
-42.55094
-42.536651
-42.527523
-42.522614
-42.579326
-42.567205
-42.55193
-42.534823
-42.516906
-42.50139
-42.490996
-42.48611
-42.485609
-42.510495
-42.500135
-42.487516
-42.474098
-42.460747
-42.45009
-42.444457
-42.443808
-42.446454
-39.622007
-39.621453
-39.620776
-39.620127
-39.619337
-39.618032
-39.615587
-39.611313
-39.605498
-39.626978
-39.626377
-39.625579
-39.624657
-39.623307
-39.621
-39.617045
-39.611039
-39.603681
-39.631304
-39.63068
-39.62983
-39.628786
-39.627122
-39.624035
-39.618741
-39.611128
-39.602424
-39.635588
-39.634945
-39.634023
-39.6328
-39.630733
-39.626837
-39.620249
-39.611051
-39.601541
-39.639551
-39.638909
-39.637928
-39.636515
-39.63401
-39.629289
-39.621386
-39.610637
-39.60085
-39.642938
-39.64234
-39.641343
-39.63978
-39.636919
-39.631426
-39.622198
-39.610302
-39.600174
-39.645921
-39.645353
-39.644342
-39.642676
-39.639481
-39.633192
-39.622628
-39.610134
-39.599455
-39.64841
-39.647876
-39.646869
-39.645116
-39.641584
-39.634523
-39.622695
-39.610081
-39.598854
-39.650343
-39.649843
-39.64884
-39.647013
-39.643194
-39.635493
-39.622771
-39.610117
-39.598443
-39.651737
-39.651271
-39.650283
-39.648397
-39.644343
-39.636124
-39.622684
-39.610029
-39.598103
-39.652649
-39.652202
-39.651223
-39.649298
-39.645081
-39.636517
-39.622749
-39.609943
-39.597864
-39.653122
-39.652683
-39.651708
-39.649791
-39.645498
-39.636736
-39.622827
-39.609919
-39.597762
-39.653121
-39.652683
-39.651707
-39.64979
-39.645498
-39.636736
-39.622827
-39.609919
-39.597761
-39.652648
-39.652201
-39.651222
-39.649297
-39.64508
-39.636517
-39.622748
-39.609942
-39.597863
-39.651735
-39.651269
-39.650281
-39.648395
-39.644341
-39.636123
-39.622683
-39.610028
-39.598102
-39.65034
-39.649841
-39.648837
-39.64701
-39.643192
-39.635491
-39.622769
-39.610115
-39.598441
-39.648406
-39.647873
-39.646865
-39.645113
-39.641581
-39.63452
-39.622692
-39.610078
-39.598852
-39.645917
-39.645349
-39.644338
-39.642673
-39.639478
-39.633188
-39.622625
-39.61013
-39.599452
-39.642935
-39.642336
-39.641339
-39.639776
-39.636915
-39.631423
-39.622194
-39.610298
-39.60017
-39.639548
-39.638906
-39.637924
-39.636512
-39.634006
-39.629285
-39.621382
-39.610633
-39.600845
-39.635584
-39.634941
-39.634019
-39.632796
-39.630729
-39.626833
-39.620244
-39.611047
-39.601536
-39.631301
-39.630677
-39.629826
-39.628782
-39.627118
-39.624031
-39.618737
-39.611123
-39.602418
-39.626974
-39.626373
-39.625575
-39.624653
-39.623303
-39.620996
-39.617041
-39.611034
-39.603675
-39.622003
-39.62145
-39.620773
-39.620123
-39.619333
-39.618028
-39.615582
-39.611308
-39.605492
-38.414534
-38.414382
-38.414176
-38.413885
-38.413714
-38.414051
-38.415258
-38.417477
-38.419883
-38.421349
-38.421137
-38.420789
-38.420225
-38.419676
-38.419624
-38.420461
-38.422242
-38.424348
-38.427484
-38.427241
-38.426827
-38.426137
-38.425421
-38.425175
-38.425812
-38.427333
-38.429251
-38.43315
-38.43288
-38.432415
-38.431627
-38.430788
-38.430394
-38.430823
-38.432072
-38.43352
-38.438344
-38.438059
-38.437559
-38.436702
-38.43576
-38.435183
-38.435362
-38.436344
-38.436776
-38.442941
-38.44266
-38.442155
-38.44126
-38.440183
-38.439403
-38.43939
-38.44015
-38.439496
-38.446864
-38.446586
-38.446066
-38.445093
-38.443879
-38.442985
-38.442853
-38.443246
-38.441798
-38.450096
-38.449823
-38.449287
-38.448248
-38.446958
-38.445995
-38.445764
-38.445557
-38.44365
-38.45273
-38.452469
-38.45193
-38.450847
-38.449492
-38.448464
-38.448182
-38.447025
-38.445053
-38.454741
-38.454493
-38.453953
-38.452845
-38.45145
-38.450378
-38.450153
-38.448179
-38.446082
-38.456081
-38.455843
-38.455308
-38.454195
-38.452777
-38.451651
-38.451326
-38.448953
-38.446751
-38.456755
-38.456524
-38.455992
-38.454874
-38.453441
-38.452282
-38.451886
-38.449333
-38.447075
-38.456755
-38.456524
-38.455991
-38.454874
-38.453441
-38.452282
-38.451885
-38.449333
-38.447075
-38.45608
-38.455843
-38.455307
-38.454194
-38.452776
-38.45165
-38.451325
-38.448952
-38.446751
-38.45474
-38.454492
-38.453952
-38.452844
-38.451448
-38.450377
-38.450152
-38.448178
-38.446081
-38.452728
-38.452467
-38.451929
-38.450846
-38.44949
-38.448462
-38.44818
-38.447023
-38.445051
-38.450094
-38.449821
-38.449285
-38.448246
-38.446956
-38.445992
-38.445761
-38.445555
-38.443647
-38.446862
-38.446584
-38.446064
-38.44509
-38.443876
-38.442982
-38.44285
-38.443243
-38.441795
-38.442938
-38.442657
-38.442152
-38.441257
-38.440179
-38.439399
-38.439386
-38.440147
-38.439494
-38.438341
-38.438056
-38.437556
-38.436698
-38.435756
-38.435179
-38.435358
-38.43634
-38.436773
-38.433146
-38.432876
-38.432411
-38.431623
-38.430783
-38.43039
-38.430818
-38.432067
-38.433517
-38.42748
-38.427236
-38.426823
-38.426132
-38.425416
-38.42517
-38.425807
-38.427329
-38.429248
-38.421344
-38.421132
-38.420784
-38.42022
-38.419671
-38.419619
-38.420456
-38.422237
-38.424344
-38.414528
-38.414376
-38.41417
-38.413879
-38.413708
-38.414045
-38.415253
-38.417473
-38.419879
-36.37761
-36.377504
-36.377414
-36.377414
-36.37749
-36.377537
-36.377388
-36.376863
-36.375752
-36.379457
-36.379313
-36.379157
-36.379046
-36.378932
-36.378682
-36.378099
-36.377037
-36.375543
-36.381522
-36.381335
-36.381129
-36.380961
-36.380764
-36.380373
-36.379565
-36.378225
-36.376525
-36.383604
-36.383374
-36.383117
-36.382895
-36.382636
-36.382154
-36.381186
-36.379609
-36.3776
-36.385602
-36.385338
-36.385035
-36.384765
-36.384448
-36.38388
-36.382761
-36.38098
-36.378839
-36.387428
-36.387141
-36.38681
-36.386504
-36.386137
-36.385495
-36.384255
-36.382277
-36.380001
-36.38904
-36.388735
-36.388379
-36.388046
-36.387644
-36.386951
-36.385611
-36.383417
-36.381066
-36.390417
-36.390099
-36.389727
-36.389375
-36.388953
-36.388227
-36.386816
-36.38447
-36.382025
-36.391539
-36.391213
-36.390831
-36.390469
-36.390037
-36.389294
-36.387858
-36.38556
-36.38286
-36.39239
-36.39206
-36.391672
-36.391305
-36.390869
-36.390119
-36.388667
-36.386385
-36.383513
-36.392961
-36.392628
-36.392236
-36.391867
-36.391432
-36.390678
-36.389216
-36.386941
-36.383959
-36.393249
-36.392914
-36.39252
-36.39215
-36.391715
-36.390961
-36.389495
-36.387222
-36.384188
-36.393249
-36.392913
-36.39252
-36.39215
-36.391715
-36.390961
-36.389495
-36.387221
-36.384188
-36.392961
-36.392627
-36.392236
-36.391867
-36.391431
-36.390678
-36.389216
-36.38694
-36.383959
-36.39239
-36.392059
-36.391672
-36.391304
-36.390869
-36.390118
-36.388667
-36.386384
-36.383512
-36.391538
-36.391213
-36.390831
-36.390468
-36.390036
-36.389293
-36.387857
-36.385559
-36.38286
-36.390416
-36.390098
-36.389727
-36.389374
-36.388952
-36.388226
-36.386815
-36.384469
-36.382024
-36.389039
-36.388734
-36.388378
-36.388045
-36.387643
-36.38695
-36.385609
-36.383416
-36.381065
-36.387427
-36.38714
-36.386808
-36.386503
-36.386135
-36.385493
-36.384253
-36.382275
-36.38
-36.3856
-36.385335
-36.385033
-36.384762
-36.384446
-36.383878
-36.382759
-36.380978
-36.378837
-36.383601
-36.383372
-36.383114
-36.382893
-36.382634
-36.382151
-36.381184
-36.379607
-36.377598
-36.381518
-36.381332
-36.381125
-36.380957
-36.38076
-36.38037
-36.379562
-36.378222
-36.376523
-36.379453
-36.379309
-36.379153
-36.379042
-36.378928
-36.378679
-36.378095
-36.377034
-36.375541
-36.377605
-36.377499
-36.377409
-36.377409
-36.377486
-36.377532
-36.377384
-36.376859
-36.375749
-34.67707
-34.677143
-34.677233
-34.67733
-34.677457
-34.677652
-34.677946
-34.678332
-34.67851
-34.677956
-34.678019
-34.67808
-34.678115
-34.678144
-34.678202
-34.678307
-34.678423
-34.67841
-34.678883
-34.678933
-34.678974
-34.678973
-34.678952
-34.678947
-34.678974
-34.679003
-34.678996
-34.679684
-34.679722
-34.679743
-34.679718
-34.679668
-34.679633
-34.67962
-34.679592
-34.679537
-34.680368
-34.680396
-34.680402
-34.680354
-34.680273
-34.680204
-34.680147
-34.680052
-34.679909
-34.680958
-34.680978
-34.680971
-34.680903
-34.680797
-34.680694
-34.680585
-34.680416
-34.68018
-34.681446
-34.681459
-34.681441
-34.681356
-34.681226
-34.681092
-34.680937
-34.680698
-34.680371
-34.681839
-34.681848
-34.68182
-34.681719
-34.681569
-34.681409
-34.681212
-34.680909
-34.680496
-34.682146
-34.682149
-34.682114
-34.682001
-34.681836
-34.681653
-34.681418
-34.681063
-34.680573
-34.682378
-34.682377
-34.682335
-34.682213
-34.682036
-34.681832
-34.681563
-34.681159
-34.680615
-34.682535
-34.682531
-34.682485
-34.682356
-34.682168
-34.681949
-34.681653
-34.681205
-34.680634
-34.682607
-34.682604
-34.682556
-34.682424
-34.682231
-34.682004
-34.681695
-34.681225
-34.68064
-34.682607
-34.682604
-34.682556
-34.682424
-34.682231
-34.682004
-34.681695
-34.681225
-34.68064
-34.682535
-34.682531
-34.682485
-34.682356
-34.682168
-34.681949
-34.681653
-34.681205
-34.680634
-34.682378
-34.682377
-34.682335
-34.682213
-34.682035
-34.681832
-34.681563
-34.681159
-34.680616
-34.682146
-34.682149
-34.682114
-34.682001
-34.681836
-34.681653
-34.681418
-34.681063
-34.680574
-34.681839
-34.681847
-34.68182
-34.681718
-34.681568
-34.681408
-34.681211
-34.680909
-34.680497
-34.681445
-34.681459
-34.681441
-34.681355
-34.681226
-34.681091
-34.680936
-34.680698
-34.680371
-34.680957
-34.680977
-34.68097
-34.680901
-34.680796
-34.680693
-34.680584
-34.680416
-34.680181
-34.680366
-34.680394
-34.680401
-34.680352
-34.680271
-34.680202
-34.680146
-34.680052
-34.67991
-34.679682
-34.679719
-34.679741
-34.679716
-34.679666
-34.679631
-34.679618
-34.679591
-34.679537
-34.678879
-34.67893
-34.67897
-34.67897
-34.678948
-34.678944
-34.67897
-34.679
-34.678995
-34.677952
-34.678014
-34.678075
-34.678111
-34.67814
-34.678198
-34.678303
-34.678419
-34.678408
-34.677065
-34.677137
-34.677228
-34.677325
-34.677452
-34.677647
-34.677941
-34.678327
-34.678506
-32.869963
-32.869996
-32.870051
-32.870139
-32.870259
-32.870397
-32.870531
-32.87064
-32.870595
-32.870603
-32.87063
-32.87067
-32.870727
-32.870792
-32.870841
-32.870841
-32.870764
-32.870586
-32.87136
-32.871379
-32.871408
-32.871447
-32.871485
-32.87149
-32.87143
-32.87129
-32.871107
-32.872093
-32.872101
-32.872118
-32.872144
-32.872165
-32.872151
-32.872062
-32.871886
-32.871668
-32.872787
-32.872786
-32.872789
-32.872799
-32.872802
-32.872767
-32.872651
-32.872436
-32.872174
-32.873431
-32.873422
-32.873414
-32.87341
-32.873397
-32.873343
-32.873198
-32.872944
-32.872637
-32.874008
-32.873992
-32.873975
-32.873962
-32.873935
-32.873862
-32.87369
-32.8734
-32.873049
-32.874511
-32.87449
-32.874467
-32.874446
-32.874408
-32.874315
-32.874117
-32.873794
-32.873404
-32.874922
-32.874899
-32.874872
-32.874844
-32.874794
-32.874686
-32.874469
-32.87412
-32.873695
-32.875232
-32.875207
-32.875177
-32.875144
-32.875087
-32.874969
-32.874739
-32.87437
-32.873918
-32.87544
-32.875413
-32.875382
-32.875345
-32.875284
-32.87516
-32.87492
-32.874539
-32.874068
-32.875542
-32.875515
-32.875483
-32.875445
-32.875381
-32.875254
-32.875012
-32.874624
-32.874143
-32.875542
-32.875515
-32.875483
-32.875445
-32.875381
-32.875254
-32.875012
-32.874624
-32.874144
-32.87544
-32.875413
-32.875382
-32.875345
-32.875284
-32.875159
-32.87492
-32.874539
-32.874068
-32.875232
-32.875207
-32.875177
-32.875144
-32.875087
-32.874969
-32.874739
-32.87437
-32.873919
-32.874922
-32.874899
-32.874872
-32.874844
-32.874794
-32.874686
-32.874469
-32.87412
-32.873696
-32.874511
-32.87449
-32.874467
-32.874446
-32.874407
-32.874315
-32.874117
-32.873795
-32.873405
-32.874007
-32.873991
-32.873974
-32.873961
-32.873934
-32.873861
-32.873689
-32.8734
-32.87305
-32.873431
-32.873421
-32.873413
-32.873408
-32.873395
-32.873341
-32.873197
-32.872944
-32.872638
-32.872785
-32.872784
-32.872787
-32.872797
-32.8728
-32.872765
-32.872649
-32.872435
-32.872175
-32.87209
-32.872099
-32.872115
-32.872141
-32.872162
-32.872148
-32.87206
-32.871884
-32.871668
-32.871356
-32.871375
-32.871404
-32.871443
-32.87148
-32.871486
-32.871426
-32.871287
-32.871105
-32.870599
-32.870625
-32.870665
-32.870722
-32.870787
-32.870836
-32.870835
-32.87076
-32.870583
-32.869958
-32.86999
-32.870045
-32.870133
-32.870253
-32.87039
-32.870524
-32.870634
-32.870589
-31.091394
-31.091419
-31.091454
-31.091496
-31.091548
-31.091603
-31.091659
-31.091712
-31.091686
-31.0917
-31.091722
-31.091747
-31.091769
-31.091785
-31.091785
-31.091761
-31.091704
-31.0916
-31.092049
-31.092067
-31.092085
-31.092096
-31.092094
-31.092069
-31.092011
-31.091925
-31.091832
-31.092372
-31.092385
-31.092397
-31.0924
-31.09239
-31.092352
-31.092282
-31.092184
-31.092084
-31.092671
-31.092679
-31.092685
-31.09268
-31.092658
-31.092607
-31.092523
-31.092412
-31.092299
-31.092939
-31.092944
-31.092944
-31.092932
-31.092899
-31.092837
-31.092741
-31.092616
-31.092487
-31.093166
-31.093168
-31.093163
-31.093145
-31.093105
-31.093035
-31.09293
-31.092793
-31.092647
-31.093356
-31.093355
-31.093346
-31.093323
-31.093277
-31.093201
-31.093089
-31.092941
-31.09278
-31.093509
-31.093505
-31.093492
-31.093464
-31.093414
-31.093335
-31.093217
-31.09306
-31.092885
-31.093625
-31.093619
-31.093603
-31.093572
-31.09352
-31.093437
-31.093314
-31.093149
-31.092963
-31.093704
-31.093696
-31.093679
-31.093646
-31.093591
-31.093506
-31.093379
-31.093209
-31.093014
-31.093743
-31.093735
-31.093716
-31.093682
-31.093626
-31.09354
-31.093411
-31.093238
-31.093039
-31.093743
-31.093735
-31.093716
-31.093682
-31.093626
-31.09354
-31.093411
-31.093239
-31.09304
-31.093704
-31.093696
-31.093679
-31.093646
-31.093591
-31.093506
-31.093379
-31.093209
-31.093014
-31.093625
-31.093619
-31.093603
-31.093572
-31.093519
-31.093437
-31.093314
-31.09315
-31.092963
-31.093509
-31.093505
-31.093492
-31.093464
-31.093414
-31.093335
-31.093216
-31.09306
-31.092886
-31.093356
-31.093354
-31.093346
-31.093322
-31.093276
-31.0932
-31.093088
-31.092941
-31.092781
-31.093165
-31.093167
-31.093162
-31.093144
-31.093104
-31.093034
-31.092929
-31.092792
-31.092648
-31.092938
-31.092943
-31.092943
-31.09293
-31.092897
-31.092835
-31.092739
-31.092615
-31.092488
-31.092669
-31.092677
-31.092682
-31.092677
-31.092655
-31.092604
-31.092521
-31.092411
-31.092299
-31.092369
-31.092382
-31.092393
-31.092396
-31.092385
-31.092348
-31.092278
-31.092182
-31.092083
-31.092044
-31.092062
-31.092079
-31.09209
-31.092088
-31.092063
-31.092007
-31.091921
-31.091829
-31.091694
-31.091715
-31.09174
-31.091763
-31.091778
-31.091778
-31.091754
-31.091698
-31.091596
-31.091387
-31.091412
-31.091446
-31.091489
-31.09154
-31.091594
-31.09165
-31.091703
-31.091679
-29.315417
-29.315429
-29.315448
-29.315474
-29.315508
-29.315549
-29.315598
-29.315655
-29.315675
-29.315612
-29.315623
-29.315637
-29.315653
-29.315668
-29.315681
-29.315688
-29.315686
-29.315662
-29.315834
-29.315843
-29.315854
-29.315863
-29.31587
-29.31587
-29.315861
-29.315844
-29.315828
-29.316043
-29.316049
-29.316056
-29.316062
-29.316064
-29.31606
-29.316046
-29.316024
-29.316006
-29.316239
-29.316242
-29.316245
-29.316246
-29.316243
-29.316234
-29.316215
-29.316188
-29.316162
-29.316419
-29.31642
-29.31642
-29.316416
-29.316409
-29.316395
-29.316371
-29.316337
-29.316303
-29.316581
-29.316579
-29.316575
-29.316568
-29.316556
-29.316539
-29.31651
-29.31647
-29.316426
-29.316722
-29.316718
-29.316712
-29.316702
-29.316687
-29.316665
-29.316631
-29.316583
-29.31653
-29.316841
-29.316835
-29.316827
-29.316815
-29.316796
-29.316769
-29.31673
-29.316677
-29.316614
-29.316932
-29.316926
-29.316916
-29.316902
-29.31688
-29.316849
-29.316807
-29.316749
-29.316679
-29.316994
-29.316987
-29.316976
-29.31696
-29.316936
-29.316904
-29.316859
-29.316797
-29.316722
-29.317025
-29.317017
-29.317006
-29.316989
-29.316964
-29.316931
-29.316885
-29.316821
-29.316743
-29.317025
-29.317017
-29.317006
-29.316989
-29.316964
-29.316931
-29.316885
-29.316821
-29.316744
-29.316994
-29.316987
-29.316976
-29.31696
-29.316936
-29.316904
-29.316859
-29.316797
-29.316722
-29.316932
-29.316926
-29.316916
-29.316901
-29.316879
-29.316849
-29.316807
-29.316749
-29.316679
-29.31684
-29.316835
-29.316827
-29.316814
-29.316795
-29.316768
-29.31673
-29.316677
-29.316615
-29.316721
-29.316717
-29.316711
-29.316701
-29.316686
-29.316663
-29.31663
-29.316583
-29.316531
-29.31658
-29.316577
-29.316574
-29.316566
-29.316555
-29.316537
-29.316508
-29.316469
-29.316426
-29.316417
-29.316418
-29.316417
-29.316414
-29.316406
-29.316392
-29.316369
-29.316336
-29.316303
-29.316236
-29.316239
-29.316242
-29.316243
-29.31624
-29.31623
-29.316212
-29.316186
-29.316162
-29.316039
-29.316045
-29.316052
-29.316057
-29.316059
-29.316055
-29.316041
-29.316022
-29.316005
-29.315828
-29.315837
-29.315848
-29.315857
-29.315863
-29.315863
-29.315855
-29.31584
-29.315826
-29.315605
-29.315616
-29.315629
-29.315645
-29.31566
-29.315673
-29.31568
-29.315679
-29.315658
-29.315408
-29.315421
-29.315439
-29.315465
-29.315499
-29.31554
-29.315589
-29.315646
-29.315667
-27.535976
-27.535981
-27.535989
-27.536
-27.536015
-27.536032
-27.536049
-27.536064
-27.536056
-27.536087
-27.53609
-27.536095
-27.5361
-27.536104
-27.536103
-27.536095
-27.536076
-27.536042
-27.536209
-27.536211
-27.536213
-27.536215
-27.536214
-27.536206
-27.536188
-27.53616
-27.53613
-27.536325
-27.536326
-27.536326
-27.536326
-27.536322
-27.536311
-27.536289
-27.536259
-27.536228
-27.536433
-27.536433
-27.536431
-27.536428
-27.536421
-27.536407
-27.536383
-27.53635
-27.536315
-27.536531
-27.536529
-27.536527
-27.536522
-27.536513
-27.536496
-27.536469
-27.536433
-27.536393
-27.536616
-27.536614
-27.53661
-27.536604
-27.536593
-27.536575
-27.536546
-27.536507
-27.536462
-27.536689
-27.536685
-27.53668
-27.536673
-27.536661
-27.536643
-27.536612
-27.53657
-27.53652
-27.536747
-27.536743
-27.536737
-27.536729
-27.536717
-27.536698
-27.536667
-27.536622
-27.536568
-27.536792
-27.536788
-27.536781
-27.536772
-27.53676
-27.53674
-27.536708
-27.536662
-27.536604
-27.536823
-27.536818
-27.536811
-27.536802
-27.536789
-27.536769
-27.536737
-27.536689
-27.536628
-27.536838
-27.536833
-27.536826
-27.536816
-27.536803
-27.536783
-27.536751
-27.536702
-27.53664
-27.536838
-27.536833
-27.536826
-27.536816
-27.536803
-27.536783
-27.536751
-27.536702
-27.53664
-27.536823
-27.536818
-27.536811
-27.536801
-27.536788
-27.536769
-27.536736
-27.536689
-27.536628
-27.536792
-27.536788
-27.536781
-27.536772
-27.536759
-27.53674
-27.536708
-27.536662
-27.536604
-27.536747
-27.536743
-27.536737
-27.536728
-27.536716
-27.536697
-27.536666
-27.536622
-27.536568
-27.536688
-27.536684
-27.536679
-27.536672
-27.53666
-27.536641
-27.536611
-27.53657
-27.536521
-27.536615
-27.536612
-27.536608
-27.536602
-27.536591
-27.536573
-27.536545
-27.536506
-27.536463
-27.536529
-27.536527
-27.536524
-27.536519
-27.53651
-27.536494
-27.536467
-27.536432
-27.536393
-27.53643
-27.536429
-27.536428
-27.536425
-27.536418
-27.536404
-27.53638
-27.536348
-27.536315
-27.536321
-27.536321
-27.536322
-27.536321
-27.536317
-27.536306
-27.536285
-27.536256
-27.536227
-27.536203
-27.536205
-27.536207
-27.536209
-27.536208
-27.5362
-27.536182
-27.536156
-27.536128
-27.53608
-27.536083
-27.536087
-27.536092
-27.536096
-27.536096
-27.536087
-27.536069
-27.536037
-27.535968
-27.535973
-27.535981
-27.535992
-27.536007
-27.536023
-27.53604
-27.536055
-27.536049
-25.760136
-25.760139
-25.760144
-25.76015
-25.760158
-25.760169
-25.760183
-25.7602
-25.760206
-25.760196
-25.760198
-25.760201
-25.760204
-25.760207
-25.760209
-25.76021
-25.76021
-25.760202
-25.760261
-25.760262
-25.760264
-25.760266
-25.760266
-25.760264
-25.760261
-25.760256
-25.760251
-25.760321
-25.760322
-25.760323
-25.760323
-25.760322
-25.76032
-25.760316
-25.76031
-25.760305
-25.760378
-25.760378
-25.760378
-25.760377
-25.760374
-25.760371
-25.760365
-25.760358
-25.760352
-25.76043
-25.760429
-25.760428
-25.760426
-25.760422
-25.760418
-25.760411
-25.760403
-25.760394
-25.760476
-25.760475
-25.760473
-25.76047
-25.760465
-25.76046
-25.760452
-25.760442
-25.760431
-25.760516
-25.760514
-25.760512
-25.760508
-25.760503
-25.760496
-25.760488
-25.760476
-25.760462
-25.760549
-25.760547
-25.760544
-25.76054
-25.760534
-25.760526
-25.760517
-25.760504
-25.760488
-25.760574
-25.760572
-25.760569
-25.760564
-25.760557
-25.76055
-25.760539
-25.760525
-25.760507
-25.760591
-25.760589
-25.760585
-25.76058
-25.760573
-25.760565
-25.760555
-25.76054
-25.76052
-25.7606
-25.760597
-25.760593
-25.760588
-25.760581
-25.760573
-25.760562
-25.760547
-25.760527
-25.7606
-25.760597
-25.760593
-25.760588
-25.760581
-25.760573
-25.760562
-25.760547
-25.760527
-25.760591
-25.760589
-25.760585
-25.76058
-25.760573
-25.760565
-25.760554
-25.760539
-25.76052
-25.760574
-25.760572
-25.760568
-25.760563
-25.760557
-25.760549
-25.760539
-25.760525
-25.760507
-25.760549
-25.760547
-25.760544
-25.760539
-25.760533
-25.760526
-25.760516
-25.760504
-25.760488
-25.760515
-25.760514
-25.760511
-25.760507
-25.760502
-25.760495
-25.760487
-25.760476
-25.760463
-25.760475
-25.760473
-25.760471
-25.760468
-25.760464
-25.760458
-25.760451
-25.760441
-25.760431
-25.760428
-25.760427
-25.760426
-25.760423
-25.76042
-25.760415
-25.760409
-25.760402
-25.760394
-25.760375
-25.760375
-25.760375
-25.760373
-25.760371
-25.760368
-25.760363
-25.760357
-25.760351
-25.760318
-25.760318
-25.760319
-25.760319
-25.760318
-25.760316
-25.760312
-25.760307
-25.760303
-25.760256
-25.760258
-25.760259
-25.76026
-25.76026
-25.760259
-25.760257
-25.760252
-25.760249
-25.76019
-25.760192
-25.760195
-25.760198
-25.760201
-25.760203
-25.760204
-25.760204
-25.760198
-25.760129
-25.760132
-25.760137
-25.760143
-25.760151
-25.760162
-25.760175
-25.760192
-25.7602
-23.982907
-23.982908
-23.982909
-23.982912
-23.982916
-23.982921
-23.982926
-23.982932
-23.982931
-23.982941
-23.982942
-23.982943
-23.982943
-23.982944
-23.982944
-23.982942
-23.982938
-23.982929
-23.982978
-23.982978
-23.982978
-23.982978
-23.982978
-23.982976
-23.982971
-23.982964
-23.982957
-23.983013
-23.983013
-23.983013
-23.983012
-23.983011
-23.983008
-23.983002
-23.982995
-23.982987
-23.983046
-23.983045
-23.983044
-23.983043
-23.983041
-23.983037
-23.983031
-23.983023
-23.983014
-23.983075
-23.983074
-23.983073
-23.983071
-23.983069
-23.983065
-23.983058
-23.983049
-23.983038
-23.983101
-23.9831
-23.983098
-23.983096
-23.983093
-23.983089
-23.983082
-23.983072
-23.98306
-23.983123
-23.983122
-23.98312
-23.983118
-23.983114
-23.98311
-23.983102
-23.983092
-23.983078
-23.983141
-23.98314
-23.983138
-23.983135
-23.983132
-23.983127
-23.983119
-23.983108
-23.983093
-23.983155
-23.983153
-23.983151
-23.983148
-23.983145
-23.98314
-23.983132
-23.98312
-23.983104
-23.983164
-23.983162
-23.98316
-23.983157
-23.983154
-23.983149
-23.983141
-23.983128
-23.983112
-23.983169
-23.983167
-23.983165
-23.983162
-23.983158
-23.983153
-23.983145
-23.983133
-23.983116
-23.983169
-23.983167
-23.983165
-23.983162
-23.983158
-23.983153
-23.983145
-23.983133
-23.983116
-23.983164
-23.983162
-23.98316
-23.983157
-23.983153
-23.983148
-23.98314
-23.983128
-23.983112
-23.983154
-23.983153
-23.98315
-23.983148
-23.983144
-23.983139
-23.983132
-23.98312
-23.983104
-23.98314
-23.983139
-23.983137
-23.983134
-23.983131
-23.983126
-23.983118
-23.983107
-23.983093
-23.983122
-23.983121
-23.983119
-23.983116
-23.983113
-23.983108
-23.983101
-23.983091
-23.983078
-23.9831
-23.983098
-23.983097
-23.983095
-23.983092
-23.983087
-23.98308
-23.983071
-23.98306
-23.983073
-23.983072
-23.983071
-23.983069
-23.983067
-23.983062
-23.983056
-23.983047
-23.983038
-23.983043
-23.983043
-23.983042
-23.98304
-23.983038
-23.983035
-23.983029
-23.983021
-23.983013
-23.98301
-23.98301
-23.983009
-23.983009
-23.983007
-23.983004
-23.982999
-23.982993
-23.982986
-23.982974
-23.982974
-23.982975
-23.982975
-23.982974
-23.982972
-23.982968
-23.982962
-23.982955
-23.982937
-23.982937
-23.982938
-23.982939
-23.98294
-23.98294
-23.982938
-23.982934
-23.982927
-23.982902
-23.982903
-23.982905
-23.982907
-23.982911
-23.982916
-23.982921
-23.982927
-23.982927
-22.206526
-22.206526
-22.206527
-22.206529
-22.206531
-22.206534
-22.206537
-22.206541
-22.206543
-22.206544
-22.206544
-22.206545
-22.206545
-22.206546
-22.206546
-22.206546
-22.206545
-22.206543
-22.206563
-22.206563
-22.206563
-22.206563
-22.206563
-22.206562
-22.206561
-22.206559
-22.206557
-22.20658
-22.20658
-22.20658
-22.20658
-22.20658
-22.206579
-22.206577
-22.206575
-22.206573
-22.206597
-22.206596
-22.206596
-22.206596
-22.206595
-22.206594
-22.206592
-22.206589
-22.206587
-22.206611
-22.206611
-22.206611
-22.20661
-22.206609
-22.206607
-22.206605
-22.206602
-22.206599
-22.206624
-22.206624
-22.206623
-22.206623
-22.206621
-22.20662
-22.206617
-22.206614
-22.20661
-22.206636
-22.206635
-22.206634
-22.206633
-22.206632
-22.20663
-22.206628
-22.206624
-22.206619
-22.206645
-22.206644
-22.206643
-22.206642
-22.206641
-22.206639
-22.206636
-22.206632
-22.206627
-22.206652
-22.206651
-22.20665
-22.206649
-22.206647
-22.206645
-22.206642
-22.206638
-22.206633
-22.206656
-22.206656
-22.206655
-22.206653
-22.206652
-22.20665
-22.206647
-22.206642
-22.206636
-22.206659
-22.206658
-22.206657
-22.206656
-22.206654
-22.206652
-22.206649
-22.206644
-22.206638
-22.206659
-22.206658
-22.206657
-22.206655
-22.206654
-22.206652
-22.206649
-22.206644
-22.206638
-22.206656
-22.206655
-22.206654
-22.206653
-22.206651
-22.206649
-22.206646
-22.206642
-22.206636
-22.206651
-22.20665
-22.20665
-22.206648
-22.206646
-22.206645
-22.206642
-22.206638
-22.206632
-22.206644
-22.206643
-22.206642
-22.206641
-22.20664
-22.206638
-22.206635
-22.206631
-22.206626
-22.206635
-22.206634
-22.206633
-22.206632
-22.206631
-22.206629
-22.206626
-22.206623
-22.206618
-22.206623
-22.206623
-22.206622
-22.206621
-22.20662
-22.206618
-22.206616
-22.206613
-22.206609
-22.20661
-22.206609
-22.206609
-22.206608
-22.206607
-22.206605
-22.206603
-22.206601
-22.206598
-22.206595
-22.206594
-22.206594
-22.206594
-22.206593
-22.206591
-22.20659
-22.206587
-22.206585
-22.206578
-22.206578
-22.206578
-22.206578
-22.206577
-22.206576
-22.206575
-22.206573
-22.206571
-22.20656
-22.20656
-22.206561
-22.206561
-22.20656
-22.20656
-22.206559
-22.206557
-22.206556
-22.206541
-22.206542
-22.206542
-22.206543
-22.206543
-22.206543
-22.206544
-22.206543
-22.206541
-22.206523
-22.206524
-22.206525
-22.206526
-22.206528
-22.206531
-22.206535
-22.20654
-22.206541
-20.429872
-20.429872
-20.429872
-20.429873
-20.429874
-20.429875
-20.429876
-20.429877
-20.429877
-20.429882
-20.429882
-20.429882
-20.429882
-20.429882
-20.429882
-20.429881
-20.42988
-20.429878
-20.429892
-20.429892
-20.429892
-20.429892
-20.429892
-20.429891
-20.42989
-20.429889
-20.429887
-20.429903
-20.429902
-20.429902
-20.429902
-20.429902
-20.429901
-20.4299
-20.429898
-20.429896
-20.429912
-20.429912
-20.429911
-20.429911
-20.42991
-20.429909
-20.429908
-20.429906
-20.429903
-20.42992
-20.42992
-20.42992
-20.429919
-20.429918
-20.429917
-20.429916
-20.429913
-20.42991
-20.429928
-20.429927
-20.429927
-20.429926
-20.429925
-20.429924
-20.429923
-20.42992
-20.429917
-20.429934
-20.429934
-20.429933
-20.429932
-20.429932
-20.42993
-20.429928
-20.429926
-20.429922
-20.429939
-20.429939
-20.429938
-20.429937
-20.429936
-20.429935
-20.429933
-20.42993
-20.429926
-20.429943