/*--------------------------------*- C++ -*----------------------------------*\
| =========                 |                                                 |
| \\      /  F ield         | OpenFOAM: The Open Source CFD Toolbox           |
|  \\    /   O peration     | Version:  2406                                  |
|   \\  /    A nd           | Website:  www.openfoam.com                      |
|    \\/     M anipulation  |                                                 |
\*---------------------------------------------------------------------------*/
FoamFile
{
    version     2.0;
    format      ascii;
    arch        "LSB;label=32;scalar=64";
    class       volVectorField;
    location    "10.75";
    object      U;
}
// * * * * * * * * * * * * * * * * * * * * * * * * * * * * * * * * * * * * * //

dimensions      [0 1 -1 0 0 0 0];

internalField   nonuniform List<vector> 
34560
(
(-0.051923944 0.0099587022 0.014379296)
(-0.15737955 0.03144711 0.043707517)
(-0.27021702 0.059163744 0.072738914)
(-0.37205497 0.09340538 0.094597276)
(-0.43972427 0.13199391 0.10370185)
(-0.45699797 0.17235891 0.098020562)
(-0.42680201 0.21018624 0.081933816)
(-0.37002821 0.24170555 0.063665225)
(-0.31200047 0.26412591 0.051546074)
(-0.056469277 0.01125764 0.01520784)
(-0.16844829 0.034789076 0.045696133)
(-0.28380905 0.064192066 0.074387233)
(-0.38124414 0.099414432 0.093585313)
(-0.43698702 0.138051 0.098287276)
(-0.43810685 0.17734993 0.0880343)
(-0.39367734 0.21315179 0.069161305)
(-0.32850353 0.24206449 0.050874898)
(-0.26732413 0.26170073 0.040440318)
(-0.060719611 0.011919495 0.015213027)
(-0.17874833 0.03646575 0.045435904)
(-0.29629439 0.066618277 0.07263365)
(-0.38921786 0.1019254 0.088741928)
(-0.43334688 0.13982657 0.089518656)
(-0.41970495 0.17729051 0.075799152)
(-0.36299808 0.21050923 0.055317641)
(-0.2916138 0.23619469 0.037608725)
(-0.22905609 0.2524763 0.028785749)
(-0.064383926 0.012368053 0.015065356)
(-0.18735409 0.037428982 0.044676249)
(-0.30610482 0.067608832 0.070003366)
(-0.39416951 0.10210065 0.08279292)
(-0.42746102 0.13825524 0.079731812)
(-0.4010612 0.17307125 0.063082879)
(-0.33459082 0.20303778 0.041726969)
(-0.25913419 0.22504919 0.025167749)
(-0.19657713 0.23790264 0.018340726)
(-0.067365255 0.012278952 0.01463479)
(-0.19410467 0.036932714 0.043176391)
(-0.31316017 0.066250109 0.066378796)
(-0.39617756 0.099153395 0.075953509)
(-0.41955669 0.13292571 0.069488473)
(-0.3821649 0.16464025 0.050524446)
(-0.30814513 0.19104175 0.028909293)
(-0.23036559 0.20930951 0.013874405)
(-0.16924356 0.21903024 0.0091506884)
(-0.06975467 0.011802961 0.013962046)
(-0.19926237 0.035337325 0.041020768)
(-0.31790309 0.062968338 0.061925911)
(-0.39582179 0.093441383 0.068486499)
(-0.41022654 0.12410421 0.05911625)
(-0.3634131 0.15227851 0.038466913)
(-0.28359968 0.17496416 0.017173085)
(-0.2048054 0.18965149 0.0038585329)
(-0.14609859 0.19669304 0.0011087029)
(-0.071577651 0.010900306 0.013225884)
(-0.20294707 0.032500615 0.038695832)
(-0.32062944 0.057588605 0.057313445)
(-0.39364843 0.0848502 0.061080039)
(-0.40017974 0.11180678 0.049199553)
(-0.34543689 0.13612776 0.027307085)
(-0.26126551 0.15508582 0.0067169028)
(-0.18236432 0.1665551 -0.0047591202)
(-0.12649016 0.17136577 -0.0057915543)
(-0.072921133 0.0095455076 0.012460923)
(-0.20548398 0.028392174 0.03633433)
(-0.32197724 0.050118497 0.052830712)
(-0.39057678 0.073480671 0.054155345)
(-0.39038191 0.096253011 0.040227803)
(-0.32916357 0.11645244 0.017453766)
(-0.24175414 0.13168344 -0.0022848603)
(-0.1634463 0.14036785 -0.01193598)
(-0.11020001 0.14349867 -0.011511767)
(-0.073885511 0.0078005804 0.011745459)
(-0.20719351 0.023174994 0.034155415)
(-0.32252165 0.040816114 0.048818144)
(-0.38740111 0.059671114 0.048126333)
(-0.38170622 0.077837028 0.032620201)
(-0.31535906 0.093720485 0.0093003911)
(-0.22557045 0.1053281 -0.0096377763)
(-0.14824246 0.1116542 -0.017689886)
(-0.097157012 0.1136197 -0.016029114)
(-0.074542975 0.0057815215 0.011143568)
(-0.20828632 0.017163078 0.032338438)
(-0.32261856 0.030168613 0.045548171)
(-0.38460101 0.044005399 0.043313723)
(-0.37470361 0.057220001 0.026668811)
(-0.30453309 0.068651419 0.0030534886)
(-0.21307463 0.076810935 -0.015189247)
(-0.13669737 0.081081684 -0.0219692)
(-0.087339703 0.082238807 -0.019323314)
(-0.074947998 0.0035745673 0.010725821)
(-0.20887791 0.010593977 0.031073283)
(-0.32242383 0.018572702 0.04327106)
(-0.38238342 0.027009465 0.039990052)
(-0.36966696 0.035017184 0.022602566)
(-0.29700827 0.041892652 -0.0011474417)
(-0.20453523 0.04672671 -0.018859713)
(-0.12891412 0.049173027 -0.024745262)
(-0.080786724 0.049767943 -0.021413089)
(-0.075129832 0.0011787046 0.010514423)
(-0.209157 0.00349912 0.030441827)
(-0.32234578 0.0061620735 0.042152962)
(-0.38133019 0.0090042009 0.038367002)
(-0.36721324 0.01171096 0.020613459)
(-0.29329544 0.014033817 -0.0032040486)
(-0.20029367 0.015658044 -0.020651441)
(-0.12504318 0.016469787 -0.026086278)
(-0.077532317 0.016663379 -0.02240785)
(-0.075129836 -0.0011787608 0.01051446)
(-0.209157 -0.0034992384 0.030441825)
(-0.32234579 -0.0061621929 0.042152943)
(-0.38133021 -0.0090044058 0.038367003)
(-0.36721323 -0.011711362 0.020613437)
(-0.29329544 -0.014034247 -0.003204112)
(-0.20029368 -0.015658484 -0.020651466)
(-0.12504319 -0.016470163 -0.026086265)
(-0.077532323 -0.016663671 -0.022407804)
(-0.074947999 -0.0035746036 0.010725845)
(-0.20887791 -0.010594072 0.031073166)
(-0.32242384 -0.018572856 0.043270948)
(-0.38238347 -0.02700973 0.039990048)
(-0.36966694 -0.035017625 0.022602505)
(-0.29700829 -0.041893186 -0.0011476096)
(-0.20453526 -0.046727291 -0.018859781)
(-0.12891414 -0.049173506 -0.024745249)
(-0.08078674 -0.049768216 -0.021413015)
(-0.074542966 -0.0057815411 0.011143518)
(-0.20828631 -0.017163185 0.032338232)
(-0.32261858 -0.03016885 0.045547977)
(-0.3846011 -0.044005712 0.043313626)
(-0.37470357 -0.057220423 0.026668674)
(-0.30453312 -0.068652068 0.0030532948)
(-0.21307465 -0.076811707 -0.015189324)
(-0.13669739 -0.081082319 -0.021969242)
(-0.08733973 -0.08223909 -0.019323328)
(-0.073885505 -0.0078005459 0.011745448)
(-0.2071935 -0.023174967 0.034155361)
(-0.32252167 -0.040816201 0.048817919)
(-0.38740115 -0.059671263 0.048126024)
(-0.38170618 -0.077837309 0.032620028)
(-0.31535913 -0.093721145 0.0093003203)
(-0.22557048 -0.10532894 -0.0096378224)
(-0.14824248 -0.11165493 -0.017690016)
(-0.097157051 -0.11362006 -0.016029251)
(-0.072921126 -0.0095454297 0.012460987)
(-0.20548395 -0.028391999 0.036334406)
(-0.32197717 -0.050118377 0.05283057)
(-0.39057676 -0.073480696 0.054155159)
(-0.39038195 -0.096253225 0.0402279)
(-0.3291637 -0.116453 0.01745392)
(-0.2417542 -0.13168415 -0.0022848744)
(-0.16344634 -0.14036857 -0.011936141)
(-0.11020005 -0.14349915 -0.011511943)
(-0.071577645 -0.010900291 0.013225915)
(-0.20294706 -0.032500575 0.038695891)
(-0.32062943 -0.057588619 0.057313513)
(-0.39364849 -0.0848504 0.061080157)
(-0.40017994 -0.11180708 0.049199798)
(-0.34543707 -0.1361282 0.027307258)
(-0.26126562 -0.15508637 0.0067169217)
(-0.18236441 -0.16655579 -0.0047591421)
(-0.1264902 -0.17136631 -0.0057916767)
(-0.069754692 -0.011802955 0.013962122)
(-0.19926243 -0.035337293 0.041020987)
(-0.31790313 -0.062968261 0.061926181)
(-0.39582176 -0.093441387 0.068486616)
(-0.41022666 -0.12410435 0.05911631)
(-0.36341318 -0.15227882 0.038467038)
(-0.28359981 -0.17496473 0.01717327)
(-0.2048055 -0.18965219 0.0038587088)
(-0.14609861 -0.19669342 0.0011086558)
(-0.067365239 -0.012279001 0.014634838)
(-0.19410461 -0.0369328 0.043176541)
(-0.31316004 -0.066250158 0.066378969)
(-0.39617744 -0.09915344 0.07595373)
(-0.41955672 -0.13292585 0.069488876)
(-0.38216488 -0.16464044 0.050524877)
(-0.30814518 -0.19104222 0.028909657)
(-0.23036562 -0.20931002 0.01387452)
(-0.16924357 -0.21903053 0.0091507564)
(-0.06438393 -0.01236808 0.01506534)
(-0.18735411 -0.037429028 0.044676244)
(-0.30610488 -0.06760888 0.070003346)
(-0.39416957 -0.10210067 0.082792991)
(-0.427461 -0.13825534 0.0797319)
(-0.40106121 -0.17307135 0.063083015)
(-0.3345908 -0.20303795 0.041727175)
(-0.25913416 -0.2250494 0.025167817)
(-0.19657716 -0.23790318 0.018341037)
(-0.060719613 -0.011919527 0.015213034)
(-0.17874834 -0.036465819 0.045435941)
(-0.29629443 -0.066618307 0.072633734)
(-0.38921788 -0.10192524 0.088742173)
(-0.43334679 -0.13982637 0.08951893)
(-0.41970487 -0.17729042 0.075799459)
(-0.36299811 -0.21050917 0.055317851)
(-0.29161377 -0.23619479 0.03760913)
(-0.22905601 -0.25247664 0.028786267)
(-0.056469257 -0.011257662 0.015207834)
(-0.16844824 -0.034789136 0.045696134)
(-0.28380897 -0.064192189 0.074387169)
(-0.381244 -0.099414424 0.09358532)
(-0.43698673 -0.13805084 0.098287296)
(-0.43810653 -0.17734981 0.088034244)
(-0.39367731 -0.21315173 0.06916143)
(-0.32850341 -0.24206463 0.050875467)
(-0.26732418 -0.26170113 0.040440722)
(-0.051923929 -0.009958657 0.014379258)
(-0.15737952 -0.031446988 0.043707431)
(-0.27021698 -0.059163625 0.072738764)
(-0.37205494 -0.093405255 0.094597218)
(-0.43972423 -0.13199384 0.10370194)
(-0.45699794 -0.17235897 0.098020819)
(-0.426802 -0.2101864 0.081934434)
(-0.37002809 -0.24170572 0.06366589)
(-0.31200059 -0.26412639 0.051546533)
(-0.089090351 0.001675032 0.0015361563)
(-0.27469719 0.0054245358 0.0047680816)
(-0.48066281 0.010153037 0.0080294297)
(-0.67793594 0.015471729 0.010406683)
(-0.82657481 0.020557195 0.010760553)
(-0.89412014 0.0244789 0.008266045)
(-0.87826816 0.026863247 0.0032842063)
(-0.81015559 0.027965997 -0.002638324)
(-0.73138322 0.02824418 -0.0085053874)
(-0.097447628 0.0020371214 0.0016613479)
(-0.29676616 0.0064811986 0.0050817114)
(-0.51161979 0.011866574 0.0083346509)
(-0.7076016 0.017605986 0.010316443)
(-0.84165422 0.0227173 0.0097848744)
(-0.88466102 0.026300991 0.0061643216)
(-0.84348368 0.028088571 0.00034106478)
(-0.75874176 0.02846975 -0.0057351534)
(-0.67343377 0.028390452 -0.011255923)
(-0.10512188 0.0022430435 0.0015954447)
(-0.31691938 0.0070986004 0.0048458557)
(-0.53956463 0.012884153 0.0077567109)
(-0.73368189 0.018858607 0.0091453908)
(-0.85373119 0.023929542 0.0077877841)
(-0.87474483 0.027260826 0.0033178885)
(-0.81303118 0.028511957 -0.0028141508)
(-0.71655734 0.028340149 -0.008454665)
(-0.62786435 0.028186012 -0.012998078)
(-0.11181284 0.0023702774 0.0014709633)
(-0.33412236 0.0074580325 0.0044187366)
(-0.56263631 0.01342585 0.0068426546)
(-0.75372617 0.019424946 0.0075122566)
(-0.86032302 0.02432114 0.0052772741)
(-0.86202252 0.027327181 0.00010997086)
(-0.78412776 0.028074224 -0.0060770583)
(-0.67999645 0.027534078 -0.011109444)
(-0.58969508 0.027528273 -0.014461237)
(-0.11727091 0.002366716 0.0012825383)
(-0.34786099 0.0074396252 0.0038129668)
(-0.58032542 0.01334796 0.0056691093)
(-0.76745881 0.019194119 0.00560993)
(-0.86133547 0.023833043 0.0025733547)
(-0.84640423 0.026485621 -0.003137816)
(-0.75602617 0.026853574 -0.0092280069)
(-0.64730583 0.026201215 -0.01367459)
(-0.55641104 0.026384541 -0.01594799)
(-0.12168646 0.0022728735 0.0010552114)
(-0.35865381 0.0071426032 0.0030940764)
(-0.59345118 0.012778084 0.0043435067)
(-0.77593116 0.018280921 0.0035733753)
(-0.85802891 0.022473258 -0.00011817614)
(-0.82877116 0.024786516 -0.0061920443)
(-0.72876569 0.024986926 -0.012165302)
(-0.61765087 0.024469437 -0.016022988)
(-0.52728643 0.024674561 -0.017355592)
(-0.12516533 0.0020953912 0.00082728534)
(-0.36684652 0.0065790417 0.0023678494)
(-0.60268177 0.011731235 0.0030132472)
(-0.78021055 0.016663422 0.0015891846)
(-0.85158487 0.020443938 -0.0026335378)
(-0.81021318 0.02239107 -0.0089297906)
(-0.70292426 0.02245111 -0.01482605)
(-0.59066925 0.022183954 -0.018166203)
(-0.50189088 0.022347279 -0.01860208)
(-0.1277725 0.0018306931 0.00060704476)
(-0.372777 0.0057524133 0.0016733554)
(-0.60880331 0.010246612 0.0017664597)
(-0.78156931 0.014516112 -0.0002084241)
(-0.84363418 0.017757045 -0.0048455542)
(-0.79230006 0.01936924 -0.011282022)
(-0.67954143 0.019400744 -0.017134456)
(-0.56656186 0.019344509 -0.020062904)
(-0.48012851 0.019430514 -0.019637306)
(-0.12964942 0.0014941264 0.00041223794)
(-0.37690296 0.0047021951 0.0010602593)
(-0.61265153 0.0083766714 0.00067814295)
(-0.7812142 0.011858507 -0.0017483688)
(-0.83564785 0.014490636 -0.0066982854)
(-0.77641059 0.015771532 -0.013225508)
(-0.65962625 0.015836919 -0.019034513)
(-0.54613351 0.015867132 -0.021603994)
(-0.4621974 0.015883606 -0.020439987)
(-0.13092166 0.0011033619 0.00025370765)
(-0.37960972 0.003476256 0.00056223549)
(-0.61489186 0.0061852011 -0.00019154929)
(-0.78004897 0.0087903207 -0.002964532)
(-0.82865189 0.010745921 -0.0081270171)
(-0.76355268 0.011683842 -0.014682766)
(-0.64396054 0.011780901 -0.020442748)
(-0.53020374 0.011792356 -0.022751538)
(-0.4484052 0.011775382 -0.021033333)
(-0.13180187 0.00068297144 0.00014192569)
(-0.38136402 0.0021505917 0.00020872159)
(-0.61611148 0.0038235484 -0.00081161084)
(-0.77872855 0.0054361393 -0.0038222767)
(-0.82330439 0.00664555 -0.0091348049)
(-0.75435624 0.007221872 -0.015692782)
(-0.63307634 0.0073224387 -0.021360533)
(-0.51926855 0.0072895782 -0.023450212)
(-0.4390306 0.0072561542 -0.021398659)
(-0.13212787 0.00022799455 8.7944992e-05)
(-0.38203274 0.0007183115 3.7552727e-05)
(-0.61654052 0.0012794322 -0.0011123557)
(-0.77798571 0.0018221283 -0.0042149024)
(-0.82062049 0.0022327169 -0.0096623571)
(-0.74977015 0.0024228126 -0.016196962)
(-0.62762904 0.0024676547 -0.021811104)
(-0.51377001 0.0024569083 -0.023775174)
(-0.43430985 0.0024485588 -0.021568595)
(-0.13212787 -0.00022800631 8.795939e-05)
(-0.38203274 -0.00071833581 3.7559871e-05)
(-0.61654052 -0.0012794697 -0.001112364)
(-0.77798573 -0.0018222704 -0.0042149084)
(-0.82062052 -0.0022330646 -0.0096623594)
(-0.7497702 -0.0024233313 -0.016196971)
(-0.62762909 -0.0024682586 -0.021811102)
(-0.51377006 -0.0024574495 -0.023775164)
(-0.43430988 -0.0024488626 -0.021568581)
(-0.13180187 -0.00068297901 0.00014193829)
(-0.38136403 -0.0021506059 0.00020869301)
(-0.6161115 -0.0038235905 -0.00081165161)
(-0.77872861 -0.0054363134 -0.0038222789)
(-0.82330445 -0.0066459449 -0.0091347988)
(-0.75435636 -0.0072224592 -0.015692801)
(-0.63307647 -0.0073231242 -0.021360524)
(-0.51926868 -0.0072901868 -0.023450187)
(-0.4390307 -0.0072564929 -0.021398627)
(-0.13092166 -0.0011033687 0.00025369245)
(-0.37960973 -0.0034762852 0.00056215981)
(-0.61489189 -0.0061852884 -0.00019160417)
(-0.78004905 -0.0087905408 -0.0029645243)
(-0.82865198 -0.010746351 -0.0081270055)
(-0.76355281 -0.011684503 -0.014682778)
(-0.64396069 -0.011781692 -0.020442722)
(-0.5302039 -0.011793057 -0.022751508)
(-0.44840535 -0.01177577 -0.021033287)
(-0.12964941 -0.0014941301 0.00041223428)
(-0.37690295 -0.0047022266 0.0010602286)
(-0.61265156 -0.0083767616 0.00067810396)
(-0.78121427 -0.011858698 -0.0017484016)
(-0.83564792 -0.014491024 -0.0066982769)
(-0.77641071 -0.015772196 -0.01322547)
(-0.65962638 -0.015837748 -0.019034453)
(-0.54613367 -0.015867875 -0.021603961)
(-0.46219759 -0.015884018 -0.020439922)
(-0.1277725 -0.0018306756 0.00060705881)
(-0.37277699 -0.0057523898 0.0016733478)
(-0.60880332 -0.010246625 0.0017663913)
(-0.78156933 -0.014516228 -0.00020848504)
(-0.84363425 -0.017757359 -0.0048454842)
(-0.79230016 -0.019369825 -0.011281893)
(-0.67954153 -0.019401491 -0.017134353)
(-0.56656201 -0.019345206 -0.020062852)
(-0.48012871 -0.019430903 -0.019637229)
(-0.12516534 -0.0020953725 0.00082729289)
(-0.36684654 -0.0065790012 0.0023678683)
(-0.60268181 -0.011731239 0.0030132514)
(-0.7802106 -0.016663556 0.0015892291)
(-0.85158496 -0.020444237 -0.0026333937)
(-0.81021329 -0.022391571 -0.0089296172)
(-0.70292438 -0.022451747 -0.014825901)
(-0.59066942 -0.022184573 -0.018166079)
(-0.50189105 -0.022347595 -0.018601994)
(-0.12168647 -0.0022728587 0.0010552391)
(-0.35865384 -0.0071425634 0.0030941634)
(-0.5934512 -0.012778061 0.0043436164)
(-0.77593115 -0.018281015 0.0035734429)
(-0.85802901 -0.022473507 -0.00011809844)
(-0.82877132 -0.024786963 -0.0061918729)
(-0.72876588 -0.024987517 -0.012165065)
(-0.61765106 -0.024469995 -0.01602277)
(-0.52728653 -0.024674747 -0.017355457)
(-0.1172709 -0.0023666984 0.0012825497)
(-0.34786097 -0.0074395726 0.003813006)
(-0.58032538 -0.013347898 0.0056691434)
(-0.76745881 -0.019194166 0.0056099468)
(-0.86133559 -0.02383328 0.0025734929)
(-0.84640442 -0.026486029 -0.0031375031)
(-0.75602641 -0.026854107 -0.0092276486)
(-0.64730599 -0.026201652 -0.013674342)
(-0.5564111 -0.026384656 -0.01594779)
(-0.11181283 -0.002370256 0.0014709548)
(-0.33412237 -0.0074579776 0.0044187187)
(-0.56263635 -0.013425777 0.0068426591)
(-0.75372623 -0.019424958 0.0075123507)
(-0.86032307 -0.024321376 0.0052774882)
(-0.8620227 -0.027327558 0.00011028546)
(-0.78412794 -0.028074636 -0.0060767138)
(-0.67999654 -0.027534383 -0.011109117)
(-0.58969513 -0.027528446 -0.014460944)
(-0.10512187 -0.002243035 0.0015954328)
(-0.31691935 -0.0070985855 0.0048458369)
(-0.53956462 -0.012884118 0.0077567506)
(-0.73368193 -0.01885859 0.0091455541)
(-0.85373129 -0.023929673 0.0077880324)
(-0.87474505 -0.027261104 0.0033181978)
(-0.81303143 -0.028512234 -0.002813763)
(-0.71655745 -0.028340416 -0.0084540788)
(-0.6278643 -0.028186106 -0.012997689)
(-0.097447606 -0.0020371143 0.0016613257)
(-0.29676611 -0.0064811934 0.0050816661)
(-0.51161975 -0.011866588 0.0083346165)
(-0.70760161 -0.017606021 0.010316505)
(-0.84165425 -0.022717405 0.0097850482)
(-0.88466106 -0.026301183 0.0061646033)
(-0.84348383 -0.028088734 0.00034158933)
(-0.75874186 -0.028469852 -0.0057345297)
(-0.67343372 -0.028390312 -0.011255717)
(-0.089090333 -0.0016750439 0.0015361629)
(-0.27469714 -0.0054245827 0.0047681121)
(-0.48066275 -0.010153135 0.0080295094)
(-0.67793593 -0.015471892 0.010406865)
(-0.8265749 -0.020557446 0.010760846)
(-0.89412032 -0.024479208 0.0082665135)
(-0.87826826 -0.026863483 0.0032848503)
(-0.81015567 -0.027966031 -0.0026378853)
(-0.73138322 -0.028244144 -0.0085051388)
(-0.074484499 0.00085478368 0.00076163711)
(-0.23077537 0.0025393 0.0022100944)
(-0.40578822 0.0043218227 0.003452826)
(-0.57474077 0.0058712259 0.0038756808)
(-0.70133411 0.0067642403 0.0025318392)
(-0.75328332 0.0065148074 -0.0013128373)
(-0.7250486 0.0048160892 -0.0074513838)
(-0.64481186 0.0019125882 -0.014035956)
(-0.55371382 -0.0010513645 -0.019067364)
(-0.080988318 0.00081093382 0.00062861279)
(-0.24818886 0.0023232513 0.001764472)
(-0.43057769 0.0038028339 0.0025427138)
(-0.59866592 0.0048963809 0.0022704098)
(-0.71253487 0.0052073486 -9.473833e-05)
(-0.74138394 0.0043212727 -0.0052041605)
(-0.68750895 0.0020979207 -0.012507772)
(-0.58822382 -0.00099045183 -0.019720238)
(-0.48760995 -0.0039256252 -0.02446147)
(-0.086949585 0.00076767453 0.00050405006)
(-0.26416279 0.0021254813 0.0013554806)
(-0.45326542 0.0033439302 0.0017277585)
(-0.62037767 0.0040654785 0.00088803873)
(-0.72240672 0.0039578695 -0.0022604906)
(-0.73058088 0.0027083907 -0.0083156432)
(-0.65504968 0.00039416403 -0.016411936)
(-0.5409613 -0.0024552508 -0.023912695)
(-0.43472448 -0.0051502825 -0.028060506)
(-0.092105059 0.00071118987 0.00039040101)
(-0.27777277 0.0019044892 0.00099035951)
(-0.47214224 0.0028773925 0.0010111239)
(-0.63751519 0.0032835167 -0.00031585376)
(-0.72834014 0.0028544428 -0.0041244792)
(-0.7182876 0.0013864436 -0.010952883)
(-0.62485236 -0.000879369 -0.019643993)
(-0.49978806 -0.0034828012 -0.027171778)
(-0.39050782 -0.0061284634 -0.030724702)
(-0.096215234 0.00064463304 0.00029074646)
(-0.28845905 0.0016741176 0.00068054955)
(-0.48650171 0.0024311825 0.00041813734)
(-0.64940042 0.0025901461 -0.0012934591)
(-0.72972965 0.0019443075 -0.0056289754)
(-0.70378886 0.00039825763 -0.013093155)
(-0.59577335 -0.0017456817 -0.022233344)
(-0.46305232 -0.0040917101 -0.029561988)
(-0.35323336 -0.0065968692 -0.032535656)
(-0.099439224 0.00057060018 0.00020022752)
(-0.29660871 0.0014433743 0.0004087718)
(-0.49686372 0.002019285 -7.8434514e-05)
(-0.65655076 0.0020146389 -0.0020760455)
(-0.72691834 0.0013600037 -0.0068312417)
(-0.68714838 -0.00017006049 -0.01481987)
(-0.56744423 -0.0021991795 -0.02427902)
(-0.42975394 -0.0043260279 -0.031319511)
(-0.3210557 -0.0065046936 -0.033721595)
(-0.1018832 0.00048575456 0.00012317705)
(-0.302532 0.0012004009 0.00018622871)
(-0.50375716 0.0016281994 -0.00046924783)
(-0.65969827 0.0015742758 -0.0026881773)
(-0.72088432 0.00085054171 -0.0077751405)
(-0.66921552 -0.00053465233 -0.016164121)
(-0.54026675 -0.0023131804 -0.025818114)
(-0.39985286 -0.00428683 -0.032580725)
(-0.29313941 -0.006015825 -0.034520341)
(-0.10361791 0.00039247277 6.0146096e-05)
(-0.30655289 0.00094677994 1.0763754e-05)
(-0.50791544 0.001238728 -0.00076675951)
(-0.66009926 0.0011251386 -0.0031532518)
(-0.71320633 0.00044619351 -0.0084755167)
(-0.65157394 -0.00072582877 -0.017133015)
(-0.51537217 -0.002188878 -0.026843884)
(-0.3738023 -0.0040090745 -0.033391485)
(-0.26931144 -0.0052604575 -0.035076755)
(-0.1047888 0.00029951317 1.1986997e-05)
(-0.30912938 0.00070581773 -0.00011781222)
(-0.51016261 0.00088996817 -0.00097495461)
(-0.65894519 0.00074851965 -0.0034664568)
(-0.70532511 0.00016761729 -0.0089589469)
(-0.63564772 -0.0007453638 -0.017811536)
(-0.49390447 -0.0018768578 -0.027422216)
(-0.3520399 -0.0034116715 -0.033808397)
(-0.24969632 -0.0042790619 -0.035460755)
(-0.10552857 0.00021123385 -2.2082118e-05)
(-0.31066133 0.00049139811 -0.00020528629)
(-0.51117393 0.00061465846 -0.0011151213)
(-0.6571648 0.00046099423 -0.0036649446)
(-0.69833399 1.1993002e-05 -0.0092789664)
(-0.62255604 -0.00064300266 -0.018292714)
(-0.47680019 -0.0014682072 -0.027772284)
(-0.33504724 -0.0025438436 -0.033966346)
(-0.23456851 -0.0031404073 -0.035658705)
(-0.1060503 0.00012391137 -4.4029819e-05)
(-0.31163884 0.00028425544 -0.00026051103)
(-0.51159525 0.00034768724 -0.0012024468)
(-0.65544812 0.00024045028 -0.0037857533)
(-0.6929418 -4.2733328e-05 -0.009467625)
(-0.61306057 -0.00044740325 -0.018569105)
(-0.46477053 -0.00097591141 -0.027981628)
(-0.32331481 -0.001569829 -0.034049603)
(-0.2242454 -0.0019189991 -0.035748157)
(-0.10620165 4.0430887e-05 -5.3930564e-05)
(-0.31191437 9.1073866e-05 -0.00028414747)
(-0.51160071 0.0001088095 -0.0012364022)
(-0.6544706 6.8757607e-05 -0.0038295411)
(-0.69020712 -2.8250861e-05 -0.0095389016)
(-0.60829355 -0.00016495087 -0.018677013)
(-0.45871769 -0.00034697927 -0.028065396)
(-0.31739952 -0.00053448527 -0.034084345)
(-0.21903554 -0.00064717992 -0.035780579)
(-0.10620165 -4.0429558e-05 -5.3934968e-05)
(-0.31191437 -9.1079275e-05 -0.00028414063)
(-0.51160071 -0.0001088671 -0.001236399)
(-0.65447061 -6.8953504e-05 -0.0038295445)
(-0.69020714 2.7830644e-05 -0.0095389014)
(-0.60829358 0.00016430115 -0.018677001)
(-0.45871773 0.00034621108 -0.028065383)
(-0.31739957 0.0005338397 -0.034084339)
(-0.21903558 0.00064689909 -0.035780577)
(-0.1060503 -0.00012390229 -4.402776e-05)
(-0.31163884 -0.00028423615 -0.0002604851)
(-0.51159526 -0.00034770022 -0.0012024293)
(-0.65544814 -0.00024059861 -0.0037857577)
(-0.69294186 4.2355257e-05 -0.009467619)
(-0.61306066 0.00044678333 -0.018569062)
(-0.46477066 0.00097517011 -0.027981582)
(-0.32331494 0.0015691953 -0.034049577)
(-0.2242455 0.0019187276 -0.035748147)
(-0.10552857 -0.00021122008 -2.2072565e-05)
(-0.31066133 -0.00049135987 -0.00020527051)
(-0.51117395 -0.00061462527 -0.001115105)
(-0.65716483 -0.00046109596 -0.0036649361)
(-0.69833407 -1.2336848e-05 -0.0092789352)
(-0.62255616 0.00064240349 -0.018292628)
(-0.47680036 0.0014674902 -0.027772193)
(-0.33504741 0.0025432289 -0.033966281)
(-0.23456866 0.0031401678 -0.035658688)
(-0.1047888 -0.00029950107 1.1969292e-05)
(-0.30912939 -0.00070578356 -0.00011785285)
(-0.51016264 -0.00088993417 -0.00097496821)
(-0.65894524 -0.00074862479 -0.0034664256)
(-0.70532521 -0.00016797598 -0.0089588741)
(-0.63564784 0.00074474496 -0.017811399)
(-0.49390464 0.0018761334 -0.027422075)
(-0.35204009 0.0034110745 -0.033808294)
(-0.24969649 0.0042788758 -0.035460744)
(-0.10361791 -0.00039246455 6.0107753e-05)
(-0.30655291 -0.00094675509 1.0717954e-05)
(-0.50791548 -0.0012387129 -0.00076675701)
(-0.66009932 -0.0011252639 -0.0031531847)
(-0.71320642 -0.00044658255 -0.0084753962)
(-0.65157405 0.00072518073 -0.017132829)
(-0.51537233 0.0021881335 -0.026843704)
(-0.37380249 0.004008502 -0.033391362)
(-0.26931162 0.0052603229 -0.035076751)
(-0.10188321 -0.00048575345 0.00012315224)
(-0.30253203 -0.0012003919 0.00018621374)
(-0.50375722 -0.0016282047 -0.00046922373)
(-0.65969834 -0.0015744089 -0.0026880792)
(-0.7208844 -0.00085093795 -0.0077749627)
(-0.66921563 0.00053401338 -0.016163889)
(-0.54026691 0.0023124553 -0.025817909)
(-0.39985304 0.0042863092 -0.03258059)
(-0.29313957 0.0060157218 -0.034520301)
(-0.099439222 -0.00057060749 0.00020019921)
(-0.29660871 -0.0014433883 0.00040874553)
(-0.49686374 -0.0020193384 -7.8426907e-05)
(-0.65655082 -0.0020148223 -0.0020759357)
(-0.72691843 -0.0013604363 -0.0068310291)
(-0.68714853 0.00016942259 -0.014819612)
(-0.56744441 0.0021985011 -0.024278791)
(-0.42975411 0.0043255802 -0.031319316)
(-0.32105583 0.0065046334 -0.033721466)
(-0.096215233 -0.00064463359 0.00029074004)
(-0.28845906 -0.0016741307 0.00068055391)
(-0.48650174 -0.0024312419 0.00041818746)
(-0.64940051 -0.0025903436 -0.0012933441)
(-0.72972978 -0.0019447477 -0.0056287825)
(-0.70378907 -0.00039890091 -0.013092911)
(-0.59577356 0.0017450308 -0.022233081)
(-0.46305248 0.0040913109 -0.029561674)
(-0.35323343 0.006596922 -0.032535436)
(-0.092105056 -0.00071118738 0.00039039258)
(-0.27777277 -0.0019045016 0.00099034234)
(-0.47214227 -0.0028774639 0.0010111161)
(-0.63751527 -0.0032837241 -0.00031579614)
(-0.72834028 -0.0028548607 -0.0041242904)
(-0.7182878 -0.0013870583 -0.010952581)
(-0.62485256 0.0008787425 -0.019643604)
(-0.49978818 0.0034824535 -0.027171348)
(-0.39050784 0.0061286105 -0.030724407)
(-0.08694958 -0.00076766856 0.00050404702)
(-0.26416278 -0.0021254821 0.0013554813)
(-0.45326542 -0.0033439894 0.0017277857)
(-0.62037773 -0.0040656935 0.00088813268)
(-0.72240685 -0.0039582875 -0.0022602579)
(-0.73058107 -0.0027089611 -0.0083152373)
(-0.65504984 -0.00039471921 -0.016411404)
(-0.54096138 0.00245505 -0.023912182)
(-0.43472444 0.0051504504 -0.028060069)
(-0.08098831 -0.00081094787 0.00062862119)
(-0.24818884 -0.0023233099 0.0017644976)
(-0.43057769 -0.0038029746 0.0025427817)
(-0.59866596 -0.004896681 0.0022705578)
(-0.71253499 -0.005207809 -9.442255e-05)
(-0.74138412 -0.0043218028 -0.0052036309)
(-0.68750907 -0.0020983596 -0.012507174)
(-0.58822387 0.00099044071 -0.019719648)
(-0.48760982 0.0039259321 -0.02446092)
(-0.07448449 -0.00085479942 0.00076164563)
(-0.23077535 -0.0025393552 0.0022101246)
(-0.40578819 -0.004321949 0.0034528951)
(-0.57474077 -0.0058714867 0.0038758182)
(-0.70133418 -0.0067646408 0.0025321388)
(-0.75328345 -0.0065152607 -0.0013123357)
(-0.72504866 -0.0048164259 -0.0074508557)
(-0.64481188 -0.0019125267 -0.014035315)
(-0.55371366 0.0010518396 -0.019066917)
(-0.081880496 0.00033736086 0.00030700403)
(-0.25296169 0.00098789821 0.00087204418)
(-0.44364467 0.001575788 0.0012811088)
(-0.62699793 0.0017442266 0.0012377203)
(-0.76448899 0.00093453835 0.00039149244)
(-0.82276036 -0.0013787743 -0.0015770482)
(-0.7966497 -0.0052685985 -0.0047429635)
(-0.71555159 -0.010049063 -0.0086404797)
(-0.62256923 -0.014671349 -0.012535544)
(-0.089297656 0.00038061474 0.00030545736)
(-0.27286772 0.0010800898 0.00084153552)
(-0.47227873 0.0016448377 0.0011441159)
(-0.65570995 0.001633929 0.0008586964)
(-0.78107539 0.0004008498 -0.0004171858)
(-0.81664055 -0.002590732 -0.0030047675)
(-0.76501053 -0.0072625458 -0.0068631889)
(-0.66451046 -0.012598306 -0.011294032)
(-0.56095235 -0.017239408 -0.015475104)
(-0.096147516 0.00041792531 0.0002875606)
(-0.29129519 0.0011549747 0.00075982922)
(-0.49881991 0.0016939059 0.00091850636)
(-0.68238029 0.0015331126 0.00038011691)
(-0.79681968 -1.3244913e-05 -0.0012664528)
(-0.81249438 -0.0034418912 -0.0043233077)
(-0.739497 -0.0084980416 -0.0086244455)
(-0.62367634 -0.013928149 -0.013253301)
(-0.51304764 -0.018330777 -0.017148713)
(-0.10211993 0.00042020857 0.0002451212)
(-0.30717461 0.0011310744 0.00060870026)
(-0.52131186 0.0015900069 0.00058109683)
(-0.70430238 0.0012612493 -0.00023526593)
(-0.80863206 -0.00054553179 -0.0022365272)
(-0.80702725 -0.0042611271 -0.005674417)
(-0.71642331 -0.0094768522 -0.010246573)
(-0.588804 -0.014781068 -0.014825865)
(-0.4732048 -0.018787809 -0.018209623)
(-0.10695456 0.00039297696 0.00019225608)
(-0.31989485 0.0010256291 0.00043307347)
(-0.53896968 0.0013629176 0.00022032384)
(-0.72068158 0.0008625726 -0.00084476024)
(-0.81571471 -0.0011384268 -0.0031275907)
(-0.79921711 -0.0049836592 -0.0068397445)
(-0.69420695 -0.010158993 -0.011538501)
(-0.55774044 -0.015150483 -0.015928896)
(-0.43895186 -0.018598981 -0.018716766)
(-0.11082292 0.00034545737 0.00013552952)
(-0.32987024 0.00086738794 0.00025325908)
(-0.55234249 0.0010630707 -0.00012348171)
(-0.7320542 0.00041308588 -0.001379821)
(-0.81840751 -0.001683049 -0.0038512887)
(-0.78894168 -0.0054858493 -0.0076794365)
(-0.67217416 -0.010406719 -0.012338283)
(-0.52931916 -0.014941798 -0.016458652)
(-0.40899022 -0.017791639 -0.018718679)
(-0.11382912 0.00028457918 8.487275e-05)
(-0.33740476 0.00067885455 9.8310463e-05)
(-0.56194179 0.00073535117 -0.00040451899)
(-0.73909693 -1.8289098e-05 -0.0017864626)
(-0.81744946 -0.0020956499 -0.0043434626)
(-0.77682001 -0.005672326 -0.0081702337)
(-0.65054314 -0.010126236 -0.012669695)
(-0.50322619 -0.014053657 -0.016477835)
(-0.38267187 -0.016334243 -0.018315608)
(-0.11603461 0.00022101695 4.4347496e-05)
(-0.34279214 0.00049472242 -1.9976703e-05)
(-0.56843189 0.00044322327 -0.00060488782)
(-0.74290848 -0.00033987675 -0.0020474303)
(-0.81423931 -0.002270449 -0.0046085828)
(-0.76424121 -0.0054460515 -0.0083517262)
(-0.63034466 -0.0092528199 -0.012644404)
(-0.47988118 -0.012444076 -0.016132853)
(-0.35995897 -0.014256241 -0.017645072)
(-0.117583 0.00016099524 1.468765e-05)
(-0.34647782 0.00033446059 -0.00010165129)
(-0.57259879 0.00022087856 -0.00073106133)
(-0.74459797 -0.00050690741 -0.0021853805)
(-0.81009326 -0.0021643109 -0.0046974616)
(-0.75253455 -0.0047899619 -0.0083234998)
(-0.61267825 -0.0078312913 -0.012433501)
(-0.45995629 -0.010273127 -0.01562486)