/*--------------------------------*- C++ -*----------------------------------*\
  =========                 |
  \\      /  F ield         | OpenFOAM: The Open Source CFD Toolbox
   \\    /   O peration     | Website:  https://openfoam.org
    \\  /    A nd           | Version:  10
     \\/     M anipulation  |
\*---------------------------------------------------------------------------*/
FoamFile
{
    format      ascii;
    class       volScalarField;
    location    "2.2";
    object      T;
}
// * * * * * * * * * * * * * * * * * * * * * * * * * * * * * * * * * * * * * //

dimensions      [0 0 -1 0 0 0 0];

internalField   nonuniform List<scalar> 
100
(
0.0706817
0.209539
0.340974
0.46033
0.563378
0.646468
0.706657
0.741812
0.750688
0.73297
0.689287
0.621185
0.531078
0.422157
0.29828
0.163837
0.0235903
-0.117493
-0.254413
-0.382321
-0.496685
-0.593453
-0.669199
-0.721237
-0.747726
-0.747725
-0.721237
-0.669198
-0.593452
-0.496683
-0.382319
-0.254411
-0.11749
0.0235924
0.163839
0.298282
0.422158
0.531079
0.621186
0.689288
0.732971
0.750688
0.741811
0.706656
0.646467
0.563377
0.460328
0.340973
0.209538
0.0706801
-0.0706816
-0.209539
-0.340974
-0.46033
-0.563378
-0.646468
-0.706657
-0.741812
-0.750688
-0.73297
-0.689287
-0.621185
-0.531078
-0.422157
-0.298281
-0.163838
-0.0235908
0.117492
0.254412
0.38232
0.496684
0.593453
0.669198
0.721237
0.747725
0.747725
0.721237
0.669198
0.593452
0.496684
0.38232
0.254412
0.117491
-0.0235918
-0.163839
-0.298282
-0.422158
-0.531079
-0.621186
-0.689288
-0.732971
-0.750688
-0.741812
-0.706656
-0.646467
-0.563377
-0.460329
-0.340973
-0.209538
-0.0706801
)
;

boundaryField
{
    inlet
    {
        type            cyclic;
    }
    outlet
    {
        type            cyclic;
    }
    bottom
    {
        type            slip;
    }
    top
    {
        type            slip;
    }
    frontAndBack
    {
        type            empty;
    }
}


// ************************************************************************* //
