/*--------------------------------*- C++ -*----------------------------------*\
| =========                 |                                                 |
| \\      /  F ield         | OpenFOAM: The Open Source CFD Toolbox           |
|  \\    /   O peration     | Version:  2406                                  |
|   \\  /    A nd           | Website:  www.openfoam.com                      |
|    \\/     M anipulation  |                                                 |
\*---------------------------------------------------------------------------*/
FoamFile
{
    version     2.0;
    format      ascii;
    arch        "LSB;label=32;scalar=64";
    class       volScalarField;
    location    "24";
    object      p;
}
// * * * * * * * * * * * * * * * * * * * * * * * * * * * * * * * * * * * * * //

dimensions      [0 2 -2 0 0 0 0];

internalField   nonuniform List<scalar> 
1176
(
0.79699978
0.79702265
0.79704631
0.79705398
0.79702245
0.79692775
0.79677052
0.79658436
0.79640516
0.796238
0.79608338
0.79598777
0.79598777
0.79608338
0.796238
0.79640516
0.79658436
0.79677054
0.7969278
0.79702252
0.79705407
0.79704643
0.79702278
0.79699991
0.77385135
0.77380439
0.77375663
0.77373973
0.77380223
0.77400459
0.77436991
0.77483431
0.77526517
0.77555128
0.77567067
0.77570493
0.77570493
0.77567067
0.77555126
0.77526516
0.77483429
0.77436989
0.77400456
0.77380219
0.77373968
0.77375657
0.77380432
0.77385128
0.75676659
0.7567886
0.7568084
0.75680649
0.75674742
0.75658625
0.75631448
0.75598654
0.75568032
0.75546753
0.75535673
0.75530791
0.75530791
0.75535673
0.75546753
0.75568032
0.75598654
0.7563145
0.75658627
0.75674744
0.75680651
0.75680842
0.75678862
0.75676661
0.7400947
0.74010382
0.74011588
0.74013228
0.74015483
0.7401724
0.74014016
0.74000675
0.73977464
0.73950208
0.73927787
0.73915737
0.73915737
0.73927786
0.73950207
0.73977463
0.74000674
0.74014015
0.74017239
0.74015482
0.74013227
0.74011587
0.74010382
0.74009469
0.72367565
0.7236796
0.7236846
0.72369066
0.72370036
0.72372063
0.72375682
0.72379833
0.72382
0.72379613
0.72373401
0.72368138
0.72368137
0.72373401
0.72379612
0.72382
0.72379833
0.72375681
0.72372063
0.72370035
0.72369065
0.72368459
0.7236796
0.72367564
0.70721399
0.70721641
0.70721965
0.70722369
0.70722861
0.70723544
0.70724961
0.70728092
0.70733091
0.70738816
0.70743087
0.70744752
0.70744752
0.70743087
0.70738816
0.70733091
0.70728092
0.70724961
0.70723544
0.70722861
0.7072237
0.70721965
0.70721641
0.70721399
0.69080818
0.69081032
0.69081313
0.69081656
0.69082045
0.69082397
0.69082603
0.69082821
0.69083676
0.69085399
0.69087189
0.69088361
0.69088361
0.69087189
0.69085399
0.69083676
0.69082821
0.69082604
0.69082397
0.69082046
0.69081656
0.69081313
0.69081032
0.69080819
0.67442832
0.67443007
0.6744324
0.67443532
0.67443899
0.67444337
0.67444782
0.67445097
0.67445221
0.67445383
0.67445087
0.67444836
0.67444836
0.67445087
0.67445383
0.67445221
0.67445097
0.67444782
0.67444337
0.674439
0.67443533
0.6744324
0.67443008
0.67442832
0.65807403
0.65807548
0.65807741
0.65807983
0.65808284
0.65808663
0.65809167
0.65809872
0.6581074
0.65811743
0.6581252
0.65812879
0.65812879
0.6581252
0.65811743
0.6581074
0.65809872
0.65809167
0.65808663
0.65808285
0.65807983
0.65807742
0.65807549
0.65807404
0.64173634
0.64173754
0.64173915
0.64174118
0.64174375
0.64174693
0.64175109
0.64175748
0.64176764
0.64178077
0.6417951
0.6418044
0.6418044
0.6417951
0.64178077
0.64176764
0.64175748
0.64175109
0.64174693
0.64174375
0.64174119
0.64173915
0.64173755
0.64173634
0.62541196
0.62541298
0.62541436
0.62541611
0.62541832
0.62542104
0.62542444
0.62542929
0.62543715
0.62544781
0.62546037
0.62546951
0.62546951
0.62546037
0.62544781
0.62543715
0.62542928
0.62542444
0.62542105
0.62541832
0.62541611
0.62541436
0.62541299
0.62541196
0.60909848
0.60909938
0.60910057
0.6091021
0.60910404
0.60910644
0.6091094
0.60911341
0.60911963
0.60912829
0.60913885
0.6091463
0.6091463
0.60913885
0.60912829
0.60911963
0.60911341
0.6091094
0.60910644
0.60910404
0.6091021
0.60910058
0.60909938
0.60909849
0.59279429
0.59279507
0.59279613
0.59279748
0.5927992
0.59280133
0.59280396
0.5928075
0.59281291
0.59282065
0.59283034
0.59283702
0.59283702
0.59283034
0.59282065
0.5928129
0.5928075
0.59280397
0.59280133
0.5927992
0.59279748
0.59279614
0.59279508
0.59279429
0.57649807
0.57649877
0.57649971
0.57650091
0.57650245
0.57650435
0.5765067
0.57650984
0.57651461
0.57652158
0.57653025
0.57653634
0.57653634
0.57653025
0.57652158
0.57651461
0.57650984
0.5765067
0.57650436
0.57650245
0.57650092
0.57649971
0.57649877
0.57649807
0.5602088
0.56020943
0.56021027
0.56021135
0.56021274
0.56021445
0.56021655
0.56021932
0.56022348
0.56022961
0.56023713
0.56024254
0.56024254
0.56023713
0.56022961
0.56022348
0.56021932
0.56021656
0.56021446
0.56021274
0.56021136
0.56021028
0.56020943
0.5602088
0.54392568
0.54392624
0.54392701
0.54392799
0.54392924
0.5439308
0.54393269
0.54393515
0.54393878
0.54394416
0.5439507
0.54395549
0.54395549
0.5439507
0.54394416
0.54393878
0.54393515
0.54393269
0.5439308
0.54392925
0.54392799
0.54392701
0.54392625
0.54392568
0.52764805
0.52764857
0.52764926
0.52765015
0.5276513
0.52765272
0.52765444
0.52765664
0.52765986
0.52766462
0.52767035
0.52767464
0.52767464
0.52767035
0.52766462
0.52765986
0.52765664
0.52765444
0.52765272
0.5276513
0.52765016
0.52764927
0.52764857
0.52764805
0.51137537
0.51137584
0.51137648
0.5113773
0.51137834
0.51137964
0.51138121
0.5113832
0.51138608
0.51139032
0.51139538
0.51139924
0.51139924
0.51139538
0.51139032
0.51138608
0.5113832
0.51138121
0.51137964
0.51137834
0.5113773
0.51137648
0.51137584
0.51137537
0.49510718
0.49510761
0.49510819
0.49510894
0.49510991
0.4951111
0.49511254
0.49511434
0.49511692
0.49512073
0.49512522
0.49512871
0.49512871
0.49512522
0.49512073
0.49511692
0.49511434
0.49511254
0.4951111
0.49510991
0.49510894
0.49510819
0.49510761
0.49510717
0.47884306
0.47884346
0.478844
0.47884469
0.47884558
0.47884668
0.47884801
0.47884965
0.47885197
0.4788554
0.47885943
0.47886259
0.47886259
0.47885943
0.4788554
0.47885198
0.47884965
0.47884801
0.47884668
0.47884558
0.47884469
0.478844
0.47884346
0.47884306
0.46258269
0.46258306
0.46258356
0.4625842
0.46258502
0.46258604
0.46258726
0.46258877
0.46259087
0.46259397
0.46259762
0.46260049
0.46260049
0.46259762
0.46259397
0.46259088
0.46258877
0.46258726
0.46258604
0.46258502
0.46258419
0.46258355
0.46258306
0.46258269
0.44632576
0.4463261
0.44632656
0.44632715
0.44632792
0.44632886
0.44632999
0.44633138
0.4463333
0.44633611
0.44633943
0.44634204
0.44634204
0.44633943
0.44633612
0.4463333
0.44633138
0.44632999
0.44632886
0.44632791
0.44632715
0.44632655
0.44632609
0.44632575
0.43007199
0.43007231
0.43007274
0.43007329
0.430074
0.43007488
0.43007593
0.43007721
0.43007896
0.43008153
0.43008456
0.43008695
0.43008695
0.43008457
0.43008154
0.43007896
0.43007721
0.43007593
0.43007487
0.43007399
0.43007328
0.43007273
0.4300723
0.43007198
0.41382116
0.41382145
0.41382185
0.41382237
0.41382303
0.41382385
0.41382482
0.41382601
0.41382762
0.41382997
0.41383276
0.41383494
0.41383495
0.41383276
0.41382998
0.41382762
0.41382601
0.41382482
0.41382384
0.41382302
0.41382235
0.41382184
0.41382144
0.41382114
0.39757304
0.39757332
0.39757369
0.39757417
0.39757478
0.39757555
0.39757646
0.39757756
0.39757904
0.39758121
0.39758378
0.39758578
0.39758579
0.39758378
0.39758121
0.39757905
0.39757757
0.39757646
0.39757554
0.39757477
0.39757415
0.39757367
0.39757329
0.39757302
0.38132745
0.38132771
0.38132805
0.3813285
0.38132908
0.38132979
0.38133064
0.38133167
0.38133303
0.38133503
0.38133741
0.38133926
0.38133926
0.38133741
0.38133504
0.38133304
0.38133167
0.38133064
0.38132978
0.38132906
0.38132848
0.38132803
0.38132768
0.38132742
0.3650842
0.36508445
0.36508477
0.36508519
0.36508573
0.3650864
0.36508719
0.36508815
0.36508942
0.36509126
0.36509347
0.36509518
0.36509518
0.36509347
0.36509127
0.36508943
0.36508816
0.36508719
0.36508639
0.36508571
0.36508516
0.36508474
0.36508441
0.36508417
0.34884315
0.34884338
0.34884368
0.34884408
0.34884458
0.34884521
0.34884595
0.34884685
0.34884802
0.34884973
0.34885178
0.34885336
0.34885337
0.34885179
0.34884974
0.34884804
0.34884686
0.34884595
0.3488452
0.34884456
0.34884405
0.34884365
0.34884334
0.34884311
0.33260415
0.33260436
0.33260465
0.33260502
0.33260549
0.33260608
0.33260678
0.33260761
0.33260871
0.33261029
0.3326122
0.33261367
0.33261367
0.33261221
0.3326103
0.33260872
0.33260762
0.33260678
0.33260606
0.33260546
0.33260498
0.33260461
0.33260432
0.3326041
0.31636706
0.31636726
0.31636753
0.31636787
0.31636832
0.31636887
0.31636953
0.31637031
0.31637133
0.3163728
0.31637459
0.31637595
0.31637595
0.31637459
0.31637281
0.31637134
0.31637032
0.31636953
0.31636885
0.31636829
0.31636783
0.31636748
0.31636721
0.31636701
0.30013176
0.30013195
0.3001322
0.30013253
0.30013294
0.30013346
0.30013408
0.30013481
0.30013577
0.30013714
0.30013881
0.30014008
0.30014008
0.30013882
0.30013715
0.30013578
0.30013483
0.30013408
0.30013345
0.30013291
0.30013248
0.30013215
0.3001319
0.30013171
0.28389814
0.28389832
0.28389856
0.28389886
0.28389926
0.28389975
0.28390033
0.28390101
0.2839019
0.28390318
0.28390475
0.28390593
0.28390593
0.28390476
0.2839032
0.28390192
0.28390103
0.28390032
0.28389973
0.28389922
0.28389882
0.28389851
0.28389826
0.28389808
0.2676661
0.26766627
0.26766649
0.26766678
0.26766715
0.26766761
0.26766816
0.2676688
0.26766964
0.26767083
0.2676723
0.2676734
0.26767341
0.26767231
0.26767085
0.26766966
0.26766882
0.26766816
0.26766759
0.26766711
0.26766673
0.26766644
0.26766621
0.26766604
0.25143555
0.2514357
0.25143591
0.25143618
0.25143653
0.25143696
0.25143748
0.25143809
0.25143887
0.25143999
0.25144136
0.25144239
0.25144239
0.25144137
0.25144001
0.25143889
0.2514381
0.25143748
0.25143694
0.25143649
0.25143613
0.25143585
0.25143563
0.25143548
0.23520638
0.23520653
0.23520672
0.23520698
0.23520731
0.23520772
0.2352082
0.23520877
0.23520951
0.23521055
0.23521185
0.23521281
0.23521282
0.23521186
0.23521058
0.23520953
0.23520879
0.2352082
0.23520769
0.23520726
0.23520692
0.23520666
0.23520645
0.2352063
0.21897852
0.21897866
0.21897885
0.21897909
0.2189794
0.21897978
0.21898024
0.21898078
0.21898147
0.21898245
0.21898366
0.21898456
0.21898457
0.21898367
0.21898247
0.2189815
0.2189808
0.21898024
0.21897976
0.21897935
0.21897903
0.21897878
0.21897859
0.21897844
0.2027519
0.20275203
0.2027522
0.20275243
0.20275272
0.20275309
0.20275352
0.20275403
0.20275467
0.2027556
0.20275674
0.20275759
0.20275759
0.20275675
0.20275562
0.2027547
0.20275405
0.20275352
0.20275306
0.20275267
0.20275237
0.20275213
0.20275195
0.20275181
0.18652644
0.18652656
0.18652673
0.18652694
0.18652722
0.18652756
0.18652797
0.18652845
0.18652905
0.18652992
0.18653098
0.18653178
0.18653178
0.186531
0.18652994
0.18652909
0.18652847
0.18652797
0.18652753
0.18652716
0.18652687
0.18652665
0.18652648
0.18652635
0.17030207
0.17030218
0.17030234
0.17030254
0.1703028
0.17030313
0.17030351
0.17030396
0.17030454
0.17030535
0.17030636
0.17030711
0.17030711
0.17030638
0.17030538
0.17030457
0.17030399
0.17030351
0.1703031
0.17030275
0.17030247
0.17030226
0.1703021
0.17030198
0.15407874
0.15407885
0.154079
0.15407919
0.15407943
0.15407974
0.1540801
0.15408053
0.15408107
0.15408182
0.15408276
0.15408346
0.15408346
0.15408278
0.15408185
0.1540811
0.15408055
0.1540801
0.15407971
0.15407937
0.15407911
0.15407891
0.15407875
0.15407864
0.13785637
0.13785648
0.13785662
0.1378568
0.13785703
0.13785732
0.13785766
0.13785806
0.13785857
0.13785928
0.13786017
0.13786083
0.13786083
0.13786019
0.13785931
0.1378586
0.13785809
0.13785766
0.13785728
0.13785697
0.13785671
0.13785653
0.13785638
0.13785627
0.12163494
0.12163504
0.12163517
0.12163534
0.12163556
0.12163584
0.12163616
0.12163654
0.12163701
0.12163766
0.12163848
0.12163908
0.12163908
0.1216385
0.1216377
0.12163705
0.12163656
0.12163616
0.1216358
0.1216355
0.12163526
0.12163508
0.12163494
0.12163483
0.10541436
0.10541445
0.10541458
0.10541474
0.10541495
0.10541521
0.10541551
0.10541587
0.10541631
0.10541692
0.10541768
0.10541824
0.10541824
0.1054177
0.10541695
0.10541634
0.10541589
0.10541551
0.10541517
0.10541488
0.10541465
0.10541448
0.10541434
0.10541425
0.089194643
0.089194732
0.089194851
0.089195004
0.089195202
0.089195446
0.089195734
0.089196066
0.089196469
0.089197009
0.08919766
0.089198124
0.089198129
0.089197677
0.089197041
0.089196506
0.08919609
0.089195728
0.089195404
0.089195128
0.089194909
0.089194746
0.089194618
0.089194525
0.072975638
0.07297572
0.072975832
0.072975978
0.072976166
0.072976401
0.072976677
0.072976993
0.072977371
0.072977865
0.072978446
0.07297884
0.072978845
0.072978462
0.072977897
0.072977408
0.072977017
0.07297667
0.072976357
0.07297609
0.072975879
0.072975724
0.072975603
0.072975516
0.056757517
0.056757597
0.056757706
0.056757844
0.05675802
0.056758237
0.05675849
0.056758775
0.056759097
0.056759471
0.056759844
0.056760056
0.05676006
0.05675986
0.056759502
0.056759134
0.056758798
0.056758482
0.056758192
0.056757943
0.056757745
0.056757598
0.056757482
0.056757397
0.040539729
0.0405398
0.040539898
0.040540028
0.040540204
0.040540429
0.040540695
0.040540988
0.040541314
0.040541719
0.040542183
0.040542487
0.040542491
0.040542197
0.040541748
0.040541348
0.040541009
0.040540687
0.040540385
0.04054013
0.040539934
0.040539796
0.040539691
0.040539617
0.02432346
0.024323543
0.024323651
0.024323778
0.024323926
0.024324088
0.024324262
0.024324445
0.024324611
0.024324687
0.024324595
0.024324361
0.024324364
0.024324608
0.024324711
0.02432464
0.024324461
0.024324251
0.024324047
0.024323861
0.024323699
0.024323566
0.024323454
0.02432337
0.008105366
0.0081054364
0.0081055293
0.0081056509
0.008105812
0.0081060121
0.0081062334
0.008106473
0.0081068505
0.0081076842
0.0081091592
0.0081105245
0.0081105262
0.0081091663
0.0081076987
0.0081068673
0.008106481
0.0081062239
0.0081059841
0.0081057702
0.0081056017
0.0081054786
0.0081053846
0.0081053144
)
;

boundaryField
{
    INLET
    {
        type            zeroGradient;
    }
    OUTLET
    {
        type            fixedValue;
        value           uniform 0;
    }
    WALL
    {
        type            zeroGradient;
    }
    frontAndBackPlanes
    {
        type            empty;
    }
}


// ************************************************************************* //
