/*--------------------------------*- C++ -*----------------------------------*\
| =========                 |                                                 |
| \\      /  F ield         | OpenFOAM: The Open Source CFD Toolbox           |
|  \\    /   O peration     | Version:  2406                                  |
|   \\  /    A nd           | Website:  www.openfoam.com                      |
|    \\/     M anipulation  |                                                 |
\*---------------------------------------------------------------------------*/
FoamFile
{
    version     2.0;
    format      ascii;
    arch        "LSB;label=32;scalar=64";
    class       surfaceScalarField;
    location    "24";
    object      phi;
}
// * * * * * * * * * * * * * * * * * * * * * * * * * * * * * * * * * * * * * //

dimensions      [0 3 -1 0 0 0 0];

oriented        oriented;

internalField   nonuniform List<scalar> 
2279
(
2.3617525e-08
1.0148926e-05
2.0509773e-07
4.982375e-05
6.9331775e-07
0.00014252872
1.5784717e-06
0.00034353082
2.6788479e-06
0.00075378089
3.3472914e-06
0.0015415573
3.0435198e-06
0.0029497096
2.1516839e-06
0.005249171
1.4318038e-06
0.008582269
9.895929e-07
0.012685995
5.126699e-07
0.016666385
4.2644676e-12
0.01918202
-5.1266312e-07
0.01918202
-9.8959562e-07
0.016666385
-1.4318346e-06
0.012685995
-2.1517852e-06
0.0085822691
-3.043745e-06
0.0052491711
-3.3476682e-06
0.0029497097
-2.6793366e-06
0.0015415574
-1.578972e-06
0.00075378094
-6.9372778e-07
0.00034353084
-2.0536037e-07
0.00014252872
-2.3731562e-08
4.9823751e-05
1.0148927e-05
-9.5248443e-08
1.0244175e-05
-5.3794003e-07
5.0266441e-05
-1.6230011e-06
0.00014361378
-3.5389525e-06
0.00034544677
-5.9201869e-06
0.00075616213
-7.4055033e-06
0.0015430426
-6.5847289e-06
0.0029488888
-3.9361616e-06
0.0052465224
-1.3883901e-06
0.0085797213
-6.5117735e-08
0.012684671
2.4241253e-07
0.016666078
1.2533624e-11
0.019182263
-2.4238253e-07
0.019182263
6.5155334e-08
0.016666078
1.3884376e-06
0.012684671
3.9362194e-06
0.0085797212
6.584814e-06
0.0052465224
7.4056403e-06
0.0029488888
5.920367e-06
0.0015430426
3.5391313e-06
0.00075616211
1.623136e-06
0.00034544676
5.3801751e-07
0.00014361378
9.5276973e-08
5.0266439e-05
1.0244174e-05
5.013986e-08
1.0194035e-05
2.6334501e-07
5.0053236e-05
7.4910716e-07
0.00014312802
1.5314583e-06
0.00034466442
2.3366552e-06
0.00075535693
2.5476607e-06
0.0015428316
1.8390938e-06
0.0029495974
9.7567113e-07
0.0052473859
6.7695432e-07
0.00858002
6.717829e-07
0.012684677
4.841618e-07
0.016666266
-3.7003977e-13
0.019182747
-4.8416532e-07
0.019182747
-6.7179533e-07
0.016666266
-6.7698196e-07
0.012684677
-9.7571636e-07
0.00858002
-1.8391452e-06
0.0052473859
-2.5477074e-06
0.0029495974
-2.3366906e-06
0.0015428316
-1.5314751e-06
0.00075535694
-7.4910929e-07
0.00034466443
-2.633401e-07
0.00014312802
-5.0135524e-08
5.0053237e-05
1.0194035e-05
1.9586731e-08
1.0174448e-05
1.1184927e-07
4.9960974e-05
3.6128425e-07
0.00014287858
9.0504761e-07
0.00034412066
1.8716594e-06
0.00075439032
3.0948221e-06
0.0015416085
3.8987213e-06
0.0029487935
3.7285511e-06
0.005247556
2.924206e-06
0.0085808243
1.973371e-06
0.012685627
1.0127705e-06
0.016667226
5.1777749e-12
0.01918376
-1.0127613e-06
0.01918376
-1.9733651e-06
0.016667226
-2.9242022e-06
0.012685627
-3.7285495e-06
0.0085808243
-3.8987262e-06
0.005247556
-3.0948319e-06
0.0029487935
-1.8716745e-06
0.0015416085
-9.050682e-07
0.00075439032
-3.6130486e-07
0.00034412066
-1.1186312e-07
0.00014287858
-1.9593014e-08
4.9960974e-05
1.0174448e-05
8.0838858e-09
1.0166364e-05
4.7141342e-08
4.9921916e-05
1.5494662e-07
0.00014277078
3.9846269e-07
0.00034387714
8.7979376e-07
0.00075390899
1.7015146e-06
0.0015407867
2.7512721e-06
0.0029477437
3.4623569e-06
0.0052468449
3.4708567e-06
0.0085808158
2.8006827e-06
0.012686298
1.5505145e-06
0.016668476
4.1059491e-12
0.01918531
-1.5505083e-06
0.01918531
-2.8006825e-06
0.016668476
-3.4708644e-06
0.012686298
-3.4623603e-06
0.0085808158
-2.7512666e-06
0.0052468449
-1.7015023e-06
0.0029477437
-8.7977782e-07
0.0015407867
-3.9844859e-07
0.00075390898
-1.5493694e-07
0.00034387714
-4.7136066e-08
0.00014277078
-8.0819231e-09
4.9921916e-05
1.0166364e-05
4.9358156e-09
1.0161429e-05
2.8698707e-08
4.9898153e-05
9.5121136e-08
0.00014270436
2.4921382e-07
0.00034372305
5.6360842e-07
0.00075359459
1.1213731e-06
0.001540229
1.9184544e-06
0.0029469467
2.6588159e-06
0.0052461046
2.8930535e-06
0.0085805816
2.4787618e-06
0.012686712
1.4344236e-06
0.016669521
-1.01764e-13
0.019186745
-1.4344264e-06
0.019186745
-2.4787702e-06
0.016669521
-2.8930656e-06
0.012686712
-2.6588288e-06
0.0085805816
-1.9184636e-06
0.0052461046
-1.121379e-06
0.0029469467
-5.6361235e-07
0.001540229
-2.492166e-07
0.00075359459
-9.5122796e-08
0.00034372305
-2.870008e-08
0.00014270436
-4.9364608e-09
4.9898153e-05
1.0161429e-05
4.4123105e-09
1.0157016e-05
2.5525543e-08
4.987704e-05
8.3829831e-08
0.00014264605
2.168936e-07
0.00034358999
4.8450011e-07
0.00075332699
9.5635902e-07
0.0015397571
1.6413708e-06
0.0029462616
2.3245785e-06
0.0052454214
2.593949e-06
0.0085803122
2.239359e-06
0.012687066
1.3066708e-06
0.016670453
-1.6916827e-12
0.019188051
-1.3066758e-06
0.019188051
-2.2393666e-06
0.016670453
-2.5939567e-06
0.012687066
-2.3245863e-06
0.0085803122
-1.641379e-06
0.0052454214
-9.5636904e-07
0.0029462616
-4.8451129e-07
0.0015397571
-2.1690383e-07
0.00075332698
-8.3837266e-08
0.00034358999
-2.5530716e-08
0.00014264605
-4.4146484e-09
4.987704e-05
1.0157016e-05
3.6254739e-09
1.0153391e-05
2.1036418e-08
4.9859629e-05
6.9437761e-08
0.00014259765
1.8114083e-07
0.00034347828
4.0971325e-07
0.00075309841
8.2390218e-07
0.0015393429
1.4539901e-06
0.0029456316
2.1430729e-06
0.0052447323
2.4674707e-06
0.0085799878
2.1883915e-06
0.012687346
1.2866415e-06
0.016671355
-6.4272075e-13
0.019189338
-1.2866435e-06
0.019189338
-2.1883942e-06
0.016671355
-2.4674731e-06
0.012687346
-2.1430765e-06
0.0085799878
-1.453998e-06
0.0052447323
-8.2391477e-07
0.0029456316
-4.0972769e-07
0.0015393429
-1.8115366e-07
0.00075309841
-6.9446786e-08
0.00034347828
-2.1042572e-08
0.00014259765
-3.6282415e-09
4.9859629e-05
1.0153391e-05
2.9830363e-09
1.0150408e-05
1.7346757e-08
4.9845265e-05
5.7376828e-08
0.00014255762
1.5007305e-07
0.00034338559
3.4096995e-07
0.00075290751
6.9193021e-07
0.001538992
1.244107e-06
0.0029450794
1.9041845e-06
0.0052440722
2.3015997e-06
0.0085795904
2.0975081e-06
0.01268755
1.252011e-06
0.016672201
7.4880641e-13
0.01919059
-1.2520095e-06
0.01919059
-2.0975063e-06
0.016672201
-2.3015983e-06
0.01268755
-1.904187e-06
0.0085795904
-1.2441168e-06
0.0052440722
-6.9194662e-07
0.0029450794
-3.4098855e-07
0.001538992
-1.5008933e-07
0.00075290751
-5.7388178e-08
0.00034338559
-1.7354341e-08
0.00014255762
-2.9864098e-09
4.9845265e-05
1.0150408e-05
2.4653188e-09
1.0147942e-05
1.4362854e-08
4.9833367e-05
4.7626006e-08
0.00014252436
1.2502792e-07
0.00034330818
2.8558786e-07
0.00075274695
5.8417814e-07
0.0015386934
1.0641831e-06
0.0029445994
1.6641572e-06
0.0052434722
2.0898747e-06
0.0085791647
1.9528956e-06
0.012687687
1.1802464e-06
0.016672973
2.0186543e-12
0.01919177
-1.1802419e-06
0.01919177
-1.9528902e-06
0.016672973
-2.0898707e-06
0.012687687
-1.6641595e-06
0.0085791647
-1.0641948e-06
0.0052434722
-5.8419746e-07
0.0029445994
-2.8560954e-07
0.0015386934
-1.2504678e-07
0.00075274695
-4.7639121e-08
0.00034330818
-1.4371553e-08
0.00014252436
-2.4691748e-09
4.9833367e-05
1.0147942e-05
2.1023623e-09
1.014584e-05
1.2257854e-08
4.9823212e-05
4.0687895e-08
0.00014249593
1.0698962e-07
0.00034324188
2.4507767e-07
0.00075260887
5.0385208e-07
0.0015384346
9.2623399e-07
0.002944177
1.471511e-06
0.005242927
1.890909e-06
0.0085787453
1.805024e-06
0.012687772
1.103692e-06
0.016673675
2.5466318e-12
0.019192874
-1.1036862e-06
0.019192874
-1.8050172e-06
0.016673675
-1.8909044e-06
0.012687772
-1.4715139e-06
0.0085787453
-9.2624734e-07
0.005242927
-5.0387369e-07
0.002944177
-2.4510157e-07
0.0015384346
-1.0701019e-07
0.00075260887
-4.0702082e-08
0.00034324188
-1.2267207e-08
0.00014249593
-2.1064926e-09
4.9823212e-05
1.014584e-05
1.8281838e-09
1.0144011e-05
1.0665375e-08
4.9814375e-05
3.5430086e-08
0.00014247116
9.3282659e-08
0.00034318403
2.1413869e-07
0.00075248801
4.4192704e-07
0.0015382068
8.1811315e-07
0.0029438008
1.3163807e-06
0.0052424287
1.7244945e-06
0.0085783372
1.678044e-06
0.012687819
1.0378062e-06
0.016674315
2.4990865e-12
0.019193912
-1.0378003e-06
0.019193912
-1.6780373e-06
0.016674315
-1.7244907e-06
0.012687819
-1.3163849e-06
0.0085783372
-8.1812836e-07
0.0052424287
-4.4195068e-07
0.0029438008
-2.141643e-07
0.0015382068
-9.3304406e-08
0.00075248801
-3.5444934e-08
0.00034318403
-1.0675082e-08
0.00014247116
-1.8324459e-09
4.9814375e-05
1.0144011e-05
1.6104731e-09
1.0142401e-05
9.3996301e-09
4.9806585e-05
3.1244349e-08
0.00014244932
8.2340285e-08
0.00034313293
1.8932053e-07
0.00075238103
3.9182291e-07
0.0015380043
7.2924152e-07
0.0029434634
1.1851459e-06
0.0052419728
1.5781758e-06
0.0085779442
1.5623402e-06
0.012687835
9.7669929e-07
0.0166749
2.2329302e-12
0.019194888
-9.7669398e-07
0.019194888
-1.5623342e-06
0.0166749
-1.5781731e-06
0.012687835
-1.1851516e-06
0.0085779442
-7.292583e-07
0.0052419728
-3.9184793e-07
0.0029434634
-1.8934703e-07
0.0015380043
-8.2362426e-08
0.00075238103
-3.1259286e-08
0.00034313293
-9.4092881e-09
0.00014244932
-1.6146837e-09
4.9806585e-05
1.0142401e-05
1.432325e-09
1.0140969e-05
8.363054e-09
4.9799655e-05
2.7812684e-08
0.00014242987
7.3352901e-08
0.00034308739
1.6886899e-07
0.00075228551
3.5026838e-07
0.0015378229
6.545836e-07
0.0029431591
1.0720599e-06
0.0052415553
1.446434e-06
0.0085775698
1.4548766e-06
0.012687826
9.1881009e-07
0.016675437
1.9090346e-12
0.019195807
-9.188055e-07
0.019195807
-1.4548715e-06
0.016675437
-1.4464324e-06
0.012687826
-1.0720667e-06
0.0085775698
-6.5460129e-07
0.0052415553
-3.5029371e-07
0.0029431591
-1.6889513e-07
0.0015378229
-7.3374319e-08
0.00075228552
-2.782692e-08
0.00034308739
-8.3721228e-09
0.00014242987
-1.4362412e-09
4.9799655e-05
1.0140969e-05
1.2850334e-09
1.0139684e-05
7.505171e-09
4.9793435e-05
2.4969023e-08
0.0001424124
6.5891439e-08
0.00034304647
1.5183859e-07
0.00075219957
3.1548621e-07
0.0015376593
5.9149776e-07
0.0029428831
9.7478806e-07
0.005241172
1.3297054e-06
0.0085772149
1.3567872e-06
0.012687799
8.6525218e-07
0.016675928
1.6199753e-12
0.019196672
-8.6524823e-07
0.019196672
-1.3567829e-06
0.016675928
-1.3297045e-06
0.012687799
-9.7479544e-07
0.0085772149
-5.9151532e-07
0.005241172
-3.1551032e-07
0.0029428831
-1.5186271e-07
0.0015376593
-6.5910693e-08
0.00075219957
-2.498156e-08
0.00034304647
-7.5129791e-09
0.0001424124
-1.2883563e-09
4.9793435e-05
1.0139684e-05
1.1615341e-09
1.0138522e-05
6.7853358e-09
4.9787811e-05
2.2580714e-08
0.00014239661
5.9615857e-08
0.00034300944
1.3748185e-07
0.0007521217
2.8604782e-07
0.0015375107
5.3771251e-07
0.0029426314
8.9070741e-07
0.005240819
1.2263984e-06
0.0085768792
1.2674895e-06
0.012687758
8.1592658e-07
0.01667638
1.3925656e-12
0.019197488
-8.1592317e-07
0.019197488
-1.2674859e-06
0.01667638
-1.2263981e-06
0.012687758
-8.9071473e-07
0.0085768792
-5.3772863e-07
0.005240819
-2.8606882e-07
0.0029426314
-1.3750191e-07
0.0015375107
-5.9631195e-08
0.0007521217
-2.2590349e-08
0.00034300944
-6.7910858e-09
0.00014239661
-1.1639112e-09
4.9787811e-05
1.0138522e-05
1.0562083e-09
1.0137466e-05
6.1711456e-09
4.9782696e-05
2.0541656e-08
0.00014238224
5.4252667e-08
0.00034297573
1.2519165e-07
0.00075205076
2.6076927e-07
0.0015373751
4.9125333e-07
0.0029424009
8.1722656e-07
0.005240493
1.1341842e-06
0.0085765622
1.1857902e-06
0.012687707
7.7021438e-07
0.016676795
1.1912577e-12
0.019198259
-7.702115e-07
0.019198259
-1.1857872e-06
0.016676795
-1.1341842e-06
0.012687707
-8.1723311e-07
0.0085765622
-4.9126648e-07
0.0052404931
-2.6078496e-07
0.0029424009
-1.252053e-07
0.0015373751
-5.4262108e-08
0.00075205076
-2.0547036e-08
0.00034297573
-6.1739503e-09
0.00014238224
-1.0572492e-09
4.9782696e-05
1.0137466e-05
9.6522167e-10
1.0136501e-05
5.6403628e-09
4.9778021e-05
1.8778623e-08
0.0001423691
4.9611852e-08
0.00034294489
1.1454258e-07
0.00075198583
2.3881229e-07
0.0015372509
4.5070552e-07
0.002942189
7.5248402e-07
0.0052401913
1.0515001e-06
0.0085762632
1.1108309e-06
0.012687647
7.2768796e-07
0.016677178
9.2833376e-13
0.019198986
-7.2768569e-07
0.019198986
-1.1108286e-06
0.016677178
-1.0515003e-06
0.012687647
-7.5248906e-07
0.0085762632
-4.5071404e-07
0.0052401913
-2.388203e-07
0.002942189
-1.1454732e-07
0.0015372509
-4.9613293e-08
0.00075198583
-1.8778315e-08
0.00034294489
-5.6392889e-09
0.0001423691
-9.6451715e-10
4.9778021e-05
1.0136501e-05
8.858931e-10
1.0135615e-05
5.1774206e-09
4.977373e-05
1.7240228e-08
0.00014235704
4.5559539e-08
0.00034291657
1.0523318e-07
0.00075192616
2.1957775e-07
0.0015371365
4.1504364e-07
0.0029419936
6.9509011e-07
0.0052399112
9.7709413e-07
0.0085759812
1.0418663e-06
0.012687582
6.8800405e-07
0.016677532
5.7576704e-13
0.019199674
-6.880026e-07
0.019199674
-1.0418649e-06
0.016677532
-9.7709451e-07
0.012687582
-6.950929e-07
0.0085759812
-4.1504583e-07
0.0052399112
-2.1957564e-07
0.0029419936
-1.0522645e-07
0.0015371365
-4.5550843e-08
0.00075192616
-1.7232783e-08
0.00034291657
-5.1715299e-09
0.00014235704
-8.8303305e-10
4.977373e-05
1.0135615e-05
8.1612419e-10
1.0134799e-05
4.7701515e-09
4.9769776e-05
1.5886339e-08
0.00014234592
4.1991196e-08
0.00034289047
9.7027749e-08
0.00075187112
2.0259478e-07
0.0015370309
3.834501e-07
0.0029418127
6.4389634e-07
0.0052396508
9.0984239e-07
0.0085757152
9.7823459e-07
0.012687514
6.5086497e-07
0.01667786
8.1561057e-14
0.019200325
-6.5086467e-07
0.019200325
-9.7823444e-07
0.01667786
-9.0984306e-07
0.012687514
-6.4389621e-07
0.0085757152
-3.8344428e-07
0.0052396508
-2.0258015e-07
0.0029418127
-9.700704e-08
0.0015370309
-4.1970271e-08
0.00075187112
-1.5870343e-08
0.00034289047
-4.7585321e-09
0.00014234592
-8.1071117e-10
4.9769776e-05
1.0134799e-05
7.5426243e-10
1.0134045e-05
4.4089636e-09
4.9766121e-05
1.4685286e-08
0.00014233564
3.8824202e-08
0.00034286633
8.9739455e-08
0.00075182021
1.8748811e-07
0.0015369332
3.5526646e-07
0.0029416449
5.9795881e-07
0.0052394081
8.4878782e-07
0.0085754644
9.1936517e-07
0.012687443
6.1600885e-07
0.016678163
-5.9599682e-13
0.019200941
-6.1601013e-07
0.019200941
-9.1936673e-07
0.016678163
-8.4878891e-07
0.012687443
-5.9795513e-07
0.0085754644
-3.5525101e-07
0.0052394081
-1.8745863e-07
0.0029416449
-8.970235e-08
0.0015369332
-3.8789048e-08
0.00075182021
-1.4659395e-08
0.00034286633
-4.3907529e-09
0.00014233565
-7.459216e-10
4.9766121e-05
1.0134045e-05
6.9901786e-10
1.0133346e-05
4.0863593e-09
4.9762734e-05
1.3612274e-08
0.00014232612
3.5993716e-08
0.00034284395
8.3221178e-08
0.00075177298
1.7396059e-07
0.0015368425
3.2996617e-07
0.0029414889
5.5650769e-07
0.0052391815
7.9312002e-07
0.0085752278
8.6476661e-07
0.012687372
5.8322971e-07
0.016678444
-1.4804779e-12
0.019201524
-5.8323303e-07
0.019201524
-8.6477037e-07
0.016678444
-7.9312171e-07
0.012687372
-5.5649987e-07
0.0085752278
-3.2993952e-07
0.0052391815
-1.7391404e-07
0.0029414889
-8.3165405e-08
0.0015368425
-3.5942466e-08
0.00075177298
-1.3575235e-08
0.00034284395
-4.0607597e-09
0.00014232612
-6.8740379e-10
4.9762734e-05
1.0133346e-05
6.4937379e-10
1.0132697e-05
3.7964238e-09
4.9759587e-05
1.2647721e-08
0.00014231727
3.3448464e-08
0.00034282315
7.7356315e-08
0.00075172907
1.6177584e-07
0.001536758
3.0712763e-07
0.0029413436
5.1891977e-07
0.0052389698
7.4217217e-07
0.0085750046
8.1401238e-07
0.0126873
5.5234045e-07
0.016678706
-2.5725287e-12
0.019202077
-5.5234629e-07
0.019202077
-8.1401884e-07
0.016678706
-7.4217466e-07
0.0126873
-5.1890726e-07
0.0085750046
-3.0708833e-07
0.0052389698
-1.6171019e-07
0.0029413436
-7.7279786e-08
0.001536758
-3.3379414e-08
0.00075172908
-1.2598399e-08
0.00034282315
-3.7627153e-09
0.00014231727
-6.3417573e-10
4.9759587e-05
1.0132697e-05
6.0451575e-10
1.0132092e-05
3.5344166e-09
4.9756657e-05
1.1775925e-08
0.00014230903
3.114728e-08
0.00034280378
7.2051077e-08
0.00075168817
1.5074309e-07
0.0015366793
2.864084e-07
0.0029412079
4.8468186e-07
0.0052387715
6.9538023e-07
0.0085747939
7.6674254e-07
0.012687229
5.2320236e-07
0.01667895
-3.8566202e-12
0.0192026
-5.2321116e-07
0.0192026
-7.6675218e-07
0.01667895
-6.9538372e-07
0.012687229
-4.8466415e-07
0.0085747939
-2.8635512e-07
0.0052387715
-1.5065649e-07
0.0029412079
-7.1951924e-08
0.0015366793
-3.1058918e-08
0.00075168817
-1.1713315e-08
0.00034280378
-3.4919672e-09
0.00014230903
-5.8546179e-10
4.9756657e-05
1.0132092e-05
5.6378452e-10
1.0131529e-05
3.2965006e-09
4.9753925e-05
1.0984169e-08
0.00014230134
2.9056808e-08
0.00034278571
6.7229378e-08
0.00075165
1.4070728e-07
0.0015366059
2.6752902e-07
0.0029410811
4.5337246e-07
0.0052385856
6.5227529e-07
0.0085745949
7.2263517e-07
0.012687158
4.9567189e-07
0.016679177
-5.3064804e-12
0.019203096
-4.9568404e-07
0.019203096
-7.2264844e-07
0.016679177
-6.5227997e-07
0.012687158
-4.533491e-07
0.008574595
-2.6746059e-07
0.0052385856
-1.4059809e-07
0.0029410811
-6.7105983e-08
0.0015366059
-2.8947832e-08
0.00075165
-1.0907412e-08
0.00034278571
-3.2447736e-09
0.00014230134
-5.4064488e-10
4.9753925e-05
1.0131529e-05
5.2664002e-10
1.0131002e-05
3.0795321e-09
4.9751372e-05
1.0262032e-08
0.00014229416
2.7149689e-08
0.00034276882
6.282873e-08
0.00075161432
1.3154069e-07
0.0015365372
2.5025813e-07
0.0029409624
4.2463798e-07
0.0052384113
6.1245318e-07
0.0085744071
6.8142249e-07
0.012687089
4.696551e-07
0.016679388
-6.8913733e-12
0.019203565
-4.6967093e-07
0.019203565
-6.8143978e-07
0.016679388
-6.1245922e-07
0.012687089
-4.2460858e-07
0.0085744071
-2.5017352e-07
0.0052384113
-1.3140756e-07
0.0029409624
-6.2679747e-08
0.0015365372
-2.7019028e-08
0.00075161432
-1.0170425e-08
0.00034276882
-3.0180923e-09
0.00014229416
-4.9922934e-10
4.9751372e-05
1.0131002e-05
4.9263681e-10
1.0130509e-05
2.8809183e-09
4.9748984e-05
9.6009178e-09
0.00014228744
2.5403349e-08
0.00034275302
5.8797554e-08
0.00075158093
1.2313783e-07
0.0015364728
2.3440426e-07
0.0029408511
3.9818544e-07
0.0052382475
5.755774e-07
0.0085742297
6.4285231e-07
0.012687022
4.4503067e-07
0.016679586
-8.5805662e-12
0.01920401
-4.4505044e-07
0.01920401
-6.4287395e-07
0.016679586
-5.7558495e-07
0.012687022
-3.981497e-07
0.0085742298
-2.3430268e-07
0.0052382475
-1.2297967e-07
0.0029408511
-5.8621922e-08
0.0015364728
-2.525017e-08
0.00075158093
-9.493917e-09
0.00034275302
-2.809435e-09
0.00014228744
-4.6081551e-10
4.9748984e-05
1.0130509e-05
4.6140265e-10
1.0130048e-05
2.6984924e-09
4.9746747e-05
8.9936385e-09
0.00014228114
2.3798902e-08
0.00034273821
5.5092627e-08
0.00075154963
1.1541006e-07
0.0015364125
2.1980564e-07
0.0029407467
3.7376346e-07
0.0052380935
5.4135042e-07
0.0085740622
6.0672443e-07
0.012686957
4.2173908e-07
0.016679771
-1.0378121e-11
0.019204432
-4.2176299e-07
0.019204432
-6.067507e-07
0.016679771
-5.4135963e-07
0.012686957
-3.7372115e-07
0.0085740622
-2.1968647e-07
0.0052380935
-1.1522606e-07
0.0029407467
-5.4889579e-08
0.0015364125
-2.3622613e-08
0.00075154963
-8.8708657e-09
0.00034273821
-2.6167407e-09
0.00014228114
-4.2507734e-10
4.9746747e-05
1.0130048e-05
4.3262476e-10
1.0129615e-05
2.5304318e-09
4.9744649e-05
8.4341485e-09
0.00014227524
2.2320467e-08
0.00034272432
5.1677632e-08
0.00075152028
1.0828294e-07
0.0015363559
2.063265e-07
0.0029406487
3.5116199e-07
0.0052379487
5.095241e-07
0.0085739038
5.7283106e-07
0.012686893
3.9966577e-07
0.016679944
-1.2168118e-11
0.019204832
-3.9969397e-07
0.019204832
-5.728622e-07
0.016679944
-5.0953511e-07
0.012686893
-3.5111296e-07
0.0085739038
-2.0618933e-07
0.0052379487
-1.0807258e-07
0.0029406487
-5.1446688e-08
0.0015363559
-2.2120717e-08
0.00075152028
-8.2953851e-09
0.00034272433
-2.4382898e-09
0.00014227524
-3.9174681e-10
4.9744649e-05
1.0129615e-05
4.0603786e-10
1.0129209e-05
2.3751914e-09
4.974268e-05
7.9173189e-09
0.0001422697
2.0954545e-08
0.00034271129
4.8521609e-08
0.00075149271
1.0169277e-07
0.0015363027
1.9384982e-07
0.0029405565
3.3019643e-07
0.0052378123
4.798734e-07
0.0085737541
5.4102558e-07
0.012686832
3.7878295e-07
0.016680107
-1.4009733e-11
0.01920521
-3.7881553e-07
0.01920521
-5.4106177e-07
0.016680107
-4.7988634e-07
0.012686832
-3.3014064e-07
0.0085737541
-1.9369444e-07
0.0052378123
-1.014558e-07
0.0029405565
-4.8262571e-08
0.0015363027
-2.073121e-08
0.00075149271
-7.7624999e-09
0.00034271129
-2.2726353e-09
0.0001422697
-3.6060118e-10
4.974268e-05
1.0129209e-05
3.8141471e-10
1.0128828e-05
2.2314432e-09
4.9740829e-05
7.4387409e-09
0.00014226449
1.968956e-08
0.00034269904
4.5598091e-08
0.0007514668
9.5585233e-08
0.0015362527
1.8227616e-07
0.0029404698
3.1071159e-07
0.0052376839
4.5220987e-07
0.0085736126
5.1112475e-07
0.012686773
3.5896937e-07
0.016680259
-1.5900778e-11
0.019205569
-3.5900643e-07
0.019205569
-5.1116615e-07
0.016680259
-4.5222488e-07
0.012686773
-3.1064909e-07
0.0085736126
-1.8210255e-07
0.0052376839
-9.5321658e-08
0.0029404698
-4.5311023e-08
0.0015362527
-1.9442731e-08
0.0007514668
-7.2679442e-09
0.00034269904
-2.1185399e-09
0.00014226449
-3.314525e-10
4.974083e-05
1.0128828e-05
3.5856182e-10
1.0128469e-05
2.0980601e-09
4.973909e-05
6.9946685e-09
0.00014225959
1.8515623e-08
0.00034268751
4.288431e-08
0.00075144243
8.9913274e-08
0.0015362057
1.7151855e-07
0.0029403882
2.9256853e-07
0.0052375629
4.2636068e-07
0.0085734788
4.8303079e-07
0.012686717
3.4023294e-07
0.016680402
-1.784254e-11
0.01920591
-3.4027454e-07
0.01920591
-4.8307752e-07
0.016680402
-4.263779e-07
0.012686717
-2.9249942e-07
0.0085734789
-1.7132686e-07
0.0052375629
-8.9623334e-08
0.0029403882
-4.2569505e-08
0.0015362057
-1.8245574e-08
0.00075144243
-6.8080899e-09
0.00034268752
-1.9749499e-09
0.00014225959
-3.0413859e-10
4.973909e-05
1.0128469e-05
3.3730796e-10
1.0128131e-05
1.9740357e-09
4.9737452e-05
6.5817584e-09
0.00014225498
1.7423978e-08
0.00034267667
4.0360315e-08
0.00075141949
8.4636022e-08
0.0015361614
1.6150192e-07
0.0029403113
2.7564887e-07
0.0052374487
4.0217673e-07
0.0085733523
4.5656643e-07
0.012686662
3.2243105e-07
0.016680536
-1.9848482e-11
0.019206232
-3.2247725e-07
0.019206232
-4.5661862e-07
0.016680536
-4.0219631e-07
0.012686662
-2.7557334e-07
0.0085733523
-1.6129246e-07
0.0052374487
-8.432016e-08
0.0029403113
-4.0018262e-08
0.0015361614
-1.7131135e-08
0.00075141949
-6.379692e-09
0.00034267667
-1.8409187e-09
0.00014225498
-2.7851313e-10
4.9737453e-05
1.0128131e-05
3.1751116e-10
1.0127813e-05
1.8585467e-09
4.9735911e-05
6.19727e-09
0.00014225064
1.6407339e-08
0.00034266646
3.8009162e-08
0.00075139789
7.971814e-08
0.0015361197
1.5216061e-07
0.0029402389
2.598471e-07
0.005237341
3.7952735e-07
0.0085732326
4.3168696e-07
0.01268661
3.0561827e-07
0.016680662
-2.1927654e-11
0.019206538
-3.0566909e-07
0.019206538
-4.317447e-07
0.016680662
-3.7954943e-07
0.01268661
-2.5976542e-07
0.0085732327
-1.5193381e-07
0.005237341
-7.9376953e-08
0.0029402389
-3.7640492e-08
0.0015361197
-1.6092236e-08
0.00075139789
-5.9800788e-09
0.00034266646
-1.7156632e-09
0.00014225064
-2.5445073e-10
4.9735911e-05
1.0127814e-05
2.9903535e-10
1.0127514e-05
1.7507838e-09
4.9734458e-05
5.8385151e-09
0.00014224655
1.5458726e-08
0.00034265684
3.5815141e-08
0.00075137753
7.5127712e-08
0.0015360804
1.4343573e-07
0.0029401706
2.450684e-07
0.0052372394
3.5828487e-07
0.0085731194
4.0819874e-07
0.01268656
2.896112e-07
0.01668078
-2.4052767e-11
0.019206827
-2.896667e-07
0.019206827
-4.0826209e-07
0.01668078
-3.583096e-07
0.01268656
-2.4498085e-07
0.0085731195
-1.4319211e-07
0.0052372394
-7.4761888e-08
0.0029401706
-3.5420552e-08
0.0015360804
-1.5121929e-08
0.00075137753
-5.6065702e-09
0.00034265684
-1.5983729e-09
0.00014224656
-2.3181303e-10
4.9734459e-05
1.0127514e-05
2.8178171e-10
1.0127232e-05
1.6501858e-09
4.9733089e-05
5.5036181e-09
0.0001422427
1.4573032e-08
0.00034264777
3.3766005e-08
0.00075135834
7.0838595e-08
0.0015360433
1.3527854e-07
0.0029401062
2.3123585e-07
0.0052371434
3.383612e-07
0.0085730123
3.8612627e-07
0.012686512
2.7453118e-07
0.016680892
-2.6126131e-11
0.019207102
-2.7459148e-07
0.019207102
-3.8619534e-07
0.016680892
-3.3838875e-07
0.012686512
-2.3114277e-07
0.0085730123
-1.3501868e-07
0.0052371434
-7.044886e-08
0.0029401061
-3.3346212e-08
0.0015360433
-1.4215111e-08
0.00075135834
-5.2572886e-09
0.00034264777
-1.4884785e-09
0.0001422427
-2.1049598e-10
4.973309e-05
1.0127232e-05
2.6563025e-10
1.0126965e-05
1.5560197e-09
4.9731798e-05
5.1901481e-09
0.00014223906
1.3744096e-08
0.00034263921
3.1848357e-08
0.00075134023
6.6824262e-08
0.0015360084
1.276397e-07
0.0029400453
2.1826555e-07
0.0052370528
3.196284e-07
0.008572911
3.6522718e-07
0.012686467
2.6012587e-07
0.016680997
-2.818235e-11
0.019207362
-2.60191e-07
0.019207362
-3.6530203e-07
0.016680997
-3.1965891e-07
0.012686467
-2.1816726e-07
0.008572911
-1.2736413e-07
0.0052370528
-6.6411273e-08
0.0029400453
-3.1403967e-08
0.0015360084
-1.3365508e-08
0.00075134023
-4.9297184e-09
0.00034263921
-1.3851862e-09
0.00014223907
-1.903519e-10
4.9731798e-05
1.0126966e-05
2.5053219e-10
1.0126714e-05
1.4680411e-09
4.9730579e-05
4.8972699e-09
0.00014223563
1.2969311e-08
0.00034263114
3.0054942e-08
0.00075132314
6.3067709e-08
0.0015359753
1.204875e-07
0.0029399879
2.0611314e-07
0.0052369672
3.0205682e-07
0.008572815
3.4563024e-07
0.012686423
2.4661723e-07
0.016681096
-3.0212563e-11
0.019207609
-2.4668716e-07
0.019207609
-3.4571086e-07
0.016681096
-3.0209038e-07
0.012686423
-2.0600991e-07
0.0085728151
-1.2019666e-07
0.0052369672
-6.2631966e-08
0.0029399879
-2.9586374e-08
0.0015359753
-1.2570334e-08
0.00075132314
-4.6228891e-09
0.00034263114
-1.2881571e-09
0.00014223564
-1.7128847e-10
4.973058e-05
1.0126714e-05
2.3635506e-10
1.0126477e-05
1.3854029e-09
4.9729429e-05
4.6221899e-09
0.0001422324
1.2241926e-08
0.00034262351
2.8372149e-08
0.00075130701
5.9543682e-08
0.0015359442
1.1377437e-07
0.0029399337
1.9468831e-07
0.0052368863
2.8548355e-07
0.0085727242
3.2699284e-07
0.012686382
2.3364149e-07
0.016681189
-3.220808e-11
0.019207842
-2.3371615e-07
0.019207842
-3.270792e-07
0.016681189
-2.8552019e-07
0.012686382
-1.9458033e-07
0.0085727243
-1.1346855e-07
0.0052368863
-5.9085447e-08
0.0029399337
-2.7879582e-08
0.0015359442
-1.1822658e-08
0.00075130701
-4.3339023e-09
0.00034262352
-1.1964774e-09
0.0001422324
-1.5314516e-10
4.972943e-05
1.0126477e-05
2.2314096e-10
1.0126253e-05
1.3084539e-09
4.9728343e-05
4.3660033e-09
0.00014222934
1.1563789e-08
0.00034261631
2.6800987e-08
0.00075129177
5.6249075e-08
0.0015359147
1.0749423e-07
0.0029398824
1.8400017e-07
0.0052368098
2.6998259e-07
0.0085726383
3.0961608e-07
0.012686342
2.21577e-07
0.016681277
-3.4107708e-11
0.019208064
-2.2165621e-07
0.019208064
-3.09708e-07
0.016681277
-2.7002221e-07
0.012686342
-1.8388742e-07
0.0085726383
-1.0717341e-07
0.0052368098
-5.576827e-08
0.0029398824
-2.6284258e-08
0.0015359147
-1.1124044e-08
0.00075129177
-4.0636559e-09
0.00034261631
-1.1103726e-09
0.00014222934
-1.3591216e-10
4.9728343e-05
1.0126253e-05
2.1067159e-10
1.0126041e-05
1.235748e-09
4.9727316e-05
4.1239968e-09
0.00014222645
1.0924119e-08
0.00034260951
2.5321785e-08
0.00075127736
5.3151285e-08
0.0015358869
1.0158629e-07
0.002939834
1.7391875e-07
0.0052367375
2.5529178e-07
0.0085725569
2.9297385e-07
0.012686304
2.098859e-07
0.01668136
-3.5878215e-11
0.019208274
-2.099694e-07
0.019208274
-2.9307107e-07
0.01668136
-2.5533416e-07
0.012686304
-1.7380103e-07
0.0085725569
-1.0125027e-07
0.0052367375
-5.2647644e-08
0.002939834
-2.4780642e-08
0.0015358869
-1.0463723e-08
0.00075127737
-3.8075035e-09
0.00034260951
-1.0284577e-09
0.00014222645
-1.194036e-10
4.9727317e-05
1.0126042e-05
1.9922894e-10
1.0125841e-05
1.1691893e-09
4.9726345e-05
3.9022795e-09
0.00014222371
1.0336128e-08
0.00034260307
2.3955926e-08
0.00075126374
5.0279552e-08
0.0015358606
9.6100827e-08
0.0029397882
1.6456731e-07
0.005236669
2.4169551e-07
0.0085724798
2.7766892e-07
0.012686268
1.9919752e-07
0.016681439
-3.738937e-11
0.019208473
-1.9928485e-07
0.019208473
-2.7777103e-07
0.016681439
-2.4174022e-07
0.012686269
-1.6444418e-07
0.0085724798
-9.5749131e-08
0.005236669
-4.9752665e-08
0.0029397882
-2.3390119e-08
0.0015358605
-9.8550189e-09
0.00075126374
-3.5717018e-09
0.00034260307
-9.5275975e-10
0.00014222371
-1.0396548e-10
4.9726345e-05
1.0125841e-05
1.8821121e-10
1.0125652e-05
1.1048566e-09
4.9725426e-05
3.6882652e-09
0.00014222113
9.7717396e-09
0.00034259699
2.2654719e-08
0.00075125085
4.7560528e-08
0.0015358356
9.0914476e-08
0.0029397448
1.556928e-07
0.0052366042
2.287061e-07
0.0085724068
2.6286847e-07
0.012686234
1.8871827e-07
0.016681513
-3.8520615e-11
0.019208662
-1.8880898e-07
0.019208662
-2.6297493e-07
0.016681513
-2.2875255e-07
0.012686234
-1.5556362e-07
0.0085724068
-9.0546451e-08
0.0052366042
-4.7009946e-08
0.0029397448
-2.2064243e-08
0.0015358356
-9.2703061e-09
0.00075125085
-3.3441547e-09
0.00034259699
-8.7975564e-10
0.00014222113
-8.9189044e-11
4.9725427e-05
1.0125652e-05
1.7875649e-10
1.0125472e-05
1.0500071e-09
4.9724553e-05
3.5050185e-09
0.00014221867
9.2820918e-09
0.0003425912
2.150608e-08
0.00075123862
4.5123529e-08
0.001535812
8.6233259e-08
0.0029397037
1.4769325e-07
0.0052365428
2.170559e-07
0.0085723374
2.4972421e-07
0.012686202
1.7949885e-07
0.016681583
-3.9089975e-11
0.019208841
-1.7959209e-07
0.019208841
-2.4983448e-07
0.016681583
-2.1710363e-07
0.012686202
-1.4755738e-07
0.0085723375
-8.5848399e-08
0.0052365428
-4.4549393e-08
0.0029397037
-2.0891836e-08
0.001535812
-8.7616267e-09
0.00075123863
-3.1485203e-09
0.00034259121
-8.1720108e-10
0.00014221867
-7.645779e-11
4.9724554e-05
1.0125472e-05
1.6758305e-10
1.0125303e-05
9.8491921e-10
4.9723734e-05
3.2913247e-09
0.00014221636
8.7320739e-09
0.00034258576
2.0278247e-08
0.00075122707
4.2642329e-08
0.0015357897
8.1620714e-08
0.0029396647
1.399113e-07
0.0052364845
2.0572231e-07
0.0085722716
2.3678029e-07
0.012686171
1.7032341e-07
0.01668165
-3.8866511e-11
0.019209011
-1.7041793e-07
0.019209011
-2.3689373e-07
0.01668165
-2.0577129e-07
0.012686171
-1.3976947e-07
0.0085722717
-8.1221585e-08
0.0052364845
-4.2050546e-08
0.0029396647
-1.9649403e-08
0.0015357896
-8.2028753e-09
0.00075122707
-2.9311674e-09
0.00034258576
-7.5062843e-10
0.00014221636
-6.4914445e-11
4.9723734e-05
1.0125303e-05
1.6275028e-10
1.0125139e-05
9.5692906e-10
4.9722938e-05