/*--------------------------------*- C++ -*----------------------------------*\
| =========                 |                                                 |
| \\      /  F ield         | OpenFOAM: The Open Source CFD Toolbox           |
|  \\    /   O peration     | Version:  2406                                  |
|   \\  /    A nd           | Website:  www.openfoam.com                      |
|    \\/     M anipulation  |                                                 |
\*---------------------------------------------------------------------------*/
FoamFile
{
    version     2.0;
    format      ascii;
    arch        "LSB;label=32;scalar=64";
    class       volVectorField;
    location    "24";
    object      U;
}
// * * * * * * * * * * * * * * * * * * * * * * * * * * * * * * * * * * * * * //

dimensions      [0 1 -1 0 0 0 0];

internalField   nonuniform List<vector> 
1176
(
(0.019493789 7.0786498e-07 0)
(0.066677318 8.1696622e-06 0)
(0.13357994 3.9503173e-05 0)
(0.22724701 0.00010873577 0)
(0.35591522 0.00021176027 0)
(0.52772023 0.00030396286 0)
(0.74780387 0.00031818017 0)
(1.0136216 0.00024904584 0)
(1.3093323 0.00016666991 0)
(1.6017081 0.00011264679 0)
(1.8421723 7.0214185e-05 0)
(1.9793239 2.3941046e-05 0)
(1.9793239 -2.3940292e-05 0)
(1.8421723 -7.0213934e-05 0)
(1.6017081 -0.00011264819 0)
(1.3093323 -0.00016667588 0)
(1.0136216 -0.00024906134 0)
(0.74780387 -0.00031820968 0)
(0.52772023 -0.00030400601 0)
(0.35591522 -0.00021180983 0)
(0.227247 -0.00010878159 0)
(0.13357994 -3.9536887e-05 0)
(0.066677315 -8.1885339e-06 0)
(0.019493788 -7.1355822e-07 0)
(0.020187017 -3.7419167e-06 0)
(0.068813532 -2.4638635e-05 0)
(0.13732107 -9.6548549e-05 0)
(0.23247391 -0.0002483946 0)
(0.36204617 -0.00047268784 0)
(0.53373557 -0.00067421191 0)
(0.75267407 -0.00069486958 0)
(1.0170176 -0.00049687389 0)
(1.3116385 -0.00023345941 0)
(1.6034438 -4.9824527e-05 0)
(1.8436588 1.9764937e-05 0)
(1.9807026 1.3428534e-05 0)
(1.9807026 -1.3426018e-05 0)
(1.8436588 -1.976185e-05 0)
(1.6034438 4.9828704e-05 0)
(1.3116385 0.00023346474 0)
(1.0170177 0.00049688096 0)
(0.75267411 0.00069488061 0)
(0.53373559 0.00067422769 0)
(0.36204619 0.00047270569 0)
(0.23247392 0.00024841026 0)
(0.13732107 9.6559045e-05 0)
(0.068813532 2.4643813e-05 0)
(0.020187017 3.7433574e-06 0)
(0.020018442 2.0918381e-06 0)
(0.068327405 1.2720777e-05 0)
(0.13655405 4.687726e-05 0)
(0.23159544 0.00011389738 0)
(0.36138709 0.00019769265 0)
(0.53366969 0.00023903227 0)
(0.75344344 0.00020559794 0)
(1.0184881 0.00011361078 0)
(1.3134639 7.4313075e-05 0)
(1.6053464 7.9532324e-05 0)
(1.8455118 7.0516073e-05 0)
(1.9825245 2.7825445e-05 0)
(1.9825245 -2.7825564e-05 0)
(1.8455118 -7.0516824e-05 0)
(1.6053464 -7.9534356e-05 0)
(1.3134639 -7.431689e-05 0)
(1.0184881 -0.00011361606 0)
(0.75344342 -0.00020560199 0)
(0.53366967 -0.00023903669 0)
(0.36138707 -0.00019769507 0)
(0.23159544 -0.00011389818 0)
(0.13655404 -4.6877019e-05 0)
(0.068327405 -1.2720248e-05 0)
(0.020018442 -2.0916206e-06 0)
(0.019966547 7.0076587e-07 0)
(0.068159232 4.6870505e-06 0)
(0.13624021 1.9355444e-05 0)
(0.2311194 5.6456162e-05 0)
(0.36078093 0.00013444562 0)
(0.53306293 0.00025829305 0)
(0.75295637 0.00035344715 0)
(1.0181104 0.0003691196 0)
(1.313184 0.00030758821 0)
(1.6051633 0.00022777192 0)
(1.8453995 0.00014555921 0)
(1.9824491 4.999748e-05 0)
(1.9824491 -4.9996495e-05 0)
(1.8453995 -0.00014555849 0)
(1.6051633 -0.00022777182 0)
(1.313184 -0.00030758759 0)
(1.0181104 -0.00036911941 0)
(0.75295637 -0.00035344864 0)
(0.53306293 -0.00025829394 0)
(0.36078093 -0.00013444744 0)
(0.2311194 -5.6458282e-05 0)
(0.13624021 -1.9357174e-05 0)
(0.068159233 -4.6880726e-06 0)
(0.019966548 -7.0108008e-07 0)
(0.019942203 2.9076736e-07 0)
(0.068078703 1.9871978e-06 0)
(0.13608628 8.2361036e-06 0)
(0.23087699 2.3699295e-05 0)
(0.36044744 5.688156e-05 0)
(0.53266448 0.00012306871 0)
(0.75256878 0.00022681787 0)
(1.017808 0.00032272171 0)
(1.3129044 0.00034572401 0)
(1.604912 0.00030729924 0)
(1.8452029 0.00021095285 0)
(1.9822898 7.4614692e-05 0)
(1.9822898 -7.4613995e-05 0)
(1.8452029 -0.00021095251 0)
(1.604912 -0.00030729944 0)
(1.3129044 -0.00034572484 0)
(1.017808 -0.00032272152 0)
(0.75256877 -0.00022681706 0)
(0.53266448 -0.00012306721 0)
(0.36044744 -5.6880077e-05 0)
(0.23087699 -2.3698121e-05 0)
(0.13608628 -8.2353673e-06 0)
(0.068078702 -1.9868454e-06 0)
(0.019942203 -2.9066947e-07 0)
(0.019933132 1.7181301e-07 0)
(0.068047755 1.1940679e-06 0)
(0.13602489 5.0651802e-06 0)
(0.23077535 1.4968822e-05 0)
(0.36029899 3.6219471e-05 0)
(0.5324792 7.6944093e-05 0)
(0.75239427 0.00014713743 0)
(1.0177222 0.00023748983 0)
(1.3129292 0.00028525539 0)
(1.6049746 0.00027441437 0)
(1.8452865 0.00019644586 0)
(1.9823834 7.1176899e-05 0)
(1.9823834 -7.1176979e-05 0)
(1.8452865 -0.00019644635 0)
(1.6049746 -0.00027441533 0)
(1.3129292 -0.00028525677 0)
(1.0177222 -0.00023749096 0)
(0.75239427 -0.00014713816 0)
(0.5324792 -7.6944533e-05 0)
(0.36029898 -3.6219779e-05 0)
(0.23077535 -1.4969035e-05 0)
(0.13602488 -5.0653399e-06 0)
(0.068047755 -1.1941679e-06 0)
(0.019933132 -1.7184552e-07 0)
(0.0199234 1.5587401e-07 0)
(0.068015507 1.0700687e-06 0)
(0.13596286 4.4934469e-06 0)
(0.23067607 1.3195424e-05 0)
(0.36015773 3.1857051e-05 0)
(0.53230178 6.695809e-05 0)
(0.75221429 0.00012411863 0)
(1.0176105 0.00019917016 0)
(1.3129358 0.00025490804 0)
(1.6050904 0.00024595136 0)
(1.8454579 0.00018127872 0)
(1.9825798 6.6548383e-05 0)
(1.9825798 -6.6548741e-05 0)
(1.8454579 -0.00018127935 0)
(1.6050904 -0.0002459521 0)
(1.3129358 -0.00025490883 0)
(1.0176105 -0.00019917092 0)
(0.75221429 -0.00012411951 0)
(0.53230178 -6.6959135e-05 0)
(0.36015773 -3.1858111e-05 0)
(0.23067607 -1.3196303e-05 0)
(0.13596286 -4.4940895e-06 0)
(0.068015507 -1.0704424e-06 0)
(0.0199234 -1.5599048e-07 0)
(0.019915697 1.2758354e-07 0)
(0.067989793 8.780063e-07 0)
(0.13591293 3.6959766e-06 0)
(0.23059503 1.0901555e-05 0)
(0.36003987 2.6613258e-05 0)
(0.53214753 5.7236966e-05 0)
(0.75204133 0.00010911026 0)
(1.0174723 0.00017936601 0)
(1.3128926 0.00023802453 0)
(1.6051414 0.00023746738 0)
(1.8455877 0.00017750672 0)
(1.9827514 6.5539396e-05 0)
(1.9827514 -6.5539537e-05 0)
(1.8455877 -0.00017750698 0)
(1.6051414 -0.00023746764 0)
(1.3128926 -0.00023802477 0)
(1.0174723 -0.00017936653 0)
(0.75204133 -0.00010911124 0)
(0.53214753 -5.7238318e-05 0)
(0.36003987 -2.6614621e-05 0)
(0.23059503 -1.0902644e-05 0)
(0.13591293 -3.6967487e-06 0)
(0.067989792 -8.7844872e-07 0)
(0.019915697 -1.2772094e-07 0)
(0.019909217 1.0465376e-07 0)
(0.067968141 7.2312045e-07 0)
(0.13587084 3.0520707e-06 0)
(0.23052654 9.0117706e-06 0)
(0.35993984 2.1999778e-05 0)
(0.53201542 4.7473283e-05 0)
(0.75188901 9.2013859e-05 0)
(1.0173341 0.00015618168 0)
(1.3128278 0.00021699663 0)
(1.6051595 0.00022709624 0)
(1.8456699 0.00017232639 0)
(1.982868 6.4147811e-05 0)
(1.982868 -6.4147671e-05 0)
(1.8456699 -0.00017232626 0)
(1.6051595 -0.00022709608 0)
(1.3128278 -0.00021699658 0)
(1.0173341 -0.00015618223 0)
(0.75188901 -9.2015145e-05 0)
(0.53201542 -4.7475039e-05 0)
(0.35993984 -2.2001521e-05 0)
(0.23052654 -9.013146e-06 0)
(0.13587084 -3.0530305e-06 0)
(0.067968141 -7.2366277e-07 0)
(0.019909217 -1.0482108e-07 0)
(0.019903971 8.6121836e-08 0)
(0.067950553 5.9694504e-07 0)
(0.13583649 2.5273432e-06 0)
(0.2304703 7.4915561e-06 0)
(0.35985692 1.837621e-05 0)
(0.53190436 3.9835567e-05 0)
(0.75175836 7.7712014e-05 0)
(1.0172122 0.00013432423 0)
(1.3127613 0.00019323367 0)
(1.6051772 0.00021058357 0)
(1.8457533 0.00016272991 0)
(1.9829863 6.108446e-05 0)
(1.9829863 -6.108407e-05 0)
(1.8457533 -0.00016272944 0)
(1.6051772 -0.00021058306 0)
(1.3127613 -0.00019323349 0)
(1.0172122 -0.00013432486 0)
(0.75175837 -7.7713538e-05 0)
(0.53190436 -3.9837627e-05 0)
(0.35985692 -1.8378236e-05 0)
(0.2304703 -7.4931469e-06 0)
(0.13583649 -2.5284472e-06 0)
(0.067950553 -5.9756602e-07 0)
(0.019903971 -8.6312998e-08 0)
(0.019899543 7.3352694e-08 0)
(0.067935688 5.0894769e-07 0)
(0.13580742 2.1568608e-06 0)
(0.23042259 6.4027205e-06 0)
(0.35978626 1.574753e-05 0)
(0.5318089 3.4277747e-05 0)
(0.75164409 6.7204525e-05 0)
(1.0171021 0.00011722989 0)
(1.3126976 0.00017262467 0)
(1.6051928 0.00019308919 0)
(1.8458371 0.00015219888 0)
(1.9831061 5.7545027e-05 0)
(1.9831061 -5.7544532e-05 0)
(1.8458371 -0.00015219826 0)
(1.6051928 -0.00019308856 0)
(1.3126976 -0.00017262451 0)
(1.0171021 -0.00011723064 0)
(0.75164409 -6.720625e-05 0)
(0.5318089 -3.4280034e-05 0)
(0.35978626 -1.5749751e-05 0)
(0.23042259 -6.4044478e-06 0)
(0.13580742 -2.1580507e-06 0)
(0.067935688 -5.0961378e-07 0)
(0.019899543 -7.3557345e-08 0)
(0.019895721 6.3724756e-08 0)
(0.06792285 4.4251269e-07 0)
(0.13578228 1.8767222e-06 0)
(0.23038125 5.5765052e-06 0)
(0.35972483 1.3738654e-05 0)
(0.53172535 2.9997978e-05 0)
(0.75154264 5.911154e-05 0)
(1.0170011 0.0001038882 0)
(1.3126345 0.00015540287 0)
(1.6052015 0.00017849541 0)
(1.8459125 0.00014271574 0)
(1.9832185 5.4330823e-05 0)
(1.9832185 -5.433033e-05 0)
(1.8459125 -0.00014271511 0)
(1.6052015 -0.00017849482 0)
(1.3126345 -0.00015540281 0)
(1.0170011 -0.0001038891 0)
(0.75154264 -5.9113458e-05 0)
(0.53172535 -3.0000451e-05 0)
(0.35972483 -1.3741018e-05 0)
(0.23038125 -5.5783217e-06 0)
(0.13578228 -1.8779613e-06 0)
(0.06792285 -4.4320163e-07 0)
(0.019895721 -6.3935816e-08 0)
(0.019892371 5.6089235e-08 0)
(0.067911586 3.8977473e-07 0)
(0.13576021 1.65412e-06 0)
(0.2303449 4.9187619e-06 0)
(0.35967069 1.2132014e-05 0)
(0.53165136 2.6542451e-05 0)
(0.7514519 5.2498804e-05 0)
(1.0169086 9.2875739e-05 0)
(1.3125728 0.00014061497 0)
(1.605205 0.00016529629 0)
(1.8459798 0.00013398943 0)
(1.9833221 5.1387618e-05 0)
(1.9833221 -5.1387175e-05 0)
(1.8459798 -0.00013398886 0)
(1.605205 -0.0001652958 0)
(1.3125728 -0.00014061504 0)
(1.0169086 -9.2876788e-05 0)
(0.7514519 -5.250087e-05 0)
(0.53165136 -2.6545038e-05 0)
(0.35967069 -1.2134439e-05 0)
(0.2303449 -4.9205998e-06 0)
(0.13576021 -1.6553586e-06 0)
(0.067911587 -3.9045736e-07 0)
(0.019892371 -5.6297576e-08 0)
(0.019889403 4.9849237e-08 0)
(0.067901607 3.4661824e-07 0)
(0.13574064 1.4717674e-06 0)
(0.23031264 4.3794008e-06 0)
(0.35962253 1.0812335e-05 0)
(0.53158531 2.3691453e-05 0)
(0.75137029 4.6984204e-05 0)
(1.016824 8.3546379e-05 0)
(1.3125139 0.00012773755 0)
(1.6052051 0.00015293356 0)
(1.8460415 0.00012582047 0)
(1.9834196 4.8616626e-05 0)
(1.9834196 -4.8616243e-05 0)
(1.8460415 -0.00012581997 0)
(1.6052051 -0.00015293317 0)
(1.3125139 -0.00012773772 0)
(1.016824 -8.3547531e-05 0)
(0.75137029 -4.6986333e-05 0)
(0.53158531 -2.3694036e-05 0)
(0.35962253 -1.0814704e-05 0)
(0.23031264 -4.3811655e-06 0)
(0.13574064 -1.4729378e-06 0)
(0.067901607 -3.4725572e-07 0)
(0.019889403 -5.0042792e-08 0)
(0.019886752 4.4699898e-08 0)
(0.067892685 3.1094731e-07 0)
(0.13572313 1.320827e-06 0)
(0.23028375 3.9322276e-06 0)
(0.35957935 9.7159231e-06 0)
(0.53152592 2.1315665e-05 0)
(0.75129648 4.2360363e-05 0)
(1.0167465 7.5620008e-05 0)
(1.3124581 0.00011654244 0)
(1.6052027 0.0001416988 0)
(1.8460982 0.00011827106 0)
(1.9835117 4.6031652e-05 0)
(1.9835117 -4.6031322e-05 0)
(1.8460982 -0.00011827063 0)
(1.6052027 -0.00014169849 0)
(1.3124581 -0.00011654269 0)
(1.0167465 -7.5621191e-05 0)
(0.75129648 -4.2362432e-05 0)
(0.53152592 -2.1318087e-05 0)
(0.35957935 -9.7180822e-06 0)
(0.23028375 -3.9337977e-06 0)
(0.13572313 -1.3218445e-06 0)
(0.067892685 -3.1149164e-07 0)
(0.019886752 -4.4863836e-08 0)
(0.019884362 4.0388082e-08 0)
(0.067884644 2.8104526e-07 0)
(0.13570735 1.1941698e-06 0)
(0.23025769 3.5565167e-06 0)
(0.35954035 8.792952e-06 0)
(0.53147216 1.9310129e-05 0)
(0.75122934 3.8440299e-05 0)
(1.0166753 6.8839093e-05 0)
(1.3124053 0.00010678365 0)
(1.6051983 0.00013155235 0)
(1.8461504 0.00011132802 0)
(1.9835985 4.3631204e-05 0)
(1.9835985 -4.3630917e-05 0)
(1.8461504 -0.00011132766 0)
(1.6051983 -0.0001315521 0)
(1.3124053 -0.00010678393 0)
(1.0166753 -6.8840216e-05 0)
(0.75122934 -3.8442151e-05 0)
(0.53147216 -1.9312191e-05 0)
(0.35954035 -8.7947112e-06 0)
(0.23025769 -3.5577456e-06 0)
(0.13570735 -1.1949333e-06 0)
(0.067884644 -2.8143967e-07 0)
(0.019884362 -4.0504935e-08 0)
(0.019882195 3.6713753e-08 0)
(0.067877349 2.5554684e-07 0)
(0.13569303 1.0860973e-06 0)
(0.23023403 3.235667e-06 0)
(0.3595049 8.0036525e-06 0)
(0.5314232 1.7591044e-05 0)
(0.75116797 3.506738e-05 0)
(1.0166096 6.2964306e-05 0)
(1.3123553 9.8203329e-05 0)
(1.6051923 0.00012233366 0)
(1.8461982 0.00010491313 0)
(1.9836803 4.1390485e-05 0)
(1.9836803 -4.1390239e-05 0)
(1.8461982 -0.00010491282 0)
(1.6051923 -0.00012233347 0)
(1.3123553 -9.8203599e-05 0)
(1.0166096 -6.2965267e-05 0)
(0.75116797 -3.5068831e-05 0)
(0.5314232 -1.759252e-05 0)
(0.3595049 -8.0047967e-06 0)
(0.23023403 -3.2363894e-06 0)
(0.13569303 -1.0864936e-06 0)
(0.067877349 -2.5572829e-07 0)
(0.019882195 -3.6764182e-08 0)
(0.01988022 3.3541784e-08 0)
(0.067870696 2.3352155e-07 0)
(0.13567996 9.9269642e-07 0)
(0.23021243 2.9581979e-06 0)
(0.35947252 7.3203743e-06 0)
(0.53137842 1.6100259e-05 0)
(0.75111164 3.2133163e-05 0)
(1.0165488 5.7823552e-05 0)
(1.3123082 9.0602578e-05 0)
(1.6051852 0.00011395343 0)
(1.8462423 9.8955915e-05 0)
(1.9837576 3.9288948e-05 0)
(1.9837576 -3.9288751e-05 0)
(1.8462423 -9.8955671e-05 0)
(1.6051852 -0.00011395329 0)
(1.3123082 -9.0602804e-05 0)
(1.0165488 -5.7824237e-05 0)
(0.75111164 -3.2134017e-05 0)
(0.53137842 -1.6100904e-05 0)
(0.35947252 -7.320674e-06 0)
(0.23021243 -2.9582382e-06 0)
(0.13567996 -9.9260637e-07 0)
(0.067870696 -2.3342386e-07 0)
(0.01988022 -3.3505534e-08 0)
(0.019878409 3.0778001e-08 0)
(0.0678646 2.1431998e-07 0)
(0.13566798 9.1123009e-07 0)
(0.23019263 2.7160403e-06 0)
(0.35944282 6.7235166e-06 0)
(0.53133728 1.4796144e-05 0)
(0.75105977 2.9559847e-05 0)
(1.0164925 5.3292689e-05 0)
(1.3122638 8.3831667e-05 0)
(1.6051772 0.00010632404 0)
(1.846283 9.3403154e-05 0)
(1.9838307 3.7312385e-05 0)
(1.9838307 -3.7312256e-05 0)
(1.846283 -9.3402996e-05 0)
(1.6051772 -0.00010632396 0)
(1.3122638 -8.3831822e-05 0)
(1.0164925 -5.3292985e-05 0)
(0.75105977 -2.9559898e-05 0)
(0.53133728 -1.4795709e-05 0)
(0.35944282 -6.7227382e-06 0)
(0.23019263 -2.7152211e-06 0)
(0.13566798 -9.105334e-07 0)
(0.0678646 -2.1387672e-07 0)
(0.01987841 -3.0634776e-08 0)
(0.019876745 2.8348516e-08 0)
(0.067858993 1.9743372e-07 0)
(0.13565697 8.3955889e-07 0)
(0.23017441 2.5028935e-06 0)
(0.35941547 6.1977555e-06 0)
(0.53129936 1.3645944e-05 0)
(0.75101183 2.728548e-05 0)
(1.0164401 4.9271879e-05 0)
(1.3122219 7.776779e-05 0)
(1.6051688 9.9356102e-05 0)
(1.8463207 8.8213453e-05 0)
(1.9838998 3.5449418e-05 0)
(1.9838998 -3.5449387e-05 0)
(1.8463207 -8.8213414e-05 0)
(1.6051688 -9.9356112e-05 0)
(1.3122219 -7.7767851e-05 0)
(1.0164401 -4.9271676e-05 0)
(0.75101183 -2.7284528e-05 0)
(0.53129936 -1.3644182e-05 0)
(0.35941547 -6.1956697e-06 0)
(0.23017441 -2.5010407e-06 0)
(0.13565697 -8.381385e-07 0)
(0.067858993 -1.9658043e-07 0)
(0.019876745 -2.8078657e-08 0)
(0.019875209 2.6195228e-08 0)
(0.067853818 1.8246233e-07 0)
(0.1356468 7.759958e-07 0)
(0.23015758 2.313785e-06 0)
(0.3593902 5.7309904e-06 0)
(0.5312643 1.2623726e-05 0)
(0.75096742 2.5260531e-05 0)
(1.0163914 4.5679707e-05 0)
(1.3121824 7.2308153e-05 0)
(1.6051599 9.2973358e-05 0)
(1.8463555 8.3350204e-05 0)
(1.9839652 3.3689391e-05 0)
(1.9839652 -3.3689495e-05 0)
(1.8463555 -8.3350325e-05 0)
(1.6051599 -9.297349e-05 0)
(1.3121824 -7.2308103e-05 0)
(1.0163914 -4.5678899e-05 0)
(0.75096742 -2.5258381e-05 0)
(0.5312643 -1.26204e-05 0)
(0.3593902 -5.7273771e-06 0)
(0.23015759 -2.3107331e-06 0)
(0.1356468 -7.7374072e-07 0)
(0.067853818 -1.8113813e-07 0)
(0.019875209 -2.5780198e-08 0)
(0.019873787 2.4272896e-08 0)
(0.067849027 1.6909333e-07 0)
(0.13563738 7.1922189e-07 0)
(0.230142 2.1448193e-06 0)
(0.35936679 5.3137174e-06 0)
(0.53123178 1.1709066e-05 0)
(0.75092616 2.3445776e-05 0)
(1.016346 4.2450722e-05 0)
(1.3121452 6.7367724e-05 0)
(1.6051509 8.710753e-05 0)
(1.8463878 7.8785067e-05 0)
(1.9840271 3.2023724e-05 0)
(1.9840271 -3.2024007e-05 0)
(1.8463878 -7.8785398e-05 0)
(1.6051509 -8.7107822e-05 0)
(1.3121452 -6.7367551e-05 0)
(1.016346 -4.2449206e-05 0)
(0.75092616 -2.344224e-05 0)
(0.53123178 -1.170395e-05 0)
(0.35936679 -5.3083704e-06 0)
(0.230142 -2.1404139e-06 0)
(0.13563738 -7.1602923e-07 0)
(0.067849028 -1.6724205e-07 0)
(0.019873787 -2.3695624e-08 0)
(0.019872467 2.2545918e-08 0)
(0.067844581 1.570805e-07 0)
(0.13562864 6.6819661e-07 0)
(0.23012754 1.9929189e-06 0)
(0.35934505 4.938413e-06 0)
(0.53120156 1.0885754e-05 0)
(0.75088776 2.180999e-05 0)
(1.0163035 3.9532402e-05 0)
(1.31211 6.2876635e-05 0)
(1.6051418 8.1702116e-05 0)
(1.8464179 7.4491812e-05 0)
(1.9840857 3.0444274e-05 0)
(1.9840857 -3.0444777e-05 0)
(1.8464179 -7.4492399e-05 0)
(1.6051418 -8.1702607e-05 0)
(1.31211 -6.2876328e-05 0)
(1.0163035 -3.9530083e-05 0)
(0.75088776 -2.1804894e-05 0)
(0.53120156 -1.0878641e-05 0)
(0.35934505 -4.9311436e-06 0)
(0.23012754 -1.9870194e-06 0)
(0.13562864 -6.6397328e-07 0)
(0.067844582 -1.5465151e-07 0)
(0.019872467 -2.1791051e-08 0)
(0.01987124 2.0985793e-08 0)
(0.067840446 1.4622661e-07 0)
(0.13562051 6.2208613e-07 0)
(0.23011408 1.8556152e-06 0)
(0.35932481 4.5990324e-06 0)
(0.53117342 1.0140727e-05 0)
(0.75085195 2.0327915e-05 0)
(1.0162638 3.688205e-05 0)
(1.3120768 5.877717e-05 0)
(1.6051327 7.670684e-05 0)
(1.8464458 7.0451322e-05 0)
(1.9841412 2.8945e-05 0)
(1.9841412 -2.8945761e-05 0)
(1.8464458 -7.0452213e-05 0)
(1.6051327 -7.6707569e-05 0)
(1.3120768 -5.877672e-05 0)
(1.0162638 -3.6878841e-05 0)
(0.75085195 -2.0321102e-05 0)
(0.53117342 -1.0131431e-05 0)
(0.35932481 -4.5896723e-06 0)
(0.23011408 -1.8480971e-06 0)
(0.13562051 -6.1675013e-07 0)
(0.067840446 -1.4317556e-07 0)
(0.01987124 -2.0039909e-08 0)
(0.019870096 1.9569465e-08 0)
(0.067836592 1.3637206e-07 0)
(0.13561293 5.8021533e-07 0)
(0.23010153 1.7309089e-06 0)
(0.35930594 4.2906759e-06 0)
(0.53114716 9.4633838e-06 0)
(0.75081849 1.8978992e-05 0)
(1.0162266 3.4464671e-05 0)
(1.3120455 5.5021196e-05 0)
(1.6051237 7.2080912e-05 0)
(1.8464718 6.6642826e-05 0)
(1.9841938 2.751947e-05 0)
(1.9841938 -2.7520524e-05 0)
(1.8464718 -6.6644063e-05 0)
(1.6051237 -7.2081915e-05 0)
(1.3120455 -5.5020595e-05 0)
(1.0162266 -3.4460494e-05 0)
(0.75081849 -1.8970322e-05 0)
(0.53114716 -9.4517424e-06 0)
(0.35930594 -4.2790799e-06 0)
(0.23010153 -1.7216654e-06 0)
(0.13561293 -5.7369685e-07 0)
(0.067836593 -1.3266138e-07 0)
(0.019870096 -1.8421225e-08 0)
(0.019869029 1.8278052e-08 0)
(0.067832995 1.2738615e-07 0)
(0.13560586 5.4203128e-07 0)
(0.23008981 1.6171611e-06 0)
(0.35928832 4.0093226e-06 0)
(0.53112262 8.8450074e-06 0)
(0.75078719 1.7746267e-05 0)
(1.0161917 3.2251322e-05 0)
(1.312016 5.156851e-05 0)
(1.6051149 6.7786492e-05 0)
(1.846496 6.3053104e-05 0)
(1.9842437 2.6163656e-05 0)
(1.9842437 -2.616503e-05 0)
(1.846496 -6.3054723e-05 0)
(1.6051149 -6.7787801e-05 0)
(1.312016 -5.1567751e-05 0)
(1.0161917 -3.2246109e-05 0)
(0.75078719 -1.7735622e-05 0)
(0.53112262 -8.8308846e-06 0)
(0.35928832 -3.9953704e-06 0)
(0.23008981 -1.6061045e-06 0)
(0.13560586 -5.3427343e-07 0)
(0.067832995 -1.2298547e-07 0)
(0.019869029 -1.6918319e-08 0)
(0.019868031 1.7095984e-08 0)
(0.067829631 1.1916108e-07 0)
(0.13559924 5.0707779e-07 0)
(0.23007886 1.5130197e-06 0)
(0.35927183 3.7516549e-06 0)
(0.53109966 8.2784031e-06 0)
(0.75075788 1.6615728e-05 0)
(1.0161589 3.0217911e-05 0)
(1.311988 4.8385079e-05 0)
(1.6051063 6.3793966e-05 0)
(1.8465187 5.9663961e-05 0)
(1.9842909 2.4872201e-05 0)
(1.9842909 -2.4873916e-05 0)
(1.8465187 -5.9665993e-05 0)
(1.6051063 -6.3795608e-05 0)
(1.311988 -4.8384159e-05 0)
(1.0161589 -3.0211608e-05 0)
(0.75075788 -1.6603014e-05 0)
(0.53109966 -8.2616912e-06 0)
(0.35927183 -3.7352524e-06 0)
(0.23007886 -1.5000822e-06 0)
(0.13559924 -4.9803709e-07 0)
(0.067829631 -1.1404741e-07 0)
(0.019868031 -1.5517883e-08 0)
(0.019867097 1.6010254e-08 0)
(0.067826482 1.116068e-07 0)
(0.13559305 4.7497379e-07 0)
(0.2300686 1.4173544e-06 0)
(0.35925639 3.5148944e-06 0)
(0.53107814 7.7575303e-06 0)
(0.75073038 1.5575583e-05 0)
(1.0161281 2.8344182e-05 0)
(1.3119617 4.5442248e-05 0)
(1.6050979 6.0073817e-05 0)
(1.8465398 5.6466953e-05 0)
(1.9843356 2.364279e-05 0)
(1.9843356 -2.3644861e-05 0)
(1.8465398 -5.6469421e-05 0)
(1.6050979 -6.0075818e-05 0)
(1.3119617 -4.5441166e-05 0)
(1.0161281 -2.8336748e-05 0)
(0.75073038 -1.5560728e-05 0)
(0.53107814 -7.7381502e-06 0)
(0.35925639 -3.495974e-06 0)
(0.2300686 -1.4024881e-06 0)
(0.13559305 -4.6462034e-07 0)
(0.067826483 -1.0576466e-07 0)
(0.019867097 -1.4209198e-08 0)
(0.019866221 1.5009937e-08 0)
(0.067823531 1.0464758e-07 0)
(0.13558724 4.4539853e-07 0)
(0.23005898 1.3292141e-06 0)
(0.35924191 3.2967065e-06 0)
(0.53105796 7.2773207e-06 0)
(0.75070457 1.4615926e-05 0)
(1.0160992 2.6612945e-05 0)
(1.3119367 4.2715177e-05 0)
(1.6050897 5.6604375e-05 0)
(1.8465596 5.34445e-05 0)
(1.984378 2.2470444e-05 0)
(1.984378 -2.2472882e-05 0)
(1.8465596 -5.3447425e-05 0)
(1.6050897 -5.6606755e-05 0)
(1.3119367 -4.2713934e-05 0)
(1.0160992 -2.6604353e-05 0)
(0.75070457 -1.4598883e-05 0)
(0.53105796 -7.255222e-06 0)
(0.35924191 -3.2752271e-06 0)
(0.23005898 -1.312391e-06 0)
(0.13558724 -4.3371563e-07 0)
(0.067823531 -9.8068733e-08 0)
(0.019866221 -1.2983551e-08 0)
(0.0198654 1.4085776e-08 0)
(0.067820762 9.8219263e-08 0)
(0.1355818 4.180803e-07 0)
(0.23004996 1.2477917e-06 0)
(0.35922832 3.095103e-06 0)
(0.53103901 6.8334383e-06 0)
(0.75068032 1.3728264e-05 0)
(1.0160719 2.500957e-05 0)
(1.3119132 4.0182972e-05 0)
(1.6050818 5.3361708e-05 0)
(1.8465781 5.059279e-05 0)
(1.9844182 2.1354411e-05 0)
(1.9844182 -2.1357224e-05 0)
(1.8465781 -5.0596186e-05 0)
(1.6050819 -5.3364486e-05 0)
(1.3119132 -4.0181573e-05 0)
(1.0160719 -2.4999806e-05 0)
(0.75068032 -1.3709009e-05 0)
(0.53103901 -6.8085982e-06 0)
(0.35922832 -3.0710485e-06 0)
(0.23004996 -1.2290028e-06 0)
(0.1355818 -4.050639e-07 0)
(0.067820762 -9.0902404e-08 0)
(0.0198654 -1.1833787e-08 0)
(0.019864628 1.3229847e-08 0)
(0.067818161 9.2266715e-08 0)
(0.13557668 3.927852e-07 0)
(0.23004148 1.1723938e-06 0)
(0.35921556 2.9083832e-06 0)
(0.5310212 6.4221919e-06 0)
(0.75065752 1.2905361e-05 0)
(1.0160463 2.3521353e-05 0)
(1.3118909 3.7826815e-05 0)
(1.6050743 5.0329991e-05 0)
(1.8465955 4.789308e-05 0)
(1.9844563 2.0289378e-05 0)
(1.9844563 -2.0292574e-05 0)
(1.8465955 -4.7896959e-05 0)
(1.6050743 -5.0333183e-05 0)
(1.3118909 -3.782527e-05 0)
(1.0160463 -2.3510418e-05 0)
(0.75065752 -1.2883892e-05 0)
(0.5310212 -6.394614e-06 0)
(0.35921556 -2.8817615e-06 0)
(0.23004148 -1.1516476e-06 0)
(0.13557668 -3.7844299e-07 0)
(0.067818161 -8.4216916e-08 0)
(0.019864628 -1.0753923e-08 0)
(0.019863903 1.2435408e-08 0)
(0.067815716 8.6743219e-08 0)
(0.13557187 3.6931513e-07 0)
(0.23003351 1.1024303e-06 0)
(0.35920355 2.7350872e-06 0)
(0.53100445 6.0403818e-06 0)
(0.75063606 1.2140931e-05 0)
(1.0160221 2.2137491e-05 0)
(1.3118699 3.5631323e-05 0)
(1.6050669 4.7489181e-05 0)
(1.8466118 4.5346886e-05 0)
(1.9844924 1.92763e-05 0)
(1.9844924 -1.9279888e-05 0)
(1.8466118 -4.5351258e-05 0)
(1.6050669 -4.7492802e-05 0)
(1.3118699 -3.5629645e-05 0)
(1.0160221 -2.2125396e-05 0)
(0.75063606 -1.2117267e-05 0)
(0.53100445 -6.0100926e-06 0)
(0.35920355 -2.7059265e-06 0)
(0.23003351 -1.0797502e-06 0)
(0.13557187 -3.5366436e-07 0)
(0.067815717 -7.7970681e-08 0)
(0.019863903 -9.7387618e-09 0)
(0.019863221 1.1696497e-08 0)
(0.067813417 8.1606995e-08 0)
(0.13556735 3.4749248e-07 0)
(0.23002601 1.0373757e-06 0)
(0.35919226 2.5739318e-06 0)
(0.53098868 5.6852337e-06 0)
(0.75061585 1.1429519e-05 0)
(1.0159993 2.0848238e-05 0)
(1.31185 3.3581544e-05 0)
(1.6050599 4.4827754e-05 0)
(1.8466272 4.2932298e-05 0)
(1.9845266 1.8308746e-05 0)
(1.9845266 -1.8312735e-05 0)
(1.8466272 -4.293717e-05 0)
(1.6050599 -4.4831817e-05 0)
(1.31185 -3.3579748e-05 0)
(1.0159993 -2.0835006e-05 0)
(0.75061585 -1.1403697e-05 0)
(0.53098868 -5.6522798e-06 0)
(0.35919226 -2.5422778e-06 0)
(0.23002601 -1.0127975e-06 0)
(0.13556735 -3.3055827e-07 0)
(0.067813417 -7.2126037e-08 0)
(0.019863221 -8.7835689e-09 0)
(0.019862579 1.1008181e-08 0)
(0.067811252 7.6824034e-08 0)
(0.13556309 3.2717301e-07 0)
(0.23001895 9.7679761e-07 0)
(0.35918162 2.4238348e-06 0)
(0.53097384 5.354349e-06 0)
(0.75059681 1.0766399e-05 0)
(1.0159778 1.9645583e-05 0)
(1.3118312 3.1666403e-05 0)
(1.6050532 4.2328728e-05 0)
(1.8466415 4.0657738e-05 0)
(1.984559 1.7389894e-05 0)
(1.984559 -1.7394298e-05 0)
(1.8466415 -4.0663115e-05 0)
(1.6050532 -4.2333244e-05 0)
(1.3118312 -3.1664507e-05 0)
(1.0159778 -1.9631245e-05 0)
(0.75059681 -1.0738469e-05 0)
(0.53097384 -5.3187919e-06 0)
(0.35918162 -2.3897456e-06 0)
(0.23001895 -9.5036572e-07 0)
(0.13556309 -3.0898584e-07 0)
(0.067811253 -6.6651731e-08 0)
(0.019862579 -7.8842232e-09 0)
(0.019861974 1.0365725e-08 0)
(0.067809213 7.2360683e-08 0)
(0.13555908 3.0821315e-07 0)
(0.2300123 9.2027428e-07 0)
(0.3591716 2.2837816e-06 0)
(0.53095985 5.0455632e-06 0)
(0.75057886 1.0147306e-05 0)
(1.0159575 1.8521658e-05 0)
(1.3118134 2.987309e-05 0)
(1.6050467 3.9983335e-05 0)
(1.8466551 3.8495489e-05 0)
(1.9845898 1.6511185e-05 0)
(1.9845898 -1.6516011e-05 0)
(1.8466551 -3.8501376e-05 0)
(1.6050467 -3.9988317e-05 0)
(1.3118134 -2.9871114e-05 0)
(1.0159575 -1.8506253e-05 0)
(0.75057886 -1.0117327e-05 0)
(0.53095985 -5.0074722e-06 0)
(0.3591716 -2.24732e-06 0)
(0.2300123 -8.9203505e-07 0)
(0.13555908 -2.8880373e-07 0)
(0.067809214 -6.1513851e-08 0)
(0.019861974 -7.035865e-09 0)
(0.019861404 9.7657095e-09 0)
(0.067807292 6.8193941e-08 0)
(0.13555529 2.9051565e-07 0)
(0.23000603 8.6750788e-07 0)
(0.35916216 2.1529995e-06 0)
(0.53094666 4.7571074e-06 0)
(0.75056194 9.5687347e-06 0)
(1.0159384 1.7470778e-05 0)
(1.3117965 2.8194558e-05 0)
(1.6050405 3.7777894e-05 0)
(1.8466678 3.6463586e-05 0)
(1.9846188 1.5679045e-05 0)
(1.9846188 -1.5684291e-05 0)
(1.8466678 -3.6469991e-05 0)
(1.6050405 -3.7783353e-05 0)
(1.3117965 -2.8192525e-05 0)
(1.0159384 -1.7454348e-05 0)
(0.75056194 -9.5367701e-06 0)
(0.53094666 -4.7165548e-06 0)
(0.35916216 -2.1142292e-06 0)
(0.23000603 -8.3750758e-07 0)
(0.1355553 -2.6991402e-07 0)
(0.067807292 -5.6688692e-08 0)
(0.019861405 -6.2348082e-09 0)
(0.019860867 9.2039547e-09 0)
(0.067805479 6.4293152e-08 0)
(0.13555173 2.7394895e-07 0)
(0.23000012 8.1811961e-07 0)
(0.35915325 2.0306112e-06 0)
(0.53093422 4.48718e-06 0)
(0.75054596 9.0271425e-06 0)
(1.0159203 1.6486006e-05 0)
(1.3117806 2.6618341e-05 0)
(1.6050346 3.5704168e-05 0)
(1.8466798 3.4524766e-05 0)
(1.9846465 1.488132e-05 0)
(1.9846465 -1.4886982e-05 0)
(1.8466798 -3.4531697e-05 0)
(1.6050346 -3.5710113e-05 0)
(1.3117806 -2.661627e-05 0)
(1.0159203 -1.6468593e-05 0)
(0.75054596 -8.9932521e-06 0)
(0.53093422 -4.4442289e-06 0)
(0.35915325 -1.9895852e-06 0)
(0.23000012 -7.863947e-07 0)
(0.13555173 -2.5217767e-07 0)
(0.06780548 -5.2141178e-08 0)
(0.019860867 -5.475489e-09 0)
(0.01986036 8.6788122e-09 0)
(0.067803771 6.0648814e-08 0)
(0.13554837 2.5847374e-07 0)
(0.22999455 7.7197157e-07 0)
(0.35914485 1.9161852e-06 0)
(0.53092248 4.2346492e-06 0)
(0.75053089 8.5202284e-06 0)
(1.0159032 1.5564158e-05 0)
(1.3117655 2.5142347e-05 0)
(1.605029 3.3753805e-05 0)
(1.846691 3.2711059e-05 0)
(1.9846726 1.4129423e-05 0)
(1.9846726 -1.4135497e-05 0)
(1.846691 -3.2718515e-05 0)
(1.605029 -3.3760241e-05 0)
(1.3117655 -2.5140256e-05 0)
(1.0159032 -1.5545797e-05 0)
(0.75053089 -8.4844597e-06 0)
(0.53092248 -4.1893456e-06 0)
(0.35914485 -1.8729378e-06 0)
(0.22999455 -7.3854272e-07 0)
(0.13554837 -2.3554364e-07 0)
(0.067803771 -4.7854893e-08 0)
(0.01986036 -4.7540916e-09 0)
(0.019859881 8.1856333e-09 0)
(0.067802156 5.7225035e-08 0)
(0.13554519 2.4393492e-07 0)
(0.22998928 7.2863371e-07 0)
(0.35913691 1.8087994e-06 0)
(0.53091139 3.9977782e-06 0)
(0.75051664 8.0446437e-06 0)
(1.0158871 1.4698034e-05 0)
(1.3117512 2.375184e-05 0)
(1.6050236 3.1915088e-05 0)
(1.8467017 3.0970199e-05 0)
(1.9846975 1.34054e-05 0)
(1.9846975 -1.3411878e-05 0)
(1.8467017 -3.0978175e-05 0)
(1.6050236 -3.1922012e-05 0)
(1.3117512 -2.3749739e-05 0)
(1.0158871 -1.4678747e-05 0)
(0.75051664 -8.0070238e-06 0)
(0.53091139 -3.9501442e-06 0)
(0.35913691 -1.7633442e-06 0)
(0.22998928 -6.935076e-07 0)
(0.13554519 -2.1984821e-07 0)
(0.067802157 -4.3789388e-08 0)
(0.019859882 -4.0645885e-09 0)
(0.01985943 7.7260238e-09 0)
(0.067800635 5.4037872e-08 0)
(0.13554219 2.3040302e-07 0)
(0.22998432 6.8826255e-07 0)
(0.35912943 1.7086115e-06 0)
(0.53090093 3.7764401e-06 0)
(0.75050321 7.5998901e-06 0)
(1.0158719 1.3888331e-05 0)
(1.3117377 2.2452882e-05 0)
(1.6050185 3.0190464e-05 0)
(1.8467117 2.9355197e-05 0)
(1.9847208 1.2728587e-05 0)
(1.9847208 -1.2735451e-05 0)
(1.8467117 -2.9363676e-05 0)
(1.6050185 -3.0197863e-05 0)
(1.3117377 -2.2450765e-05 0)
(1.0158719 -1.3868119e-05 0)
(0.7505032 -7.5604161e-06 0)
(0.53090093 -3.7264635e-06 0)
(0.35912943 -1.6609309e-06 0)
(0.22998432 -6.5142197e-07 0)
(0.1355422 -2.0514588e-07 0)
(0.067800635 -3.9952097e-08 0)
(0.01985943 -3.4060062e-09 0)
(0.019859003 7.2921816e-09 0)
(0.067799193 5.1024951e-08 0)
(0.13553936 2.1760882e-07 0)
(0.22997961 6.5014142e-07 0)
(0.35912234 1.6142145e-06 0)
(0.53089102 3.5682984e-06 0)
(0.75049047 7.181746e-06 0)
(1.0158574 1.3125316e-05 0)
(1.3117249 2.1223692e-05 0)
(1.6050136 2.8557204e-05 0)
(1.8467212 2.7790976e-05 0)
(1.9847433 1.2071927e-05 0)
(1.9847433 -1.2079152e-05 0)
(1.8467212 -2.7799934e-05 0)
(1.6050136 -2.8565055e-05 0)
(1.3117249 -2.1221539e-05 0)
(1.0158574 -1.310416e-05 0)
(0.75049046 -7.1403943e-06 0)
(0.53089102 -3.5159528e-06 0)
(0.35912234 -1.5642872e-06 0)
(0.22997961 -6.1157375e-07 0)
(0.13553936 -1.911743e-07 0)
(0.067799194 -3.6285631e-08 0)
(0.019859003 -2.7721919e-09 0)
(0.0198586 6.89444e-09 0)
(0.067797836 4.8270026e-08 0)
(0.13553669 2.0591094e-07 0)
(0.22997518 6.1518962e-07 0)
(0.35911566 1.5272586e-06 0)
(0.5308817 3.3756629e-06 0)
(0.75047849 6.7938074e-06 0)
(1.0158438 1.2417932e-05 0)
(1.3117128 2.0086651e-05 0)
(1.605009 2.7040804e-05 0)
(1.84673 2.6362958e-05 0)
(1.9847642 1.1467651e-05 0)
(1.9847642 -1.147519e-05 0)
(1.84673 -2.6372351e-05 0)
(1.605009 -2.7049067e-05 0)
(1.3117129 -2.008442e-05 0)
(1.0158438 -1.2395789e-05 0)
(0.75047849 -6.7505337e-06 0)