/*--------------------------------*- C++ -*----------------------------------*\
  =========                 |
  \\      /  F ield         | OpenFOAM: The Open Source CFD Toolbox
   \\    /   O peration     | Website:  https://openfoam.org
    \\  /    A nd           | Version:  10
     \\/     M anipulation  |
\*---------------------------------------------------------------------------*/
FoamFile
{
    format      ascii;
    class       volScalarField;
    location    "9.4";
    object      T_0;
}
// * * * * * * * * * * * * * * * * * * * * * * * * * * * * * * * * * * * * * //

dimensions      [0 0 -1 0 0 0 0];

internalField   nonuniform List<scalar> 
100
(
0.0276675
0.0820218
0.13347
0.180191
0.220528
0.253052
0.276613
0.290374
0.293848
0.286913
0.269814
0.243156
0.207885
0.165249
0.116759
0.0641326
0.00923454
-0.0459907
-0.0995866
-0.149655
-0.194421
-0.2323
-0.26195
-0.28232
-0.292688
-0.292688
-0.28232
-0.26195
-0.2323
-0.194421
-0.149654
-0.0995864
-0.0459904
0.00923476
0.0641328
0.116759
0.165249
0.207885
0.243156
0.269814
0.286913
0.293848
0.290373
0.276612
0.253052
0.220527
0.18019
0.13347
0.0820212
0.0276669
-0.0276675
-0.0820218
-0.13347
-0.180191
-0.220528
-0.253052
-0.276613
-0.290374
-0.293848
-0.286913
-0.269813
-0.243156
-0.207884
-0.165248
-0.116758
-0.0641322
-0.00923415
0.045991
0.099587
0.149655
0.194421
0.2323
0.26195
0.28232
0.292688
0.292688
0.28232
0.261949
0.2323
0.194421
0.149654
0.0995861
0.0459901
-0.0092351
-0.0641332
-0.116759
-0.165249
-0.207885
-0.243156
-0.269814
-0.286913
-0.293848
-0.290374
-0.276612
-0.253052
-0.220527
-0.18019
-0.13347
-0.0820211
-0.0276669
)
;

boundaryField
{
    inlet
    {
        type            cyclic;
    }
    outlet
    {
        type            cyclic;
    }
    bottom
    {
        type            slip;
    }
    top
    {
        type            slip;
    }
    frontAndBack
    {
        type            empty;
    }
}


// ************************************************************************* //
