/*--------------------------------*- C++ -*----------------------------------*\
| =========                 |                                                 |
| \\      /  F ield         | OpenFOAM: The Open Source CFD Toolbox           |
|  \\    /   O peration     | Version:  2406                                  |
|   \\  /    A nd           | Website:  www.openfoam.com                      |
|    \\/     M anipulation  |                                                 |
\*---------------------------------------------------------------------------*/
FoamFile
{
    version     2.0;
    format      ascii;
    arch        "LSB;label=32;scalar=64";
    class       volScalarField;
    location    "4";
    object      p;
}
// * * * * * * * * * * * * * * * * * * * * * * * * * * * * * * * * * * * * * //

dimensions      [0 2 -2 0 0 0 0];

internalField   nonuniform List<scalar> 
1176
(
0.79099595
0.79101882
0.79104249
0.79105015
0.79101862
0.79092392
0.79076669
0.79058052
0.79040131
0.79023415
0.79007951
0.78998388
0.78998386
0.79007944
0.79023405
0.79040119
0.79058038
0.79076654
0.79092377
0.79101847
0.79105
0.79104233
0.79101867
0.7909958
0.76784751
0.76780055
0.7677528
0.7677359
0.7677984
0.76800075
0.76836606
0.76883046
0.76926131
0.7695474
0.76966678
0.76970102
0.769701
0.76966673
0.76954732
0.76926121
0.76883034
0.76836593
0.7680006
0.76779824
0.76773573
0.76775263
0.76780038
0.76784734
0.75076271
0.75078473
0.75080452
0.75080261
0.75074354
0.75058237
0.7503106
0.74998264
0.74967642
0.74946362
0.7493528
0.74930398
0.74930397
0.74935278
0.74946357
0.74967636
0.74998256
0.75031051
0.75058227
0.75074345
0.75080251
0.75080442
0.75078462
0.75076261
0.73409076
0.73409988
0.73411194
0.73412834
0.73415088
0.73416845
0.73413621
0.7340028
0.73377068
0.73349811
0.73327391
0.73315341
0.73315341
0.73327391
0.73349812
0.73377069
0.7340028
0.73413621
0.73416845
0.73415088
0.73412833
0.73411193
0.73409987
0.73409074
0.71767163
0.71767558
0.71768058
0.71768664
0.71769634
0.71771661
0.7177528
0.71779431
0.71781598
0.71779211
0.71773
0.71767739
0.7176774
0.71773006
0.71779219
0.71781607
0.71779441
0.7177529
0.71771672
0.71769645
0.71768675
0.71768069
0.7176757
0.71767174
0.7012099
0.70121232
0.70121556
0.70121961
0.70122452
0.70123135
0.70124552
0.70127684
0.70132684
0.7013841
0.70142683
0.70144351
0.70144354
0.70142692
0.70138424
0.70132701
0.70127703
0.70124573
0.70123158
0.70122475
0.70121984
0.7012158
0.70121256
0.70121014
0.68480404
0.68480618
0.68480899
0.68481242
0.68481632
0.68481983
0.68482191
0.68482409
0.68483266
0.68484991
0.68486784
0.68487959
0.68487963
0.68486795
0.68485009
0.68483288
0.68482434
0.68482218
0.68482012
0.68481661
0.68481272
0.68480929
0.68480648
0.68480434
0.66842415
0.66842591
0.66842824
0.66843116
0.66843484
0.66843921
0.66844367
0.66844684
0.66844809
0.66844974
0.66844682
0.66844435
0.66844439
0.66844694
0.66844993
0.66844834
0.66844712
0.66844398
0.66843954
0.66843517
0.6684315
0.66842859
0.66842626
0.6684245
0.65206988
0.65207133
0.65207326
0.65207568
0.6520787
0.65208249
0.65208754
0.6520946
0.6521033
0.65211336
0.65212116
0.65212479
0.65212482
0.65212127
0.65211353
0.65210352
0.65209484
0.6520878
0.65208276
0.65207898
0.65207597
0.65207356
0.65207163
0.65207017
0.63573223
0.63573343
0.63573504
0.63573707
0.63573964
0.63574282
0.63574699
0.63575339
0.63576357
0.63577672
0.63579108
0.63580041
0.63580044
0.63579116
0.63577686
0.63576373
0.63575358
0.63574719
0.63574303
0.63573986
0.63573729
0.63573526
0.63573365
0.63573244
0.61940789
0.61940892
0.61941029
0.61941204
0.61941426
0.61941698
0.61942039
0.61942524
0.61943311
0.61944379
0.61945636
0.61946552
0.61946554
0.61945642
0.61944387
0.61943321
0.61942535
0.61942051
0.61941711
0.61941439
0.61941217
0.61941042
0.61940905
0.61940802
0.60309446
0.60309535
0.60309655
0.60309807
0.60310001
0.60310241
0.60310538
0.60310939
0.60311561
0.60312428
0.60313485
0.60314232
0.60314233
0.60313488
0.60312433
0.60311567
0.60310945
0.60310544
0.60310248
0.60310008
0.60309814
0.60309661
0.60309541
0.60309452
0.58679028
0.58679107
0.58679213
0.58679347
0.58679519
0.58679732
0.58679996
0.5868035
0.5868089
0.58681665
0.58682635
0.58683304
0.58683305
0.58682637
0.58681668
0.58680894
0.58680354
0.5868
0.58679736
0.58679523
0.58679351
0.58679216
0.58679111
0.58679032
0.57049407
0.57049477
0.57049571
0.57049692
0.57049845
0.57050036
0.57050271
0.57050584
0.57051061
0.57051759
0.57052626
0.57053236
0.57053237
0.57052629
0.57051762
0.57051065
0.57050587
0.57050274
0.57050039
0.57049849
0.57049695
0.57049575
0.57049481
0.57049411
0.55420481
0.55420544
0.55420629
0.55420737
0.55420875
0.55421047
0.55421257
0.55421533
0.55421949
0.55422563
0.55423317
0.55423859
0.55423859
0.55423319
0.55422566
0.55421952
0.55421537
0.55421261
0.55421051
0.55420879
0.55420741
0.55420633
0.55420548
0.55420485
0.5379217
0.53792227
0.53792303
0.53792401
0.53792527
0.53792682
0.53792872
0.53793117
0.5379348
0.5379402
0.53794676
0.53795157
0.53795158
0.53794678
0.53794023
0.53793484
0.5379312
0.53792875
0.53792686
0.5379253
0.53792405
0.53792307
0.53792231
0.53792174
0.52164411
0.52164462
0.52164532
0.52164621
0.52164735
0.52164876
0.52165048
0.52165268
0.5216559
0.52166069
0.52166645
0.52167078
0.52167078
0.52166647
0.52166072
0.52165594
0.52165272
0.52165052
0.52164881
0.5216474
0.52164626
0.52164537
0.52164467
0.52164415
0.5053715
0.50537197
0.50537261
0.50537342
0.50537446
0.50537575
0.5053773
0.50537928
0.50538216
0.50538645
0.50539155
0.50539546
0.50539548
0.50539158
0.50538649
0.50538221
0.50537933
0.50537736
0.5053758
0.50537452
0.50537348
0.50537267
0.50537203
0.50537156
0.48910345
0.48910388
0.48910446
0.4891052
0.48910615
0.48910732
0.48910874
0.48911053
0.48911312
0.48911698
0.48912152
0.48912506
0.48912508
0.48912158
0.48911705
0.48911321
0.48911063
0.48910885
0.48910744
0.48910627
0.48910533
0.48910459
0.48910401
0.48910358
0.47283958
0.47283997
0.4728405
0.47284118
0.47284204
0.47284312
0.47284441
0.47284605
0.4728484
0.47285187
0.47285591
0.47285908
0.47285911
0.472856
0.472852
0.47284855
0.47284622
0.47284459
0.47284329
0.47284222
0.47284136
0.47284069
0.47284016
0.47283976
0.45657951
0.45657987
0.45658035
0.45658097
0.45658177
0.45658276
0.45658397
0.4565855
0.45658765
0.45659074
0.4565943
0.45659708
0.45659712
0.4565944
0.45659091
0.45658785
0.45658572
0.45658421
0.45658301
0.45658203
0.45658123
0.45658062
0.45658014
0.45657978
0.44032283
0.44032316
0.4403236
0.44032417
0.44032491
0.44032585
0.44032701
0.44032847
0.44033044
0.44033316
0.4403362
0.44033853
0.44033857
0.44033632
0.44033334
0.44033066
0.44032871
0.44032727
0.44032611
0.44032518
0.44032444
0.44032387
0.44032343
0.4403231
0.42406902
0.42406931
0.42406972
0.42407025
0.42407096
0.42407188
0.42407303
0.42407446
0.42407628
0.42407859
0.42408105
0.42408286
0.4240829
0.42408116
0.42407877
0.4240765
0.4240747
0.42407329
0.42407214
0.42407123
0.42407052
0.42406999
0.42406958
0.42406928
0.4078174
0.40781767
0.40781805
0.40781857
0.40781927
0.4078202
0.40782139
0.40782283
0.40782451
0.40782639
0.40782815
0.40782942
0.40782946
0.40782826
0.40782655
0.40782471
0.40782305
0.40782162
0.40782043
0.40781949
0.40781879
0.40781828
0.4078179
0.40781762
0.3915671
0.39156737
0.39156774
0.39156826
0.39156898
0.39156997
0.39157125
0.39157275
0.39157431
0.39157578
0.39157682
0.39157758
0.39157762
0.39157693
0.39157594
0.39157452
0.39157298
0.39157149
0.39157022
0.39156924
0.39156852
0.391568
0.39156763
0.39156736
0.37531723
0.3753175
0.37531789
0.37531843
0.37531921
0.37532029
0.3753217
0.3753233
0.37532479
0.37532591
0.37532646
0.37532679
0.37532683
0.37532658
0.3753261
0.37532501
0.37532353
0.37532193
0.37532053
0.37531944
0.37531866
0.37531811
0.37531772
0.37531745
0.35906709
0.35906739
0.35906782
0.35906842
0.35906929
0.35907049
0.35907202
0.3590737
0.35907514
0.35907601
0.35907642
0.35907657
0.35907662
0.35907655
0.35907621
0.35907539
0.35907399
0.35907233
0.35907081
0.35906962
0.35906875
0.35906815
0.35906772
0.35906743
0.34281637
0.34281671
0.3428172
0.34281788
0.34281885
0.34282017
0.34282179
0.34282351
0.34282484
0.34282556
0.34282624
0.34282648
0.34282652
0.34282637
0.34282575
0.34282508
0.34282377
0.34282208
0.34282046
0.34281915
0.34281818
0.34281749
0.342817
0.34281666
0.32656528
0.32656568
0.32656624
0.32656702
0.32656809
0.32656948
0.3265711
0.32657268
0.32657382
0.32657481
0.32657625
0.32657706
0.3265771
0.32657638
0.32657501
0.32657407
0.32657295
0.32657137
0.32656975
0.32656836
0.32656729
0.32656651
0.32656594
0.32656554
0.31031484
0.31031531
0.31031596
0.31031683
0.31031796
0.31031934
0.31032076
0.31032193
0.31032275
0.31032446
0.31032756
0.31033002
0.31033006
0.31032768
0.31032464
0.31032298
0.31032218
0.31032103
0.31031962
0.31031825
0.31031711
0.31031624
0.31031559
0.31031512
0.2940671
0.29406764
0.29406838
0.29406931
0.29407045
0.29407165
0.29407261
0.29407303
0.2940736
0.29407627
0.29408213
0.29408776
0.29408779
0.29408223
0.29407642
0.29407379
0.29407322
0.29407281
0.29407186
0.29407066
0.29406952
0.29406858
0.29406785
0.29406731
0.27782527
0.27782588
0.27782667
0.27782762
0.27782863
0.27782944
0.27782956
0.27782887
0.27782912
0.27783298
0.27784246
0.27785265
0.27785269
0.27784256
0.27783313
0.27782931
0.27782908
0.27782979
0.27782967
0.27782887
0.27782785
0.27782691
0.27782611
0.2778255
0.26159392
0.26159457
0.26159538
0.26159624
0.26159695
0.26159704
0.26159587
0.26159383
0.26159302
0.26159775
0.26161114
0.26162588
0.26162591
0.26161123
0.26159788
0.26159319
0.26159402
0.26159608
0.26159726
0.26159718
0.26159646
0.2615956
0.26159479
0.26159414
0.24537963
0.24538027
0.245381
0.24538164
0.24538181
0.24538086
0.24537825
0.24537388
0.24537079
0.24537694
0.24539531
0.24541389
0.24541392
0.24539538
0.24537705
0.24537094
0.24537406
0.24537844
0.24538107
0.24538204
0.24538186
0.24538122
0.24538048
0.24537984
0.22919012
0.22919067
0.22919122
0.22919147
0.22919095
0.22918884
0.22918391
0.22917616
0.22917079
0.22917836
0.22920296
0.22922766
0.22922768
0.22920304
0.22917848
0.22917095
0.22917634
0.22918409
0.22918904
0.22919116
0.22919168
0.22919144
0.22919088
0.22919033
0.21303458
0.21303495
0.2130352
0.21303489
0.21303331
0.21302922
0.21302125
0.21300993
0.21300176
0.21301029
0.21304109
0.21307261
0.21307263
0.21304117
0.21301042
0.21300192
0.21301012
0.21302146
0.21302944
0.21303354
0.21303512
0.21303544
0.21303519
0.21303481
0.19692136
0.19692144
0.19692121
0.19692009
0.19691717
0.19691091
0.19689972
0.19688428
0.19687258
0.19688138
0.19691772
0.19695549
0.19695552
0.19691781
0.19688152
0.19687275
0.19688448
0.19689993
0.19691113
0.19691739
0.19692032
0.19692144
0.19692166
0.19692158
0.1808591
0.18085877
0.18085791
0.1808558
0.18085132
0.18084261
0.18082785
0.18080785
0.180792
0.18080016
0.18084112
0.18088452
0.18088456
0.18084123
0.18080032
0.18079219
0.18080806
0.18082807
0.18084284
0.18085155
0.18085604
0.18085815
0.180859
0.18085933
0.16485503
0.16485418
0.16485254
0.16484926
0.164843
0.16483164
0.1648131
0.16478832
0.16476784
0.16477438
0.16481863
0.16486669
0.16486673
0.16481874
0.16477453
0.16476803
0.16478853
0.16481331
0.16483185
0.16484322
0.16484948
0.16485276
0.16485439
0.16485524
0.14891453
0.14891305
0.1489105
0.1489059
0.14889771
0.14888359
0.14886125
0.14883169
0.14880633
0.14881023
0.14885615
0.14890752
0.14890755
0.14885624
0.14881037
0.14880651
0.1488319
0.14886147
0.14888381
0.14889794
0.14890613
0.14891072
0.14891327
0.14891475
0.13304069
0.13303849
0.13303492
0.1330289
0.13301872
0.13300183
0.13297583
0.13294173
0.13291144
0.13291178
0.13295761
0.13301077
0.1330108
0.13295771
0.13291193
0.13291163
0.13294192
0.13297603
0.13300205
0.13301894
0.13302912
0.13303514
0.1330387
0.1330409
0.11723369
0.11723071
0.11722605
0.11721856
0.11720638
0.11718686
0.11715753
0.11711937
0.11708446
0.11708062
0.11712482
0.11717832
0.11717836
0.1171249
0.11708075
0.11708462
0.11711952
0.11715769
0.11718704
0.11720656
0.11721875
0.11722624
0.11723089
0.11723387
0.10149109
0.1014873
0.10148153
0.10147257
0.10145846
0.10143649
0.1014042
0.10136258
0.10132358
0.10131533
0.10135672
0.10140943
0.10140946
0.10135677
0.10131541
0.10132369
0.10136271
0.10140434
0.10143663
0.1014586
0.10147272
0.10148168
0.10148745
0.10149124
0.085805768
0.085801104
0.085794183
0.085783793
0.085767943
0.085743978
0.0857095
0.085665475
0.085623572
0.085612042
0.085651463
0.085704003
0.08570402
0.085651513
0.085612124
0.085623687
0.085665613
0.08570965
0.085744134
0.085768101
0.085783948
0.085794329
0.085801242
0.085805902
0.070175146
0.070169821
0.070161971
0.070150292
0.070132655
0.070106417
0.070069426
0.070022924
0.069978342
0.069963522
0.070000871
0.070052262
0.070052271
0.070000916
0.069963607
0.069978448
0.070023035
0.070069529
0.070106512
0.070132753
0.070150399
0.070162081
0.070169927
0.070175249
0.054567738
0.054561355
0.05455223
0.054539322
0.054520769
0.054494228
0.054457658
0.054412437
0.054371087
0.054363304
0.054412805
0.054477113
0.054477134
0.054412864
0.054363377
0.054371153
0.054412515
0.054457757
0.054494341
0.054520888
0.054539443
0.054552348
0.054561467
0.054567848
0.039042709
0.039036408
0.039027138
0.039013324
0.038992525
0.038962297
0.038921452
0.038871862
0.038822627
0.038799207
0.038819961
0.038854119
0.038854132
0.038819998
0.038799255
0.038822666
0.038871904
0.038921501
0.038962349
0.038992583
0.039013391
0.039027208
0.039036475
0.039042774
0.023402817
0.023393832
0.023381765
0.02336662
0.023347822
0.023324601
0.023295692
0.023262024
0.023235785
0.023249557
0.023329726
0.023416908
0.02341689
0.023329705
0.023249573
0.023235827
0.023262073
0.023295739
0.023324649
0.023347876
0.023366677
0.023381819
0.023393882
0.023402866
0.0081040825
0.0080955616
0.0080841065
0.0080685862
0.008047092
0.0080186344
0.0079840206
0.0079426207
0.007881958
0.0077772572
0.007636946
0.0075300913
0.0075300829
0.0076369337
0.0077772552
0.0078819619
0.0079426279
0.0079840313
0.0080186445
0.0080470978
0.0080685871
0.0080841064
0.008095564
0.0081040889
)
;

boundaryField
{
    INLET
    {
        type            zeroGradient;
    }
    OUTLET
    {
        type            fixedValue;
        value           uniform 0;
    }
    WALL
    {
        type            zeroGradient;
    }
    frontAndBackPlanes
    {
        type            empty;
    }
}


// ************************************************************************* //
