/*--------------------------------*- C++ -*----------------------------------*\
| =========                 |                                                 |
| \\      /  F ield         | OpenFOAM: The Open Source CFD Toolbox           |
|  \\    /   O peration     | Version:  2406                                  |
|   \\  /    A nd           | Website:  www.openfoam.com                      |
|    \\/     M anipulation  |                                                 |
\*---------------------------------------------------------------------------*/
FoamFile
{
    version     2.0;
    format      ascii;
    arch        "LSB;label=32;scalar=64";
    class       surfaceScalarField;
    location    "4";
    object      phi;
}
// * * * * * * * * * * * * * * * * * * * * * * * * * * * * * * * * * * * * * //

dimensions      [0 3 -1 0 0 0 0];

oriented        oriented;

internalField   nonuniform List<scalar> 
2279
(
2.3616954e-08
1.0148927e-05
2.0509486e-07
4.9823752e-05
6.9330979e-07
0.00014252873
1.5784556e-06
0.00034353083
2.6788233e-06
0.00075378091
3.3472656e-06
0.0015415573
3.0435096e-06
0.0029497096
2.1517023e-06
0.005249171
1.4318496e-06
0.008582269
9.896501e-07
0.012685995
5.1272879e-07
0.016666385
6.1196301e-11
0.01918202
-5.1260524e-07
0.01918202
-9.8952945e-07
0.016666385
-1.4317438e-06
0.012685995
-2.1516369e-06
0.0085822691
-3.0434907e-06
0.005249171
-3.347279e-06
0.0029497096
-2.6788453e-06
0.0015415573
-1.5784728e-06
0.00075378089
-6.9331883e-07
0.00034353082
-2.0509804e-07
0.00014252872
-2.3617468e-08
4.9823749e-05
1.0148926e-05
-9.5248966e-08
1.0244176e-05
-5.3794264e-07
5.0266447e-05
-1.623008e-06
0.00014361379
-3.538965e-06
0.0003454468
-5.9202032e-06
0.00075616216
-7.4055185e-06
0.0015430427
-6.5847415e-06
0.0029488889
-3.9361708e-06
0.0052465225
-1.3883997e-06
0.0085797213
-6.5131836e-08
0.012684671
2.4238949e-07
0.016666078
-1.9593585e-11
0.019182263
-2.4242448e-07
0.019182263
6.5108375e-08
0.016666078
1.3883859e-06
0.012684671
3.9361631e-06
0.0085797213
6.5847328e-06
0.0052465224
7.405508e-06
0.0029488888
5.9201895e-06
0.0015430426
3.5389533e-06
0.00075616212
1.6230013e-06
0.00034544677
5.3794003e-07
0.00014361378
9.5248483e-08
5.026644e-05
1.0244174e-05
5.0139494e-08
1.0194037e-05
2.6334315e-07
5.0053244e-05
7.4910234e-07
0.00014312804
1.5314499e-06
0.00034466446
2.3366452e-06
0.00075535698
2.5476514e-06
0.0015428317
1.83908e-06
0.0029495975
9.7563955e-07
0.005247386
6.768973e-07
0.0085800201
6.7170226e-07
0.012684677
4.8406229e-07
0.016666266
-1.0791291e-10
0.019182747
-4.8426511e-07
0.019182747
-6.7187021e-07
0.016666266
-6.7701733e-07
0.012684677
-9.7570623e-07
0.0085800199
-1.8391058e-06
0.0052473858
-2.5476612e-06
0.0029495974
-2.3366526e-06
0.0015428316
-1.5314561e-06
0.00075535691
-7.4910606e-07
0.00034466441
-2.6334449e-07
0.00014312801
-5.0139656e-08
5.0053234e-05
1.0194035e-05
1.9586575e-08
1.0174451e-05
1.1184845e-07
4.9960983e-05
3.612821e-07
0.00014287861
9.0504361e-07
0.0003441207
1.8716531e-06
0.00075439038
3.0948109e-06
0.0015416086
3.8987019e-06
0.0029487936
3.7285128e-06
0.0052475562
2.9241355e-06
0.0085808245
1.9732656e-06
0.012685628
1.0126381e-06
0.016667226
-1.415415e-10
0.01918376
-1.0129062e-06
0.01918376
-1.9734904e-06
0.016667226
-2.9242969e-06
0.012685627
-3.7286129e-06
0.0085808242
-3.8987643e-06
0.0052475559
-3.0948522e-06
0.0029487934
-1.8716786e-06
0.0015416084
-9.0505903e-07
0.00075439029
-3.612899e-07
0.00034412064
-1.1185136e-07
0.00014287857
-1.9587197e-08
4.996097e-05
1.0174447e-05
8.0841141e-09
1.0166366e-05
4.7142347e-08
4.9921925e-05
1.5494928e-07
0.0001427708
3.9846792e-07
0.00034387718
8.7980082e-07
0.00075390905
1.7015169e-06
0.0015407868
2.751252e-06
0.0029477439
3.4622928e-06
0.0052468451
3.4707336e-06
0.008580816
2.8005048e-06
0.012686298
1.5502935e-06
0.016668476
-2.4056851e-10
0.01918531
-1.5507519e-06
0.01918531
-2.8008989e-06
0.016668476
-3.4710344e-06
0.012686297
-3.462483e-06
0.0085808157
-2.7513524e-06
0.0052468448
-1.7015601e-06
0.0029477436
-8.7981731e-07
0.0015407867
-3.9847374e-07
0.00075390894
-1.549512e-07
0.00034387712
-4.7142835e-08
0.00014277076
-8.0841896e-09
4.9921911e-05
1.0166363e-05
4.9363563e-09
1.016143e-05
2.8701267e-08
4.9898159e-05
9.5127808e-08
0.00014270437
2.4922604e-07
0.00034372308
5.6362346e-07
0.00075359464
1.12138e-06
0.0015402291
1.9184325e-06
0.0029469468
2.658743e-06
0.0052461048
2.892917e-06
0.0085805818
2.4785592e-06
0.012686712
1.4341728e-06
0.016669521
-2.7378598e-10
0.019186745
-1.4346946e-06
0.019186745
-2.4790083e-06
0.016669521
-2.8932609e-06
0.012686712
-2.6589779e-06
0.0085805814
-1.9185658e-06
0.0052461044
-1.1214402e-06
0.0029469465
-5.6364482e-07
0.0015402289
-2.4923122e-07
0.00075359455
-9.5128291e-08
0.00034372303
-2.8701182e-08
0.00014270434
-4.9364833e-09
4.9898148e-05
1.0161427e-05
4.4129886e-09
1.0157017e-05
2.5528883e-08
4.9877043e-05
8.3838512e-08
0.00014264606
2.1690898e-07
0.00034359
4.8451758e-07
0.00075332701
9.5636421e-07
0.0015397572
1.6413408e-06
0.0029462618
2.3244891e-06
0.0052454215
2.5937856e-06
0.0085803124
2.2391242e-06
0.012687067
1.3063859e-06
0.016670453
-3.0683518e-10
0.019188051
-1.3069691e-06
0.019188051
-2.2396199e-06
0.016670453
-2.5941508e-06
0.012687066
-2.3247222e-06
0.008580312
-1.6414577e-06
0.0052454212
-9.5640529e-07
0.0029462615
-4.845205e-07
0.001539757
-2.1690032e-07
0.00075332694
-8.3831473e-08
0.00034358996
-2.5526017e-08
0.00014264604
-4.4125784e-09
4.9877036e-05
1.0157015e-05
3.6260952e-09
1.015339e-05
2.10395e-08
4.9859628e-05
6.9445532e-08
0.00014259765
1.811534e-07
0.00034347828
4.09724e-07
0.00075309842
8.2389563e-07
0.001539343
1.4539455e-06
0.0029456316
2.1429702e-06
0.0052447324
2.467297e-06
0.0085799881
2.1881522e-06
0.012687346
1.2863549e-06
0.016671355
-3.0154185e-10
0.019189338
-1.2869244e-06
0.019189338
-2.1886294e-06
0.016671355
-2.4676489e-06
0.012687345
-2.1431901e-06
0.0085799876
-1.4540539e-06
0.0052447321
-8.2393009e-07
0.0029456315
-4.0972162e-07
0.0015393429
-1.8114127e-07
0.00075309839
-6.9436647e-08
0.00034347827
-2.1035877e-08
0.00014259765
-3.6254463e-09
4.9859628e-05
1.0153391e-05
2.9834276e-09
1.0150407e-05
1.7348609e-08
4.9845261e-05
5.7380959e-08
0.00014255761
1.5007748e-07
0.00034338557
3.4096636e-07
0.00075290751
6.9190457e-07
0.001538992
1.2440449e-06
0.0029450794
1.9040743e-06
0.0052440724
2.301434e-06
0.0085795906
2.0972844e-06
0.01268755
1.2517521e-06
0.016672201
-2.6029634e-10
0.01919059
-1.252239e-06
0.01919059
-2.0976808e-06
0.0166722
-2.3017137e-06
0.012687549
-1.9042387e-06
0.0085795902
-1.2441282e-06
0.005244072
-6.919344e-07
0.0029450793
-3.4096601e-07
0.0015389919
-1.5006732e-07
0.00075290751
-5.7373067e-08
0.00034338559
-1.7345346e-08
0.00014255762
-2.9828155e-09
4.9845266e-05
1.0150408e-05
2.4653271e-09
1.0147941e-05
1.4362745e-08
4.9833362e-05
4.7624717e-08
0.00014252435
1.2502146e-07
0.00034330817
2.8556756e-07
0.00075274694
5.8413347e-07
0.0015386934
1.0641074e-06
0.0029445994
1.6640454e-06
0.0052434724
2.0897167e-06
0.0085791649
1.9527019e-06
0.012687687
1.1800462e-06
0.016672973
-1.8809675e-10
0.01919177
-1.1803936e-06
0.01919177
-1.9529744e-06
0.016672973
-2.0898997e-06
0.012687686
-1.6641523e-06
0.0085791644
-1.0641656e-06
0.0052434721
-5.841594e-07
0.0029445993
-2.8557261e-07
0.0015386934
-1.2501799e-07
0.00075274696
-4.762101e-08
0.00034330819
-1.4361004e-08
0.00014252436
-2.4648639e-09
4.983337e-05
1.0147943e-05
2.1020379e-09
1.0145839e-05
1.225613e-08
4.9823208e-05
4.0682539e-08
0.00014249592
1.0697644e-07
0.00034324187
2.4505087e-07
0.00075260886
5.0380738e-07
0.0015384346
9.261726e-07
0.0029441771
1.471438e-06
0.0052429271
1.8908263e-06
0.0085787456
1.8049331e-06
0.012687773
1.1035783e-06
0.016673675
-1.070782e-10
0.019192874
-1.1037729e-06
0.019192874
-1.8050811e-06
0.016673674
-1.8909171e-06
0.012687772
-1.471492e-06
0.008578745
-9.2621243e-07
0.0052429268
-5.0383797e-07
0.0029441769
-2.4507052e-07
0.0015384346
-1.0698678e-07
0.00075260886
-4.0687023e-08
0.00034324189
-1.2257623e-08
0.00014249593
-2.1022808e-09
4.9823214e-05
1.014584e-05
1.8278109e-09
1.0144011e-05
1.066348e-08
4.9814372e-05
3.5424851e-08
0.00014247116
9.3272104e-08
0.00034318403
2.141223e-07
0.00075248802
4.4190717e-07
0.0015382069
8.1809411e-07
0.0029438009
1.316366e-06
0.0052424289
1.7244881e-06
0.0085783375
1.6780205e-06
0.012687819
1.037746e-06
0.016674315
-4.4832145e-11
0.019193912
-1.037824e-06
0.019193912
-1.6780718e-06
0.016674315
-1.7245244e-06
0.012687819
-1.3164013e-06
0.0085783369
-8.1813214e-07
0.0052424285
-4.4194234e-07
0.0029438007
-2.1414961e-07
0.0015382068
-9.3290122e-08
0.00075248799
-3.5434228e-08
0.00034318402
-1.066698e-08
0.00014247116
-1.8285294e-09
4.9814374e-05
1.0144011e-05
1.6102484e-09
1.0142401e-05
9.3984814e-09
4.9806585e-05
3.1241522e-08
0.00014244932
8.2336183e-08
0.00034313294
1.8931822e-07
0.00075238104
3.9182637e-07
0.0015380044
7.2924836e-07
0.0029434635
1.1851407e-06
0.005241973
1.5781393e-06
0.0085779445
1.562269e-06
0.012687835
9.766377e-07
0.016674901
-1.7259697e-11
0.019194888
-9.7666926e-07
0.019194888
-1.5622932e-06
0.0166749
-1.5781676e-06
0.012687834
-1.1851794e-06
0.0085779439
-7.292924e-07
0.0052419726
-3.9186991e-07
0.0029434633
-1.8935402e-07
0.0015380042
-8.2359898e-08
0.00075238099
-3.1253739e-08
0.00034313291
-9.4030615e-09
0.00014244931
-1.6112614e-09
4.9806583e-05
1.01424e-05
1.4323406e-09
1.0140969e-05
8.363126e-09
4.9799654e-05
2.7813379e-08
0.00014242987
7.3356426e-08
0.0003430874
1.6887916e-07
0.00075228553
3.5028497e-07
0.001537823
6.5458967e-07
0.0029431592
1.0720148e-06
0.0052415556
1.4462966e-06
0.0085775702
1.4546909e-06
0.012687827
9.1870244e-07
0.016675437
-1.7744127e-11
0.019195807
-9.187409e-07
0.019195807
-1.4547375e-06
0.016675436
-1.4463537e-06
0.012687826
-1.0720762e-06
0.0085775696
-6.5463898e-07
0.0052415551
-3.5032383e-07
0.0029431589
-1.6890797e-07
0.0015378228
-7.3373426e-08
0.00075228546
-2.7821154e-08
0.00034308736
-8.3657116e-09
0.00014242985
-1.4328067e-09
4.979965e-05
1.0140968e-05
1.2854695e-09
1.0139683e-05
7.5075313e-09
4.9793433e-05
2.4976329e-08
0.0001424124
6.5908592e-08
0.00034304646
1.5186941e-07
0.00075219957
3.1552266e-07
0.0015376593
5.915035e-07
0.0029428832
9.7469799e-07
0.0052411724
1.3294737e-06
0.0085772154
1.3564901e-06
0.0126878
8.650681e-07
0.016675928
-2.9165229e-11
0.019196672
-8.6513303e-07
0.019196672
-1.3565718e-06
0.016675928
-1.3295682e-06
0.012687799
-9.7478836e-07
0.0085772148
-5.9156801e-07
0.0052411719
-3.1556608e-07
0.0029428829
-1.5189928e-07
0.0015376592
-6.5925491e-08
0.00075219949
-2.4983672e-08
0.00034304643
-7.5099016e-09
0.00014241238
-1.2859087e-09
4.9793427e-05
1.0139682e-05
1.162438e-09
1.0138521e-05
6.7901732e-09
4.9787805e-05
2.2594654e-08
0.00014239659
5.9644501e-08
0.00034300941
1.3752339e-07
0.00075212168
2.8607601e-07
0.0015375107
5.3766169e-07
0.0029426316
8.904945e-07
0.0052408195
1.2260069e-06
0.0085768799
1.2670611e-06
0.012687759
8.1561218e-07
0.01667638
-3.6305664e-11
0.019197488
-8.1569125e-07
0.019197488
-1.2671571e-06
0.016676379
-1.226111e-06
0.012687758
-8.9059342e-07
0.0085768793
-5.3773317e-07
0.0052408191
-2.8611746e-07
0.0029426313
-1.3754678e-07
0.0015375106
-5.9657269e-08
0.00075212159
-2.2600593e-08
0.00034300937
-6.7922536e-09
0.00014239657
-1.162857e-09
4.9787797e-05
1.0138519e-05
1.0569353e-09
1.0137464e-05
6.1744987e-09
4.9782687e-05
2.0548625e-08
0.00014238222
5.4256269e-08
0.0003429757
1.251605e-07
0.00075205078
2.6062517e-07
0.0015373753
4.9087559e-07
0.0029424014
8.1653296e-07
0.0052404939
1.1332513e-06
0.0085765632
1.1849261e-06
0.012687707
7.6963054e-07
0.016676795
-4.1191018e-11
0.019198258
-7.6971618e-07
0.019198257
-1.185022e-06
0.016676794
-1.1333564e-06
0.012687706
-8.1664301e-07
0.0085765626
-4.9097205e-07
0.0052404934
-2.606944e-07
0.0029424011
-1.252048e-07
0.0015373751
-5.4281608e-08
0.00075205067
-2.0560855e-08
0.00034297565
-6.1790536e-09
0.00014238219
-1.0579696e-09
4.9782678e-05
1.0137462e-05
9.641749e-10
1.0136499e-05
5.6326737e-09
4.9778018e-05
1.8747017e-08
0.0001423691
4.95098e-08
0.00034294494
1.1426515e-07
0.00075198602
2.3817518e-07
0.0015372514
4.4950658e-07
0.0029421901
7.5071554e-07
0.0052401927
1.0495271e-06
0.0085762644
1.1091898e-06
0.012687647
7.2666286e-07
0.016677177
-5.7569889e-11
0.019198984
-7.2677378e-07
0.019198984
-1.1092939e-06
0.016677177
-1.0496306e-06
0.012687647
-7.5081965e-07
0.0085762638
-4.4959601e-07
0.0052401922
-2.3824141e-07
0.0029421897
-1.1430988e-07
0.0015372511
-4.9534018e-08
0.00075198589
-1.8757296e-08
0.00034294487
-5.6359743e-09
0.00014236907
-9.6472829e-10
4.9778006e-05
1.0136497e-05
8.804404e-10
1.0135619e-05
5.143455e-09
4.9773756e-05
1.7121182e-08
0.00014235713
4.5231596e-08
0.00034291683
1.0446199e-07
0.0007519268
2.1801519e-07
0.0015371378
4.1239625e-07
0.0029419957
6.9152737e-07
0.0052399136
9.7347784e-07
0.0085759825
1.0391455e-06
0.012687582
6.8643531e-07
0.01667753
-1.0125063e-10
0.019199671
-6.8662302e-07
0.019199671
-1.0393022e-06
0.01667753
-9.736177e-07
0.012687581
-6.9165627e-07
0.0085759818
-4.1249748e-07
0.005239913
-2.1808547e-07
0.0029419953
-1.0451479e-07
0.0015371376
-4.5263252e-08
0.00075192667
-1.7134782e-08
0.00034291676
-5.1477864e-09
0.00014235709
-8.8128069e-10
4.9773742e-05
1.0135616e-05
8.0299615e-10
1.0134817e-05
4.6918831e-09
4.9769868e-05
1.5624525e-08
0.0001423462
4.1308489e-08
0.00034289116
9.5517766e-08
0.00075187261
1.9972793e-07
0.0015370337
3.7890067e-07
0.0029418166
6.3815486e-07
0.0052396544
9.04397e-07
0.0085757163
9.7450434e-07
0.012687512
6.4896988e-07
0.016677856
-1.6723775e-10
0.01920032
-6.4927746e-07
0.01920032
-9.7474748e-07
0.016677855
-9.045715e-07
0.012687511
-6.3827463e-07
0.0085757155
-3.7897071e-07
0.0052396538
-1.997494e-07
0.0029418161
-9.5528426e-08
0.0015370334
-4.131874e-08
0.00075187247
-1.5630427e-08
0.00034289109
-4.6942844e-09
0.00014234616
-8.0383367e-10
4.9769855e-05
1.0134814e-05
7.3070752e-10
1.0134086e-05
4.2726023e-09
4.9766326e-05
1.4242865e-08
0.00014233623
3.7713442e-08
0.00034286769
8.739721e-08
0.00075182293
1.8329784e-07
0.0015369378
3.4908074e-07
0.0029416508
5.9080416e-07
0.0052394126
8.4273076e-07
0.0085754643
9.158565e-07
0.012687438
6.1473909e-07
0.016678157
-2.3081763e-10
0.019200935
-6.1516641e-07
0.019200935
-9.1620129e-07
0.016678156
-8.4295529e-07
0.012687438
-5.9092748e-07
0.0085754635
-3.4914947e-07
0.005239412
-1.8330736e-07
0.0029416504
-8.7382804e-08
0.0015369375
-3.7705447e-08
0.00075182283
-1.4241188e-08
0.00034286764
-4.2728597e-09
0.00014233621
-7.3121862e-10
4.9766318e-05
1.0134084e-05
6.6411669e-10
1.0133422e-05
3.8901786e-09
4.97631e-05
1.2995568e-08
0.00014232712
3.4509309e-08
0.00034284617
8.0272298e-08
0.00075177715
1.691235e-07
0.0015368489
3.2369793e-07
0.0029414962
5.5064102e-07
0.0052391856
7.8994786e-07
0.0085752249
8.6479021e-07
0.012687364
5.846551e-07
0.016678437
-2.6058304e-10
0.01920152
-5.8513691e-07
0.019201519
-8.6517793e-07
0.016678436
-7.9018688e-07
0.012687363
-5.5074128e-07
0.0085752241
-3.2374367e-07
0.005239185
-1.6912092e-07
0.0029414958
-8.0235299e-08
0.0015368487
-3.4475779e-08
0.00075177708
-1.2977709e-08
0.00034284614
-3.8833828e-09
0.00014232711
-6.6240275e-10
4.9763096e-05
1.0133421e-05
6.0609734e-10
1.0132816e-05
3.5625556e-09
4.9760142e-05
1.194583e-08
0.00014231874
3.1871004e-08
0.00034282624
7.4555031e-08
0.00075173445
1.5803955e-07
0.0015367654
3.0418159e-07
0.00294135
5.19676e-07
0.0052389701
7.4835763e-07
0.0085749962
8.235597e-07
0.012687288
5.5990224e-07
0.0166787
-2.5023696e-10
0.01920208
-5.6036113e-07
0.019202079
-8.2392225e-07
0.0166787
-7.4859215e-07
0.012687287
-5.197836e-07
0.0085749953
-3.0423751e-07
0.0052389695
-1.58064e-07
0.0029413497
-7.4549535e-08
0.0015367652
-3.185691e-08
0.0007517344
-1.1935843e-08
0.00034282622
-3.5580579e-09
0.00014231873
-6.0459868e-10
4.976014e-05
1.0132815e-05
5.6314271e-10
1.0132252e-05
3.327326e-09
4.9757377e-05
1.1215896e-08
0.00014231084
3.0106516e-08
0.00034280734
7.0898747e-08
0.00075169364
1.512342e-07
0.001536685
2.9237832e-07
0.0029412088
5.0035687e-07
0.0052387621
7.2068597e-07
0.0085747758
7.9464325e-07
0.012687214
5.416474e-07
0.016678953
-2.1664931e-10
0.019202622
-5.420422e-07
0.019202621
-7.9494299e-07
0.016678953
-7.2088222e-07
0.012687213
-5.0044722e-07
0.0085747749
-2.9240521e-07
0.0052387615
-1.5120637e-07
0.0029412084
-7.0845807e-08
0.0015366848
-3.0067036e-08
0.00075169356
-1.1196139e-08
0.0003428073
-3.3199209e-09
0.00014231083
-5.6120402e-10
4.9757372e-05
1.0132251e-05
5.4514741e-10
1.0131706e-05
3.2389542e-09
4.9754683e-05
1.0974295e-08
0.00014230311
2.9616362e-08
0.0003427887
7.0092303e-08
0.00075165317
1.5000657e-07
0.0015366051
2.9005025e-07
0.0029410688
4.9471151e-07
0.0052385574
7.0893254e-07
0.0085745616
7.7919499e-07
0.012687144
5.3055334e-07
0.016679202
-1.8571021e-10
0.019203152
-5.3090396e-07
0.019203152
-7.7946964e-07
0.016679201
-7.09121e-07
0.012687143
-4.9485448e-07
0.0085745606
-2.9019328e-07
0.0052385568
-1.5011342e-07
0.0029410684
-7.0147833e-08
0.0015366049
-2.9648474e-08
0.00075165309
-1.0992937e-08
0.00034278866
-3.2481331e-09
0.00014230309
-5.4847276e-10
4.9754677e-05
1.0131704e-05
5.6130931e-10
1.0131143e-05
3.3472879e-09
4.9751897e-05
1.1372856e-08
0.00014229509
3.075511e-08
0.00034276932
7.2822196e-08
0.00075161111
1.5546703e-07
0.0015365225
2.9862306e-07
0.0029409256
5.0394519e-07
0.0052383521
7.1358694e-07
0.008574352
7.7630722e-07
0.012687081
5.2629664e-07
0.016679452
-1.6823115e-10
0.019203679
-5.2663665e-07
0.019203678
-7.7660741e-07
0.016679451
-7.1377744e-07
0.01268708
-5.0401135e-07
0.0085743508
-2.9865998e-07
0.0052383514
-1.5546652e-07
0.0029409251
-7.2784819e-08
0.0015365222
-3.0729989e-08
0.00075161098
-1.136567e-08
0.00034276926
-3.3474502e-09
0.00014229506
-5.6249787e-10
4.9751887e-05
1.0131141e-05
6.1620163e-10
1.0130526e-05
3.6758718e-09
4.9748838e-05
1.247717e-08
0.00014228629
3.3652216e-08
0.00034274815
7.9267515e-08
0.0007515655
1.6772658e-07
0.001536434
3.1785599e-07
0.0029407755
5.2702008e-07
0.0052381429
7.3191001e-07
0.008574147
7.8304218e-07
0.01268703
5.2775999e-07
0.016679707
-1.6493482e-10
0.019204207
-5.2811752e-07
0.019204206
-7.8342916e-07
0.016679706
-7.3226357e-07
0.012687029
-5.272518e-07
0.0085741459
-3.180251e-07
0.0052381422
-1.6780331e-07
0.002940775
-7.9230594e-08
0.0015364338
-3.359608e-08
0.00075156539
-1.2445831e-08
0.00034274811
-3.6644122e-09
0.00014228627
-6.131577e-10
4.9748831e-05
1.0130524e-05
7.0979946e-10
1.0129814e-05
4.2196634e-09
4.9745328e-05
1.4252291e-08
0.00014227626
3.815574e-08
0.00034272425
8.8917363e-08
0.00075151474
1.8538345e-07
0.0015363375
3.4463135e-07
0.0029406162
5.585156e-07
0.005237929
7.5617385e-07
0.0085739493
7.9382165e-07
0.012686992
5.3270904e-07
0.016679968
-1.50524e-10
0.01920474
-5.3304093e-07
0.019204739
-7.9418467e-07
0.016679968
-7.5652842e-07
0.012686991
-5.5877341e-07
0.0085739482
-3.4484026e-07
0.0052379283
-1.8554634e-07
0.0029406158
-8.896537e-08
0.0015363373
-3.8151403e-08
0.00075151465
-1.4246592e-08
0.00034272422
-4.2193897e-09
0.00014227625
-7.1065446e-10
4.9745324e-05
1.0129813e-05
8.3686393e-10
1.0128975e-05
4.941906e-09
4.9741223e-05
1.6555428e-08
0.00014226465
4.3825318e-08
0.00034269698
1.0058842e-07
0.00075145796
2.0561616e-07
0.0015362325
3.7311771e-07
0.0029404487
5.8769906e-07
0.0052377144
7.7319038e-07
0.0085737638
7.9779465e-07
0.012686968
5.3260559e-07
0.016680234
-1.3540017e-10
0.019205272
-5.3292426e-07
0.019205272
-7.9815877e-07
0.016680233
-7.7353687e-07
0.012686967
-5.8788134e-07
0.0085737626
-3.7314146e-07
0.0052377135
-2.0557476e-07
0.0029404481
-1.0049238e-07
0.0015362322
-4.3745778e-08
0.00075145784
-1.6518973e-08
0.00034269693
-4.9312239e-09
0.00014226463
-8.3516961e-10
4.9741217e-05
1.0128974e-05
9.8583519e-10
1.0127987e-05
5.7692814e-09
4.9736438e-05
1.9123188e-08
0.00014225129
4.9902905e-08
0.00034266619
1.1235775e-07
0.00075139549
2.2403828e-07
0.0015361208
3.9408027e-07
0.0029402786
5.9905758e-07
0.0052375094
7.6453192e-07
0.0085735983
7.7357758e-07
0.012686959
5.0935128e-07
0.016680498
-1.1766741e-10
0.019205782
-5.0964827e-07
0.019205782
-7.7393663e-07
0.016680497
-7.6490094e-07
0.012686958
-5.9932742e-07
0.0085735972
-3.9425703e-07
0.0052375086
-2.2418036e-07
0.0029402782
-1.1240174e-07
0.0015361205
-4.9899078e-08
0.00075139539
-1.9118089e-08
0.00034266616
-5.76852e-09
0.00014225128
-9.8584075e-10
4.9736434e-05
1.0127986e-05
1.1405123e-09
1.0126844e-05
6.6002237e-09
4.9730977e-05
2.159284e-08
0.0001422363
5.5351485e-08
0.00034263243
1.2162491e-07
0.0007513292
2.3469743e-07
0.0015360077
3.9601509e-07
0.0029401172
5.7535456e-07
0.00523733
7.0917066e-07
0.0085734645
6.962478e-07
0.012686972
4.4381254e-07
0.01668075
-1.1813797e-10
0.019206226
-4.4406599e-07
0.019206226
-6.9649914e-07
0.01668075
-7.0938507e-07
0.012686971
-5.7547541e-07
0.0085734633
-3.9610104e-07
0.0052373291
-2.3480828e-07
0.0029401167
-1.2164958e-07
0.0015360074
-5.5325595e-08
0.00075132905
-2.1571866e-08
0.00034263237
-6.5917861e-09
0.00014223627
-1.1382814e-09
4.973097e-05
1.0126843e-05
1.2787855e-09
1.0125564e-05
7.296658e-09
4.9724959e-05
2.3476357e-08
0.00014222011
5.8801203e-08
0.0003425971
1.2504126e-07
0.00075126295
2.3053772e-07
0.0015359022
3.6639676e-07
0.0029399814
4.9948596e-07
0.0052371969
5.8122908e-07
0.0085733828
5.4401736e-07
0.012687009
3.3031895e-07
0.016680964
-1.5571158e-10
0.019206556
-3.306165e-07
0.019206556
-5.4426573e-07
0.016680963
-5.814411e-07
0.012687008
-4.9961516e-07
0.0085733815
-3.6649011e-07
0.005237196
-2.3067193e-07
0.0029399808
-1.2509318e-07
0.0015359019
-5.8789419e-08
0.0007512628
-2.3458922e-08
0.00034259704
-7.2872622e-09
0.00014222009
-1.2751847e-09
4.9724951e-05
1.0125563e-05
1.3645453e-09
1.0124201e-05
7.6420277e-09
4.9718682e-05
2.4046521e-08
0.00014220371
5.8345972e-08
0.00034256279
1.1836149e-07
0.00075120292
2.0332995e-07
0.0015358172
2.9247814e-07
0.0029398922
3.4911e-07
0.0052371402
3.4834923e-07
0.0085733835
2.9279971e-07
0.012687065
1.7022588e-07
0.016681087
-1.6429348e-10
0.019206727
-1.7051968e-07
0.019206726
-2.9306385e-07
0.016681086
-3.4864884e-07
0.012687063
-3.493743e-07
0.0085733823
-2.9264229e-07
0.0052371392
-2.0347442e-07
0.0029398916
-1.1839857e-07
0.0015358168
-5.8319009e-08
0.00075120276
-2.4021788e-08
0.00034256272
-7.6295683e-09
0.00014220368
-1.3604176e-09
4.9718673e-05
1.0124199e-05
1.3431094e-09
1.0122861e-05
7.323624e-09
4.9712701e-05
2.2286417e-08
0.00014218874
5.1382256e-08
0.00034253368
9.5851751e-08
0.00075115844
1.4257935e-07
0.0015357704
1.5373636e-07
0.002939881
8.7148239e-08
0.0052372067
-3.1488644e-08
0.0085735021
-1.0133226e-07
0.012687134
-7.6526366e-08
0.016681062
-1.7724323e-10
0.01920665
7.6188426e-08
0.01920665
1.0101962e-07
0.016681061
3.1110125e-08
0.012687133
-8.7527313e-08
0.0085735009
-1.5400358e-07
0.0052372057
-1.4282718e-07
0.0029398804
-9.5986111e-08
0.0015357701
-5.1409068e-08
0.00075115826
-2.2279103e-08
0.0003425336
-7.3133988e-09
0.0001421887
-1.3382844e-09
4.971269e-05
1.0122859e-05
1.169086e-09
1.0121698e-05
6.0830914e-09
4.9707787e-05
1.7371788e-08
0.00014217744
3.5891361e-08
0.00034251514
5.3367011e-08
0.00075114094
3.8426913e-08
0.0015357853
-7.0061208e-08
0.0029399895
-3.1424689e-07
0.0052374509
-5.9381105e-07
0.0085737817
-6.7498427e-07
0.012687216
-4.4035143e-07
0.016680827
-1.966538e-10
0.01920621
4.3994557e-07
0.01920621
6.7457946e-07
0.016680826
5.9339899e-07
0.012687214
3.1389224e-07
0.0085737803
6.9846433e-08
0.0052374498
-3.8649047e-08
0.0029399888
-5.3533237e-08
0.0015357849
-3.5954359e-08
0.00075114072
-1.7376713e-08
0.00034251504
-6.0716178e-09
0.00014217739
-1.1618732e-09
4.9707771e-05
1.0121695e-05
7.9024065e-10
1.0120918e-05
3.6304498e-09
4.9704947e-05
8.3806495e-09
0.00014217267
9.4928525e-09
0.00034251401
-1.4705604e-08
0.00075116512
-1.1933612e-07
0.0015358899
-3.929085e-07
0.002940263
-8.7229822e-07
0.0052379302
-1.3622759e-06
0.0085742716
-1.4541452e-06
0.012687308
-9.3485931e-07
0.016680308
-2.2758587e-10
0.019205276
9.3436898e-07
0.019205275
1.4536555e-06
0.016680307
1.3618403e-06
0.012687306
8.7193087e-07
0.0085742702
3.9268126e-07
0.0052379291
1.1913039e-07
0.0029402623
1.4528717e-08
0.0015358895
-9.5935023e-09
0.00075116488
-8.4133548e-09
0.00034251389
-3.629435e-09
0.00014217262
-7.8552064e-10
4.9704928e-05
1.0120914e-05
1.8084879e-10
1.0120751e-05
-1.7583887e-10
4.9705302e-05
-5.1229108e-09
0.0001421776
-2.8796819e-08
0.00034253765
-1.1018074e-07
0.00075124649
-3.3292434e-07
0.0015361127
-8.1685408e-07
0.0029407469
-1.5922278e-06
0.0052387056
-2.3468922e-06
0.0085750263
-2.451836e-06
0.012687413
-1.5676777e-06
0.016679424
-2.8330764e-10
0.019203708
1.5671111e-06
0.019203708
2.4513345e-06
0.016679423
2.3464851e-06
0.012687411
1.591861e-06
0.0085750249
8.1660235e-07
0.0052387044
3.3275895e-07
0.0029407461
1.1008041e-07
0.0015361122
2.8749872e-08
0.00075124622
5.1148831e-09
0.00034253752
1.8681348e-10
0.00014217754
-1.7351504e-10
4.970528e-05
1.0120746e-05
-6.708062e-10
1.012144e-05
-5.3901135e-09
4.9710021e-05
-2.3273552e-08
0.00014219546
-7.9162557e-08
0.00034259351
-2.3257784e-07
0.0007513999
-6.0056575e-07
0.0015364807
-1.339004e-06
0.0029414853
-2.4702406e-06
0.0052398368
-3.5458293e-06
0.0085761019
-3.6709682e-06
0.012687538
-2.3429853e-06
0.016678096
-3.6430025e-10
0.019201366
2.3423219e-06
0.019201365
3.67045e-06
0.016678095
3.5454322e-06
0.012687536
2.4699126e-06
0.0085761004
1.3387801e-06
0.0052398356
6.0039378e-07
0.0029414845
2.3246533e-07
0.0015364802
7.9123384e-08
0.00075139961
2.3282323e-08
0.00034259336
5.4143389e-09
0.00014219539
6.8390395e-10
4.9709995e-05
1.0121434e-05
-1.7579948e-09
1.012322e-05
-1.1956015e-08
4.9720219e-05
-4.5818756e-08
0.0001422293
-1.4077916e-07
0.00034268844
-3.799866e-07
0.00075163911
-9.1797996e-07
0.0015370187
-1.9506562e-06
0.002942518
-3.4922781e-06
0.0052413784
-4.9433999e-06
0.008577553
-5.1013118e-06
0.012687696
-3.257424e-06
0.016676252
-4.0356701e-10
0.019198109
3.2567158e-06
0.019198108
5.1007744e-06
0.016676251
4.9429948e-06
0.012687694
3.4919913e-06
0.0085775514
1.9505321e-06
0.0052413771
9.1789117e-07
0.0029425171
3.7986252e-07
0.0015370181
1.4069422e-07
0.00075163879
4.5802205e-08
0.00034268827
1.1973198e-08
0.00014222921
1.769501e-09
4.9720188e-05
1.0123214e-05
-3.0628411e-09
1.0126308e-05
-1.9755561e-08
4.973691e-05
-7.2330508e-08
0.00014228184
-2.1239836e-07
0.00034282847
-5.4913997e-07
0.00075197586
-1.2776385e-06
0.0015377472
-2.636841e-06
0.0029438772
-4.6340821e-06
0.0052433756
-6.5102458e-06
0.0085794291
-6.7187581e-06
0.012687904
-4.2986969e-06
0.016673832
-3.7631449e-10
0.01919381
4.2980134e-06
0.01919381
6.7181907e-06
0.016673831
6.5098282e-06
0.012687903
4.6337409e-06
0.0085794275
2.6366055e-06
0.0052433743
1.2775458e-06
0.0029438762
5.4906244e-07
0.0015377466
2.1232755e-07
0.0007519755
7.2310695e-08
0.00034282828
1.9769442e-08
0.00014228175
3.0720677e-09
4.9736875e-05
1.0126301e-05
-4.5445409e-09
1.013088e-05
-2.854125e-08
4.9760903e-05
-1.0195626e-07
0.00014235522
-2.9169464e-07
0.00034301816
-7.345195e-07
0.00075241866
-1.6678578e-06
0.0015386805
-3.3756797e-06
0.0029455849
-5.8607634e-06
0.0052458606
-8.2024427e-06
0.0085817707
-8.4842154e-06
0.012688186
-5.4456195e-06
0.016670793
-3.5097843e-10
0.019188365
5.4449373e-06
0.019188364
8.4835629e-06
0.016670792
8.2020187e-06
0.012688184
5.8604914e-06
0.008581769
3.3753621e-06
0.0052458594
1.6676544e-06
0.002945584
7.3443798e-07
0.0015386798
2.9166143e-07
0.00075241827
1.0196232e-07
0.00034301794
2.8566705e-08
0.00014235511
4.5571655e-09
4.9760864e-05
1.0130872e-05
-6.1673489e-09
1.0137077e-05
-3.8092858e-08
4.9792827e-05
-1.3391739e-07
0.00014245101
-3.7645583e-07
0.00034326067
-9.306094e-07
0.00075297285
-2.0763548e-06
0.0015398263
-4.1431757e-06
0.0029476517
-7.1328604e-06
0.0052488503
-9.9689123e-06
0.0085846067
-1.0349925e-05
0.012688567
-6.6708989e-06
0.016667114
-3.3881293e-10
0.019181694
6.6702564e-06
0.019181694
1.0349273e-05
0.016667113
9.9684535e-06
0.012688565
7.1326867e-06
0.0085846049
4.142964e-06
0.005248849
2.0760923e-06
0.0029476507
9.3039427e-07
0.0015398256
3.7631967e-07
0.0007529724
1.3386975e-07
0.00034326042
3.8097363e-08
0.00014245088
6.1744085e-09
4.9792781e-05
1.0137067e-05
-7.8244754e-09
1.0144933e-05
-4.7798465e-08
4.9832798e-05
-1.6626881e-07
0.00014256944
-4.6193638e-07
0.00034355631
-1.1276025e-06
0.00075363854
-2.4851199e-06
0.0015411838
-4.9089602e-06
0.0029500756
-8.4034684e-06
0.005252345
-1.174764e-05
0.0085879509
-1.2256019e-05
0.012689075
-7.9407771e-06
0.016662799
-2.8382011e-10
0.019173754
7.9402867e-06
0.019173753
1.2255542e-05
0.016662798
1.1747116e-05
0.012689074
8.403067e-06
0.008587949
4.9086549e-06
0.0052523435
2.4848872e-06
0.0029500745
1.1274393e-06
0.001541183
4.6183638e-07
0.00075363801
1.662396e-07
0.000343556
4.7809773e-08
0.00014256929
7.8324071e-09
4.9832742e-05
1.0144921e-05
-9.6178548e-09
1.0154582e-05
-5.821191e-08
4.988139e-05
-2.0053907e-07
0.00014271174
-5.5084425e-07
0.00034390658
-1.3279889e-06
0.00075441572
-2.8919125e-06
0.0015427478
-5.6594609e-06
0.002952843
-9.6439122e-06
0.0052563293
-1.3499329e-05
0.0085918063
-1.4166104e-05
0.012689742
-9.2323556e-06
0.016657865
-1.9505223e-10
0.019164522
9.2319693e-06
0.019164521
1.4165691e-05
0.016657864
1.3498802e-05
0.01268974
9.6433841e-06
0.0085918043
5.6590688e-06
0.0052563278
2.8916492e-06
0.0029528419
1.3278302e-06
0.0015427469
5.5078e-07
0.00075441515
2.0054383e-07
0.00034390624
5.8241148e-08
0.00014271157
9.6318484e-09
4.9881327e-05
1.0154568e-05
-1.0972339e-08
1.0165585e-05
-6.6102964e-08
4.993652e-05
-2.2703103e-07
0.00014287264
-6.2210519e-07
0.00034430164
-1.4961523e-06
0.00075528984
-3.2489024e-06
0.0015445006
-6.3397509e-06
0.0029559339
-1.0790691e-05
0.0052607802
-1.5145182e-05
0.0085961607
-1.5997541e-05
0.012690595
-1.0489269e-05
0.016652357
-1.0248306e-10
0.019154032
1.0488943e-05
0.019154032
1.5997074e-05
0.016652356
1.5144742e-05
0.012690593
1.0790392e-05
0.0085961588
6.3396657e-06
0.0052607786
3.2488581e-06
0.0029559326
1.496014e-06
0.0015444997
6.2197153e-07
0.0007552892
2.2697751e-07
0.00034430127
6.6102659e-08
0.00014287245
1.0975932e-08
4.9936449e-05
1.016557e-05
-1.3090662e-08
1.0178704e-05
-7.8331456e-08
5.0001753e-05
-2.6623338e-07
0.0001430605