/*--------------------------------*- C++ -*----------------------------------*\
| =========                 |                                                 |
| \\      /  F ield         | OpenFOAM: The Open Source CFD Toolbox           |
|  \\    /   O peration     | Version:  2406                                  |
|   \\  /    A nd           | Website:  www.openfoam.com                      |
|    \\/     M anipulation  |                                                 |
\*---------------------------------------------------------------------------*/
FoamFile
{
    version     2.0;
    format      ascii;
    arch        "LSB;label=32;scalar=64";
    class       volVectorField;
    location    "4";
    object      U;
}
// * * * * * * * * * * * * * * * * * * * * * * * * * * * * * * * * * * * * * //

dimensions      [0 1 -1 0 0 0 0];

internalField   nonuniform List<vector> 
1176
(
(0.01949379 7.0783736e-07 0)
(0.06667732 8.1695591e-06 0)
(0.13357994 3.9502662e-05 0)
(0.22724701 0.00010873459 0)
(0.35591523 0.00021175816 0)
(0.52772024 0.0003039602 0)
(0.74780387 0.00031817831 0)
(1.0136216 0.00024904635 0)
(1.3093323 0.00016667321 0)
(1.6017081 0.00011265186 0)
(1.8421723 7.0219782e-05 0)
(1.9793239 2.3946582e-05 0)
(1.9793239 -2.3934818e-05 0)
(1.8421723 -7.0208038e-05 0)
(1.6017081 -0.00011264079 0)
(1.3093323 -0.00016666457 0)
(1.0136216 -0.00024904192 0)
(0.74780387 -0.00031817807 0)
(0.52772024 -0.00030396225 0)
(0.35591522 -0.00021176036 0)
(0.227247 -0.0001087359 0)
(0.13357994 -3.9503347e-05 0)
(0.066677317 -8.1695186e-06 0)
(0.019493789 -7.0785854e-07 0)
(0.020187019 -3.7419464e-06 0)
(0.068813538 -2.4638712e-05 0)
(0.13732108 -9.6549019e-05 0)
(0.23247392 -0.00024839557 0)
(0.36204618 -0.00047268934 0)
(0.53373557 -0.00067421355 0)
(0.75267408 -0.00069487097 0)
(1.0170176 -0.00049687502 0)
(1.3116385 -0.00023346032 0)
(1.6034438 -4.9825617e-05 0)
(1.8436588 1.9763177e-05 0)
(1.9807026 1.3425921e-05 0)
(1.9807026 -1.3429482e-05 0)
(1.8436588 -1.9766021e-05 0)
(1.6034438 4.982382e-05 0)
(1.3116385 0.00023345923 0)
(1.0170176 0.00049687411 0)
(0.75267407 0.00069487003 0)
(0.53373556 0.00067421228 0)
(0.36204617 0.00047268796 0)
(0.2324739 0.00024839459 0)
(0.13732107 9.6548548e-05 0)
(0.06881353 2.4638626e-05 0)
(0.020187016 3.7418987e-06 0)
(0.020018445 2.0918138e-06 0)
(0.068327415 1.2720737e-05 0)
(0.13655406 4.6876911e-05 0)
(0.23159546 0.0001138967 0)
(0.36138711 0.00019769163 0)
(0.53366971 0.00023903136 0)
(0.75344346 0.00020559736 0)
(1.0184882 0.00011360831 0)
(1.3134639 7.4308531e-05 0)
(1.6053464 7.9525269e-05 0)
(1.8455118 7.0507145e-05 0)
(1.9825245 2.7815361e-05 0)
(1.9825245 -2.783571e-05 0)
(1.8455118 -7.052553e-05 0)
(1.6053464 -7.9539962e-05 0)
(1.3134639 -7.4317954e-05 0)
(1.0184881 -0.00011361324 0)
(0.75344343 -0.00020559798 0)
(0.53366968 -0.00023903215 0)
(0.36138708 -0.00019769248 0)
(0.23159544 -0.00011389721 0)
(0.13655404 -4.6877235e-05 0)
(0.068327403 -1.2720653e-05 0)
(0.020018441 -2.0918271e-06 0)
(0.019966551 7.0075323e-07 0)
(0.068159244 4.6870377e-06 0)
(0.13624023 1.9355286e-05 0)
(0.23111942 5.6455869e-05 0)
(0.36078095 0.00013444516 0)
(0.53306295 0.00025829223 0)
(0.75295639 0.00035344542 0)
(1.0181104 0.00036911708 0)
(1.313184 0.00030758307 0)
(1.6051633 0.00022776304 0)
(1.8453996 0.00014554764 0)
(1.9824491 4.9984009e-05 0)
(1.9824491 -5.0010584e-05 0)
(1.8453995 -0.00014557161 0)
(1.6051633 -0.00022778236 0)
(1.313184 -0.00030759535 0)
(1.0181104 -0.00036912445 0)
(0.75295636 -0.00035345103 0)
(0.53306292 -0.00025829539 0)
(0.36078092 -0.00013444705 0)
(0.23111939 -5.6456982e-05 0)
(0.1362402 -1.9355788e-05 0)
(0.068159227 -4.6871752e-06 0)
(0.019966546 -7.0078535e-07 0)
(0.019942208 2.90776e-07 0)
(0.068078715 1.9872385e-06 0)
(0.1360863 8.2362744e-06 0)
(0.23087702 2.369969e-05 0)
(0.36044747 5.6882261e-05 0)
(0.53266451 0.00012306936 0)
(0.75256881 0.00022681714 0)
(1.017808 0.00032271787 0)
(1.3129044 0.00034571461 0)
(1.604912 0.00030728451 0)
(1.8452029 0.00021093349 0)
(1.9822898 7.4592146e-05 0)
(1.9822898 -7.4637641e-05 0)
(1.8452029 -0.00021097488 0)
(1.604912 -0.00030731844 0)
(1.3129044 -0.00034573911 0)
(1.0178079 -0.00032273158 0)
(0.75256876 -0.00022682408 0)
(0.53266446 -0.00012307196 0)
(0.36044742 -5.6883091e-05 0)
(0.23087698 -2.3699959e-05 0)
(0.13608627 -8.236333e-06 0)
(0.068078696 -1.9872937e-06 0)
(0.019942201 -2.9076348e-07 0)
(0.019933135 1.7184104e-07 0)
(0.068047766 1.1941431e-06 0)
(0.1360249 5.0656406e-06 0)
(0.23077537 1.4969775e-05 0)
(0.36029901 3.6220978e-05 0)
(0.53247923 7.6945443e-05 0)
(0.75239431 0.00014713693 0)
(1.0177222 0.00023748524 0)
(1.3129293 0.00028524516 0)
(1.6049747 0.00027439782 0)
(1.8452865 0.00019642385 0)
(1.9823834 7.1151463e-05 0)
(1.9823834 -7.1203291e-05 0)
(1.8452865 -0.00019647096 0)
(1.6049746 -0.00027443637 0)
(1.3129292 -0.00028527363 0)
(1.0177221 -0.00023750343 0)
(0.75239425 -0.00014714614 0)
(0.53247918 -7.6948933e-05 0)
(0.36029897 -3.6221846e-05 0)
(0.23077533 -1.4969888e-05 0)
(0.13602487 -5.0655105e-06 0)
(0.068047747 -1.1943126e-06 0)
(0.019933129 -1.7181738e-07 0)
(0.019923402 1.5591417e-07 0)
(0.068015513 1.0701419e-06 0)
(0.13596287 4.4940682e-06 0)
(0.23067608 1.319665e-05 0)
(0.36015775 3.1858898e-05 0)
(0.5323018 6.6959528e-05 0)
(0.75221432 0.00012411765 0)
(1.0176106 0.0001991644 0)
(1.3129358 0.0002548959 0)
(1.6050904 0.00024593185 0)
(1.8454579 0.0001812535 0)
(1.9825798 6.6519717e-05 0)
(1.9825798 -6.6577847e-05 0)
(1.8454579 -0.00018130597 0)
(1.6050903 -0.00024597377 0)
(1.3129357 -0.00025492497 0)
(1.0176105 -0.00019918172 0)
(0.75221426 -0.00012412514 0)
(0.53230175 -6.6961098e-05 0)
(0.36015771 -3.1858055e-05 0)
(0.23067605 -1.3195675e-05 0)
(0.13596285 -4.4933793e-06 0)
(0.0680155 -1.0702621e-06 0)
(0.019923398 -1.5585522e-07 0)
(0.019915697 1.27627e-07 0)
(0.067989793 8.7804144e-07 0)
(0.13591293 3.6965737e-06 0)
(0.23059503 1.0902623e-05 0)
(0.36003988 2.6614666e-05 0)
(0.53214755 5.7237485e-05 0)
(0.75204135 0.00010910795 0)
(1.0174723 0.00017935892 0)
(1.3128927 0.00023801117 0)
(1.6051414 0.00023744751 0)
(1.8455877 0.00017748108 0)
(1.9827514 6.551071e-05 0)
(1.9827513 -6.5567928e-05 0)
(1.8455876 -0.00017753211 0)
(1.6051413 -0.00023748752 0)
(1.3128926 -0.00023803891 0)
(1.0174722 -0.00017937487 0)
(0.7520413 -0.00010911466 0)
(0.53214751 -5.7238494e-05 0)
(0.36003986 -2.6613432e-05 0)
(0.23059502 -1.0901423e-05 0)
(0.13591293 -3.6957743e-06 0)
(0.067989789 -8.7812899e-07 0)
(0.019915696 -1.2756174e-07 0)
(0.019909215 1.046902e-07 0)
(0.067968137 7.2309418e-07 0)
(0.13587083 3.0524591e-06 0)
(0.23052653 9.0122826e-06 0)
(0.35993984 2.2000072e-05 0)
(0.53201543 4.7472083e-05 0)
(0.75188903 9.2009661e-05 0)
(1.0173342 0.00015617337 0)
(1.3128278 0.00021698338 0)
(1.6051596 0.00022707755 0)
(1.8456699 0.00017230284 0)
(1.982868 6.412235e-05 0)
(1.982868 -6.4171665e-05 0)
(1.8456699 -0.00017234589 0)
(1.6051595 -0.00022711025 0)
(1.3128277 -0.00021700463 0)
(1.0173341 -0.00015618503 0)
(0.75188898 -9.2014903e-05 0)
(0.5320154 -4.747314e-05 0)
(0.35993983 -2.1999164e-05 0)
(0.23052654 -9.0112695e-06 0)
(0.13587083 -3.0517398e-06 0)
(0.067968141 -7.2317158e-07 0)
(0.019909217 -1.0463312e-07 0)
(0.019903969 8.6140481e-08 0)
(0.067950546 5.9684416e-07 0)
(0.13583648 2.5273848e-06 0)
(0.23047029 7.4912723e-06 0)
(0.35985692 1.8375095e-05 0)
(0.53190436 3.9832508e-05 0)
(0.75175838 7.7706092e-05 0)
(1.0172122 0.00013431516 0)
(1.3127614 0.00019322131 0)
(1.6051772 0.00021056547 0)
(1.8457533 0.00016271127 0)
(1.9829863 6.1065316e-05 0)
(1.9829863 -6.1100895e-05 0)
(1.8457533 -0.0001627415 0)
(1.6051771 -0.00021058683 0)
(1.3127613 -0.00019323485 0)
(1.0172122 -0.00013432285 0)
(0.75175835 -7.7710145e-05 0)
(0.53190435 -3.9833887e-05 0)
(0.35985692 -1.8374976e-05 0)
(0.23047031 -7.4908571e-06 0)
(0.13583649 -2.5270168e-06 0)
(0.067950556 -5.968835e-07 0)
(0.019903973 -8.6105581e-08 0)
(0.019899541 7.335145e-08 0)
(0.067935682 5.0880182e-07 0)
(0.13580741 2.1566072e-06 0)
(0.23042258 6.4018761e-06 0)
(0.35978626 1.5745661e-05 0)
(0.5318089 3.4274261e-05 0)
(0.75164411 6.7199267e-05 0)
(1.0171021 0.00011722322 0)
(1.3126977 0.00017261656 0)
(1.6051929 0.00019308249 0)
(1.8458371 0.00015218848 0)
(1.9831061 5.753395e-05 0)
(1.9831061 -5.7554063e-05 0)
(1.8458371 -0.00015220487 0)
(1.6051928 -0.00019309378 0)
(1.3126976 -0.00017262254 0)
(1.017102 -0.00011722748 0)
(0.75164407 -6.7202815e-05 0)
(0.53180889 -3.427683e-05 0)
(0.35978626 -1.5747154e-05 0)
(0.23042259 -6.402599e-06 0)
(0.13580742 -2.1568263e-06 0)
(0.067935691 -5.0893441e-07 0)
(0.019899544 -7.3355194e-08 0)
(0.01989572 6.3713387e-08 0)
(0.067922846 4.4239567e-07 0)
(0.13578228 1.8764155e-06 0)
(0.23038125 5.5757352e-06 0)
(0.35972483 1.3737307e-05 0)
(0.53172536 2.9996124e-05 0)
(0.75154267 5.9109545e-05 0)
(1.0170011 0.0001038865 0)
(1.3126345 0.00015540096 0)
(1.6052016 0.00017849676 0)
(1.8459125 0.0001427105 0)
(1.9832185 5.4325605e-05 0)
(1.9832185 -5.4333731e-05 0)
(1.8459124 -0.00014271659 0)
(1.6052015 -0.00017849979 0)
(1.3126344 -0.00015540403 0)
(1.017001 -0.00010389012 0)
(0.75154262 -5.9113398e-05 0)
(0.53172534 -2.9999387e-05 0)
(0.35972483 -1.3739641e-05 0)
(0.23038125 -5.577092e-06 0)
(0.13578228 -1.8770228e-06 0)
(0.067922852 -4.4254375e-07 0)
(0.019895722 -6.3743062e-08 0)
(0.01989237 5.6077532e-08 0)
(0.067911585 3.8972484e-07 0)
(0.13576021 1.6539173e-06 0)
(0.2303449 4.9183838e-06 0)
(0.35967069 1.2131624e-05 0)
(0.53165137 2.6542456e-05 0)
(0.75145193 5.2499302e-05 0)
(1.0169086 9.2875916e-05 0)
(1.3125728 0.00014061345 0)
(1.6052051 0.00016529041 0)
(1.8459798 0.0001339831 0)
(1.9833221 5.1383652e-05 0)
(1.9833221 -5.1386524e-05 0)
(1.8459798 -0.00013398541 0)
(1.605205 -0.00016529223 0)
(1.3125727 -0.00014061641 0)
(1.0169085 -9.2880237e-05 0)
(0.75145187 -5.2503977e-05 0)
(0.53165134 -2.654656e-05 0)
(0.35967067 -1.2134612e-05 0)
(0.23034489 -4.9201251e-06 0)
(0.1357602 -1.6546859e-06 0)
(0.067911584 -3.8994614e-07 0)
(0.01989237 -5.6116337e-08 0)
(0.019889403 4.9844657e-08 0)
(0.067901607 3.4663769e-07 0)
(0.13574064 1.4717638e-06 0)
(0.23031264 4.3795541e-06 0)
(0.35962254 1.0812965e-05 0)
(0.53158533 2.3692887e-05 0)
(0.75137032 4.6985638e-05 0)
(1.0168241 8.3544684e-05 0)
(1.312514 0.00012772939 0)
(1.6052051 0.00015291473 0)
(1.8460415 0.00012580701 0)
(1.9834196 4.8610175e-05 0)
(1.9834196 -4.8613285e-05 0)
(1.8460414 -0.00012581045 0)
(1.6052051 -0.00015291942 0)
(1.3125139 -0.00012773527 0)
(1.016824 -8.355051e-05 0)
(0.75137026 -4.6990264e-05 0)
(0.53158528 -2.3696341e-05 0)
(0.35962251 -1.0815194e-05 0)
(0.23031262 -4.3807058e-06 0)
(0.13574063 -1.4722306e-06 0)
(0.067901602 -3.4673905e-07 0)
(0.019889402 -4.986207e-08 0)
(0.019886751 4.4713381e-08 0)
(0.067892684 3.1106124e-07 0)
(0.13572313 1.3212316e-06 0)
(0.23028375 3.9333687e-06 0)
(0.35957936 9.7183256e-06 0)
(0.53152594 2.1319313e-05 0)
(0.75129651 4.2363123e-05 0)
(1.0167466 7.5616291e-05 0)
(1.3124582 0.00011652578 0)
(1.6052027 0.00014167182 0)
(1.8460982 0.00011824628 0)
(1.9835117 4.6021133e-05 0)
(1.9835116 -4.6026556e-05 0)
(1.8460982 -0.00011825267 0)
(1.6052026 -0.00014168046 0)
(1.3124581 -0.00011653511 0)
(1.0167465 -7.5624217e-05 0)
(0.75129644 -4.2368458e-05 0)
(0.53152589 -2.1322905e-05 0)
(0.35957932 -9.7205663e-06 0)
(0.23028373 -3.9344845e-06 0)
(0.13572312 -1.3216286e-06 0)
(0.067892677 -3.1120514e-07 0)
(0.019886749 -4.4729374e-08 0)
(0.019884361 4.042485e-08 0)
(0.067884639 2.8126892e-07 0)
(0.13570734 1.1950218e-06 0)
(0.23025768 3.5586235e-06 0)
(0.35954034 8.7966713e-06 0)
(0.53147217 1.9314161e-05 0)
(0.75122938 3.8439891e-05 0)
(1.0166754 6.8826346e-05 0)
(1.3124054 0.00010675097 0)
(1.6051983 0.00013151633 0)
(1.8461504 0.00011128549 0)
(1.9835985 4.361484e-05 0)
(1.9835984 -4.362163e-05 0)
(1.8461503 -0.0001112934 0)
(1.6051982 -0.00013152625 0)
(1.3124053 -0.00010676121 0)
(1.0166753 -6.8834942e-05 0)
(0.7512293 -3.8445376e-05 0)
(0.53147211 -1.9317254e-05 0)
(0.3595403 -8.798399e-06 0)
(0.23025766 -3.5594933e-06 0)
(0.13570732 -1.1953586e-06 0)
(0.06788463 -2.8137865e-07 0)
(0.019884358 -4.0441179e-08 0)
(0.019882191 3.6751636e-08 0)
(0.067877337 2.557533e-07 0)
(0.13569301 1.0866803e-06 0)
(0.23023401 3.2365833e-06 0)
(0.35950489 8.0032205e-06 0)
(0.53142322 1.7583591e-05 0)
(0.75116803 3.504196e-05 0)
(1.0166097 6.2910679e-05 0)
(1.3123555 9.8122329e-05 0)
(1.6051923 0.00012224449 0)
(1.8461982 0.00010483725 0)
(1.9836803 4.1361474e-05 0)
(1.9836802 -4.1369067e-05 0)
(1.8461982 -0.0001048457 0)
(1.6051923 -0.00012225427 0)
(1.3123554 -9.8133044e-05 0)
(1.0166096 -6.292098e-05 0)
(0.75116796 -3.5050201e-05 0)
(0.53142316 -1.7589143e-05 0)
(0.35950484 -8.0065619e-06 0)
(0.23023398 -3.2383465e-06 0)
(0.13569299 -1.0873865e-06 0)
(0.067877326 -2.5602662e-07 0)
(0.019882188 -3.6780725e-08 0)
(0.019880214 3.3521972e-08 0)
(0.067870682 2.3335987e-07 0)
(0.13567994 9.9129147e-07 0)
(0.23021242 2.9529626e-06 0)
(0.35947254 7.3040169e-06 0)
(0.5313785 1.6057625e-05 0)
(0.7511118 3.2042363e-05 0)
(1.016549 5.7673006e-05 0)
(1.3123084 9.0415015e-05 0)
(1.6051852 0.00011377501 0)
(1.8462423 9.8820488e-05 0)
(1.9837575 3.9236339e-05 0)
(1.9837575 -3.9246817e-05 0)
(1.8462422 -9.8830539e-05 0)
(1.6051851 -0.00011378499 0)
(1.3123083 -9.042525e-05 0)
(1.0165489 -5.7682686e-05 0)
(0.75111171 -3.2050267e-05 0)
(0.53137843 -1.6063178e-05 0)
(0.35947249 -7.3072676e-06 0)
(0.23021238 -2.9545166e-06 0)
(0.13567991 -9.9182424e-07 0)
(0.067870668 -2.3356057e-07 0)
(0.01988021 -3.3527075e-08 0)
(0.019878409 3.0602559e-08 0)
(0.067864606 2.1316846e-07 0)
(0.13566801 9.0512753e-07 0)
(0.23019271 2.697032e-06 0)
(0.35944298 6.6739491e-06 0)
(0.53133756 1.4685448e-05 0)
(0.75106013 2.9351358e-05 0)
(1.0164928 5.2977325e-05 0)
(1.312264 8.3468506e-05 0)
(1.6051772 0.00010601184 0)
(1.8462829 9.3190305e-05 0)
(1.9838304 3.7228707e-05 0)
(1.9838304 -3.7247352e-05 0)
(1.8462828 -9.3206534e-05 0)
(1.6051771 -0.00010602576 0)
(1.3122639 -8.3481945e-05 0)
(1.0164927 -5.2989028e-05 0)
(0.75106004 -2.9359968e-05 0)
(0.53133748 -1.469159e-05 0)
(0.35944291 -6.6779345e-06 0)
(0.23019266 -2.6990534e-06 0)
(0.13566798 -9.0577716e-07 0)
(0.067864588 -2.1352644e-07 0)
(0.019878404 -3.0610621e-08 0)
(0.019876762 2.7893651e-08 0)
(0.067859059 1.944727e-07 0)
(0.13565711 8.2559759e-07 0)
(0.23017469 2.461562e-06 0)
(0.35941593 6.0969164e-06 0)
(0.53130002 1.3436354e-05 0)
(0.75101258 2.6917978e-05 0)
(1.0164407 4.8750606e-05 0)
(1.3122221 7.7202364e-05 0)
(1.6051686 9.8893477e-05 0)
(1.8463204 8.7946891e-05 0)
(1.9838994 3.5344249e-05 0)
(1.9838993 -3.5375338e-05 0)
(1.8463203 -8.797338e-05 0)
(1.6051685 -9.8913166e-05 0)
(1.312222 -7.7216933e-05 0)
(1.0164406 -4.8760355e-05 0)
(0.75101246 -2.6922283e-05 0)
(0.53129993 -1.3437729e-05 0)
(0.35941586 -6.097842e-06 0)
(0.23017464 -2.462265e-06 0)
(0.13565708 -8.2581147e-07 0)
(0.06785904 -1.9480442e-07 0)
(0.019876756 -2.7901295e-08 0)
(0.019875261 2.5350741e-08 0)
(0.067854004 1.769492e-07 0)
(0.13564718 7.5181645e-07 0)
(0.23015823 2.2444506e-06 0)
(0.35939117 5.5696223e-06 0)
(0.53126554 1.2307674e-05 0)
(0.75096868 2.4744788e-05 0)
(1.0163923 4.500528e-05 0)
(1.3121826 7.1642545e-05 0)
(1.6051595 9.247832e-05 0)
(1.846355 8.314381e-05 0)
(1.9839646 3.3612234e-05 0)
(1.9839646 -3.3655474e-05 0)
(1.8463549 -8.3181201e-05 0)
(1.6051594 -9.250594e-05 0)
(1.3121824 -7.165929e-05 0)
(1.0163921 -4.5014744e-05 0)
(0.75096858 -2.4748163e-05 0)
(0.53126546 -1.2306854e-05 0)
(0.35939111 -5.5683778e-06 0)
(0.23015819 -2.2440078e-06 0)
(0.13564715 -7.5164196e-07 0)
(0.06785399 -1.7717139e-07 0)
(0.019875257 -2.5347261e-08 0)
(0.019873897 2.2983297e-08 0)
(0.067849404 1.6068894e-07 0)
(0.13563812 6.8464148e-07 0)
(0.23014319 2.0489317e-06 0)
(0.35936844 5.1021819e-06 0)
(0.53123374 1.132578e-05 0)
(0.75092795 2.288826e-05 0)
(1.016347 4.1836968e-05 0)
(1.3121451 6.6916694e-05 0)
(1.6051501 8.6931143e-05 0)
(1.8463871 7.8902687e-05 0)
(1.9840265 3.208584e-05 0)
(1.9840264 -3.213474e-05 0)
(1.846387 -7.8944977e-05 0)
(1.60515 -8.6961857e-05 0)
(1.3121449 -6.6932502e-05 0)
(1.0163468 -4.1843554e-05 0)
(0.75092786 -2.2889925e-05 0)
(0.53123367 -1.1323195e-05 0)
(0.3593684 -5.0984486e-06 0)
(0.23014316 -2.046478e-06 0)
(0.1356381 -6.8350515e-07 0)
(0.067849395 -1.6036825e-07 0)
(0.019873895 -2.2908268e-08 0)
(0.019872657 2.0876417e-08 0)
(0.067845208 1.4634223e-07 0)
(0.13562983 6.2728881e-07 0)
(0.23012936 1.8851823e-06 0)
(0.35934742 4.7211014e-06 0)
(0.53120412 1.0549418e-05 0)
(0.75088978 2.1458715e-05 0)
(1.0163042 3.9417044e-05 0)
(1.3121093 6.3242112e-05 0)
(1.6051406 8.2482361e-05 0)
(1.846417 7.5404244e-05 0)
(1.9840855 3.0825971e-05 0)
(1.9840854 -3.0872913e-05 0)
(1.8464169 -7.544403e-05 0)
(1.6051405 -8.2511252e-05 0)
(1.3121092 -6.3257761e-05 0)
(1.0163041 -3.942427e-05 0)
(0.75088969 -2.146232e-05 0)
(0.53120407 -1.0549959e-05 0)
(0.35934739 -4.7199422e-06 0)
(0.23012934 -1.8840774e-06 0)
(0.13562982 -6.2669168e-07 0)
(0.067845205 -1.4608355e-07 0)
(0.019872656 -2.0851388e-08 0)
(0.019871519 1.9254933e-08 0)
(0.067841341 1.3545445e-07 0)
(0.13562214 5.8641405e-07 0)
(0.23011644 1.7723525e-06 0)
(0.35932764 4.4709972e-06 0)
(0.53117603 1.0066688e-05 0)
(0.75085335 2.0604682e-05 0)
(1.0162634 3.7958273e-05 0)
(1.3120751 6.0873962e-05 0)
(1.6051311 7.9412046e-05 0)
(1.8464454 7.283428e-05 0)
(1.9841422 2.9881161e-05 0)
(1.9841422 -2.9921692e-05 0)
(1.8464453 -7.2867783e-05 0)
(1.605131 -7.9435364e-05 0)
(1.312075 -6.0887016e-05 0)
(1.0162633 -3.7963691e-05 0)
(0.75085327 -2.0604157e-05 0)
(0.53117598 -1.0062192e-05 0)
(0.35932761 -4.4663975e-06 0)
(0.23011642 -1.7695928e-06 0)
(0.13562213 -5.8531204e-07 0)
(0.067841337 -1.3493146e-07 0)
(0.019871518 -1.9178385e-08 0)
(0.019870445 1.8493242e-08 0)
(0.067837668 1.304223e-07 0)
(0.13561479 5.7153802e-07 0)
(0.23010399 1.7363731e-06 0)
(0.35930841 4.408027e-06 0)
(0.53114857 9.9785584e-06 0)
(0.75081769 2.0477546e-05 0)
(1.0162235 3.7651118e-05 0)
(1.3120419 6.0012887e-05 0)
(1.6051219 7.7888806e-05 0)
(1.846473 7.1288903e-05 0)
(1.9841974 2.9271266e-05 0)
(1.9841974 -2.9306089e-05 0)
(1.8464729 -7.1318863e-05 0)
(1.6051217 -7.7910327e-05 0)
(1.3120418 -6.0028157e-05 0)
(1.0162234 -3.7665546e-05 0)
(0.75081759 -2.0490123e-05 0)
(0.5311485 -9.9862072e-06 0)
(0.35930836 -4.4122042e-06 0)
(0.23010396 -1.7389304e-06 0)
(0.13561477 -5.727572e-07 0)
(0.06783766 -1.3114033e-07 0)
(0.019870443 -1.8607286e-08 0)
(0.019869376 1.8947971e-08 0)
(0.067833992 1.335209e-07 0)
(0.13560739 5.9132729e-07 0)
(0.2300914 1.8005905e-06 0)
(0.35928892 4.582079e-06 0)
(0.53112074 1.0373283e-05 0)
(0.75078179 2.1203001e-05 0)
(1.0161839 3.8629341e-05 0)
(1.3120095 6.0753407e-05 0)
(1.6051133 7.7878462e-05 0)
(1.8465005 7.0707321e-05 0)
(1.9842519 2.8986127e-05 0)
(1.9842518 -2.9017974e-05 0)
(1.8465004 -7.073809e-05 0)
(1.6051131 -7.7901971e-05 0)
(1.3120093 -6.076496e-05 0)
(1.0161838 -3.8634693e-05 0)
(0.7507817 -2.1204716e-05 0)
(0.53112067 -1.0370701e-05 0)
(0.35928887 -4.5788651e-06 0)
(0.23009137 -1.7992665e-06 0)
(0.13560737 -5.9124131e-07 0)
(0.067833982 -1.3354001e-07 0)
(0.019869373 -1.901253e-08 0)
(0.019868238 2.0812806e-08 0)
(0.067830068 1.4596174e-07 0)
(0.13559949 6.4986838e-07 0)
(0.23007796 1.974901e-06 0)
(0.35926817 5.0099872e-06 0)
(0.53109138 1.1268611e-05 0)
(0.75074452 2.2777444e-05 0)
(1.0161438 4.0829108e-05 0)
(1.3119776 6.2933383e-05 0)
(1.6051059 7.9016477e-05 0)
(1.8465283 7.0919546e-05 0)
(1.9843061 2.9021252e-05 0)
(1.9843061 -2.9052941e-05 0)
(1.8465282 -7.0954748e-05 0)
(1.6051057 -7.9053381e-05 0)
(1.3119775 -6.2962006e-05 0)
(1.0161436 -4.0849094e-05 0)
(0.7507444 -2.2789467e-05 0)
(0.53109129 -1.1269205e-05 0)
(0.35926811 -5.00459e-06 0)
(0.23007792 -1.9706058e-06 0)
(0.13559946 -6.4800208e-07 0)
(0.067830054 -1.4526745e-07 0)
(0.019868234 -2.0665707e-08 0)
(0.019866952 2.4135807e-08 0)
(0.067825644 1.6788893e-07 0)
(0.13559061 7.4614178e-07 0)
(0.23006295 2.2530817e-06 0)
(0.35924526 5.6657748e-06 0)
(0.5310595 1.2581196e-05 0)
(0.750705 2.4988321e-05 0)
(1.0161026 4.3827925e-05 0)
(1.3119466 6.5868282e-05 0)
(1.6051002 8.0573684e-05 0)
(1.8465568 7.1584601e-05 0)
(1.9843607 2.9330115e-05 0)
(1.9843607 -2.9358981e-05 0)
(1.8465567 -7.1617571e-05 0)
(1.6051 -8.0608737e-05 0)
(1.3119464 -6.5898345e-05 0)
(1.0161024 -4.3851568e-05 0)
(0.75070487 -2.5007281e-05 0)
(0.5310594 -1.2590581e-05 0)
(0.3592452 -5.6669859e-06 0)
(0.23006292 -2.2525563e-06 0)
(0.13559059 -7.4579413e-07 0)
(0.067825636 -1.6812229e-07 0)
(0.01986695 -2.4172279e-08 0)
(0.019865443 2.8781003e-08 0)
(0.067820487 1.9824146e-07 0)
(0.13558035 8.7344949e-07 0)
(0.23004583 2.6118661e-06 0)
(0.35921956 6.4812595e-06 0)
(0.53102455 1.4135295e-05 0)
(0.750663 2.7432643e-05 0)
(1.0160605 4.6801606e-05 0)
(1.3119169 6.8239125e-05 0)
(1.6050962 8.1461897e-05 0)
(1.8465859 7.1674974e-05 0)
(1.984416 2.9411416e-05 0)
(1.984416 -2.9438008e-05 0)
(1.8465858 -7.1707462e-05 0)
(1.605096 -8.1496532e-05 0)
(1.3119167 -6.8265387e-05 0)
(1.0160604 -4.6811894e-05 0)
(0.7506629 -2.7431363e-05 0)
(0.53102448 -1.4127262e-05 0)
(0.35921952 -6.4720741e-06 0)
(0.23004581 -2.6064541e-06 0)
(0.13558034 -8.7150549e-07 0)
(0.067820483 -1.9769631e-07 0)
(0.019865442 -2.872786e-08 0)
(0.019863656 3.4378545e-08 0)
(0.067814435 2.3443309e-07 0)
(0.13556845 1.0186719e-06 0)
(0.23002629 3.0092754e-06 0)
(0.35919088 7.3419347e-06 0)
(0.5309867 1.5649371e-05 0)
(0.75061921 2.9476802e-05 0)
(1.016019 4.8497935e-05 0)
(1.3118895 6.8367888e-05 0)
(1.6050937 7.9645928e-05 0)
(1.8466153 6.9161296e-05 0)
(1.9844707 2.7989428e-05 0)
(1.9844707 -2.8012562e-05 0)
(1.8466152 -6.9192713e-05 0)
(1.6050935 -7.9681805e-05 0)
(1.3118893 -6.8399942e-05 0)
(1.0160188 -4.85203e-05 0)
(0.75061906 -2.9492457e-05 0)
(0.5309866 -1.5657314e-05 0)
(0.35919082 -7.3431275e-06 0)
(0.23002625 -3.0088756e-06 0)
(0.13556843 -1.018518e-06 0)
(0.067814426 -2.3439719e-07 0)
(0.019863653 -3.4386809e-08 0)
(0.019861562 4.0414955e-08 0)
(0.067807426 2.7279598e-07 0)
(0.13555486 1.1637426e-06 0)
(0.23000444 3.3875866e-06 0)
(0.35915972 8.0902874e-06 0)
(0.53094713 1.6736425e-05 0)
(0.75057587 3.0274438e-05 0)
(1.0159806 4.7483887e-05 0)
(1.311866 6.4460845e-05 0)
(1.6050936 7.2684397e-05 0)
(1.8466443 6.1684755e-05 0)
(1.9845213 2.3781503e-05 0)
(1.9845213 -2.3803121e-05 0)
(1.8466442 -6.1708535e-05 0)
(1.6050935 -7.2707721e-05 0)
(1.3118658 -6.4477308e-05 0)
(1.0159805 -4.7494299e-05 0)
(0.75057577 -3.0284743e-05 0)
(0.53094705 -1.6742452e-05 0)
(0.35915967 -8.0893141e-06 0)
(0.23000441 -3.3851444e-06 0)
(0.13555485 -1.1625168e-06 0)
(0.067807422 -2.7223347e-07 0)
(0.019861561 -4.0336605e-08 0)
(0.019859169 4.6205909e-08 0)
(0.067799528 3.0828805e-07 0)
(0.13553983 1.2841717e-06 0)
(0.22998089 3.669232e-06 0)
(0.35912737 8.5164401e-06 0)
(0.53090828 1.6909512e-05 0)
(0.75053648 2.8862759e-05 0)
(1.0159491 4.2460696e-05 0)
(1.3118482 5.4101063e-05 0)
(1.6050966 5.8194932e-05 0)
(1.8466709 4.7536002e-05 0)
(1.9845623 1.7177266e-05 0)
(1.9845623 -1.7205641e-05 0)
(1.8466708 -4.7562805e-05 0)
(1.6050965 -5.8217853e-05 0)
(1.311848 -5.4117596e-05 0)
(1.0159489 -4.2470107e-05 0)
(0.75053635 -2.8875053e-05 0)
(0.53090817 -1.6918531e-05 0)
(0.3591273 -8.5175992e-06 0)
(0.22998084 -3.6675989e-06 0)
(0.13553981 -1.2829175e-06 0)
(0.067799515 -3.076506e-07 0)
(0.019859165 -4.6074512e-08 0)
(0.019856534 5.0522777e-08 0)
(0.06779099 3.3273624e-07 0)
(0.13552397 1.3422793e-06 0)
(0.22995691 3.7375105e-06 0)
(0.3590962 8.338361e-06 0)
(0.53087388 1.555955e-05 0)
(0.75050609 2.4329328e-05 0)
(1.0159286 3.1777588e-05 0)
(1.3118404 3.4291059e-05 0)
(1.6051024 3.3086473e-05 0)
(1.8466909 2.5340747e-05 0)
(1.9845886 9.6414259e-06 0)
(1.9845886 -9.6731027e-06 0)
(1.8466908 -2.5368677e-05 0)
(1.6051023 -3.3113218e-05 0)
(1.3118402 -3.431814e-05 0)
(1.0159284 -3.179871e-05 0)
(0.75050595 -2.4344901e-05 0)
(0.53087377 -1.5567817e-05 0)
(0.35909613 -8.3378594e-06 0)
(0.22995687 -3.7348295e-06 0)
(0.13552395 -1.340551e-06 0)
(0.067790979 -3.3193855e-07 0)
(0.019856531 -5.0376838e-08 0)
(0.019853815 5.1544995e-08 0)
(0.067782396 3.3335482e-07 0)
(0.13550853 1.2801673e-06 0)
(0.22993477 3.4348311e-06 0)
(0.35906987 7.1665277e-06 0)
(0.53084937 1.1954017e-05 0)
(0.75049079 1.5479378e-05 0)
(1.0159267 1.2005336e-05 0)
(1.311848 1.4644314e-06 0)
(1.6051104 -7.1094879e-06 0)
(1.846698 -7.9042923e-06 0)
(1.9845972 -2.4230019e-06 0)
(1.9845971 2.3891739e-06 0)
(1.8466979 7.8742663e-06 0)
(1.6051103 7.0774187e-06 0)
(1.3118478 -1.5017895e-06 0)
(1.0159265 -1.2037191e-05 0)
(0.75049064 -1.5504748e-05 0)
(0.53084925 -1.1972036e-05 0)
(0.35906979 -7.1733052e-06 0)
(0.22993472 -3.4353551e-06 0)
(0.1355085 -1.2793474e-06 0)
(0.067782383 -3.3252452e-07 0)
(0.019853811 -5.1422489e-08 0)
(0.019851273 4.7440263e-08 0)
(0.067774665 2.9758683e-07 0)
(0.1354954 1.0539468e-06 0)
(0.22991776 2.6168278e-06 0)
(0.35905358 4.755661e-06 0)
(0.53084149 5.6839263e-06 0)
(0.75050015 1.3204345e-08 0)
(1.0159542 -1.8610899e-05 0)
(1.3118767 -4.7830172e-05 0)
(1.60512 -6.6394885e-05 0)
(1.8466855 -5.6424675e-05 0)
(1.9845736 -2.1287652e-05 0)
(1.9845736 2.1249271e-05 0)
(1.8466854 5.6386661e-05 0)
(1.6051199 6.635597e-05 0)
(1.3118765 4.7792271e-05 0)
(1.015954 1.8582924e-05 0)
(0.75049999 -3.570697e-08 0)
(0.53084136 -5.7036221e-06 0)
(0.35905349 -4.7658818e-06 0)
(0.2299177 -2.6193362e-06 0)
(0.13549537 -1.0534625e-06 0)
(0.067774646 -2.9649429e-07 0)
(0.019851267 -4.722214e-08 0)
(0.019849258 3.5977788e-08 0)
(0.067769006 2.1344531e-07 0)
(0.13548702 6.1324553e-07 0)
(0.22990992 1.1859962e-06 0)
(0.3590532 7.1824617e-07 0)
(0.53085963 -4.4639202e-06 0)
(0.75054614 -2.2355012e-05 0)
(1.0160215 -6.1657771e-05 0)
(1.3119336 -0.0001155383 0)
(1.605131 -0.00014722226 0)
(1.8466459 -0.00012274056 0)
(1.9845059 -4.700665e-05 0)
(1.9845059 4.6962074e-05 0)
(1.8466458 0.00012269346 0)
(1.6051308 0.00014717687 0)
(1.3119334 0.0001154987 0)
(1.0160213 6.1629245e-05 0)
(0.75054597 2.2333226e-05 0)
(0.53085948 4.4442076e-06 0)
(0.35905308 -7.3153968e-07 0)
(0.22990985 -1.1917474e-06 0)
(0.13548697 -6.1424547e-07 0)
(0.067768981 -2.1312501e-07 0)
(0.01984925 -3.5815962e-08 0)
(0.019848212 1.692038e-08 0)
(0.067766916 7.5415678e-08 0)
(0.13548631 -6.2885506e-08 0)
(0.22991622 -9.7250691e-07 0)
(0.35907669 -5.0807916e-06 0)
(0.53091391 -1.8356466e-05 0)
(0.75064005 -5.2135696e-05 0)
(1.0161404 -0.00011747251 0)
(1.3120268 -0.00020236126 0)
(1.6051434 -0.00025086016 0)
(1.8465706 -0.00020803778 0)
(1.9843804 -8.0030277e-05 0)
(1.9843804 7.997634e-05 0)
(1.8465705 0.00020798598 0)
(1.6051432 0.00025081588 0)
(1.3120266 0.00020232334 0)
(1.0161401 0.00011744226 0)
(0.75063986 5.2115251e-05 0)
(0.53091376 1.8343495e-05 0)
(0.35907657 5.0739048e-06 0)
(0.22991614 9.7036338e-07 0)
(0.13548626 6.3356518e-08 0)
(0.067766888 -7.4384652e-08 0)
(0.019848203 -1.6678923e-08 0)
(0.019848608 -1.0642271e-08 0)
(0.067769993 -1.2134544e-07 0)
(0.13549644 -9.8918759e-07 0)
(0.22994175 -3.8597687e-06 0)
(0.35913114 -1.2642228e-05 0)
(0.53101385 -3.5976071e-05 0)
(0.75079353 -8.9067678e-05 0)
(1.0163227 -0.00018564231 0)
(1.3121649 -0.0003079286 0)
(1.6051579 -0.0003774573 0)
(1.8464504 -0.00031283236 0)
(1.9841823 -0.00012061643 0)
(1.9841823 0.00012054866 0)
(1.8464503 0.00031277501 0)
(1.6051577 0.00037741413 0)
(1.3121647 0.00030789401 0)
(1.0163225 0.00018561482 0)
(0.75079333 8.9047782e-05 0)
(0.53101367 3.5962134e-05 0)
(0.35913101 1.2635211e-05 0)
(0.22994165 3.8589516e-06 0)
(0.13549638 9.911013e-07 0)
(0.067769961 1.2346913e-07 0)
(0.019848599 1.1109965e-08 0)
(0.019850922 -4.6771322e-08 0)
(0.067779807 -3.7558928e-07 0)
(0.1355204 -2.1527812e-06 0)
(0.22999131 -7.4345092e-06 0)
(0.35922353 -2.184675e-05 0)
(0.53116861 -5.7047144e-05 0)
(0.75101751 -0.00013252799 0)
(1.0165798 -0.00026500199 0)
(1.3123565 -0.00043061439 0)
(1.6051756 -0.00052569171 0)
(1.846277 -0.00043662932 0)
(1.9838967 -0.00016870337 0)
(1.9838966 0.00016862845 0)
(1.8462768 0.00043656912 0)
(1.6051754 0.00052564756 0)
(1.3123562 0.00043058183 0)
(1.0165795 0.00026498258 0)
(0.7510173 0.00013251743 0)
(0.53116843 5.7035557e-05 0)
(0.35922338 2.1836141e-05 0)
(0.2299912 7.4301832e-06 0)
(0.13552033 2.1534529e-06 0)
(0.067779769 3.7709911e-07 0)
(0.01985091 4.7142112e-08 0)
(0.019855601 -9.0773582e-08 0)
(0.06779783 -6.832666e-07 0)
(0.13556099 -3.5326516e-06 0)
(0.23006931 -1.162884e-05 0)
(0.35936006 -3.2501149e-05 0)
(0.53138616 -8.1086053e-05 0)
(0.75132134 -0.00018145483 0)
(1.0169215 -0.00035358723 0)
(1.3126096 -0.00056756862 0)
(1.6051984 -0.00069280492 0)
(1.8460427 -0.00057770201 0)
(1.9835096 -0.00022377494 0)
(1.9835096 0.00022370358 0)
(1.8460425 0.0005776423 0)
(1.6051982 0.00069275843 0)
(1.3126094 0.00056753152 0)
(1.0169212 0.00035356006 0)
(0.75132111 0.00018144038 0)
(0.53138597 8.107762e-05 0)
(0.3593599 3.2493278e-05 0)
(0.23006919 1.1624685e-05 0)
(0.13556091 3.5326524e-06 0)
(0.067797786 6.846297e-07 0)
(0.019855587 9.0989323e-08 0)
(0.019863047 -1.4132046e-07 0)
(0.067825358 -1.0350639e-06 0)
(0.13562062 -5.084717e-06 0)
(0.23017945 -1.6307654e-05 0)
(0.35954574 -4.4258805e-05 0)
(0.5316727 -0.00010730799 0)
(0.75171213 -0.00023426188 0)
(1.0173554 -0.00044859975 0)
(1.3129314 -0.00071471176 0)
(1.605229 -0.00087439962 0)
(1.8457417 -0.00073307267 0)
(1.9830088 -0.00028485902 0)
(1.9830088 0.00028479109 0)
(1.8457415 0.00073300867 0)
(1.6052288 0.00087434856 0)
(1.3129311 0.00071467746 0)
(1.0173552 0.00044857047 0)
(0.75171188 0.00023423695 0)
(0.53167248 0.00010729465 0)
(0.35954556 4.4253321e-05 0)
(0.23017931 1.63068e-05 0)
(0.13562053 5.0866194e-06 0)
(0.067825307 1.0371107e-06 0)
(0.019863031 1.417319e-07 0)
(0.019873545 -1.9727306e-07 0)
(0.067863288 -1.4228193e-06 0)
(0.13570091 -6.7699806e-06 0)
(0.2303241 -2.1346189e-05 0)
(0.35978363 -5.6783701e-05 0)
(0.53203177 -0.00013491199 0)
(0.75219384 -0.00028925277 0)
(1.0178863 -0.00054693055 0)
(1.313327 -0.00086736621 0)
(1.6052705 -0.001065254 0)
(1.8453706 -0.00089889069 0)
(1.9823849 -0.00035064062 0)
(1.9823849 0.00035057746 0)
(1.8453704 0.00089882781 0)
(1.6052702 0.0010651984 0)
(1.3133268 0.00086733742 0)
(1.0178861 0.00054691199 0)
(0.7521936 0.00028922875 0)