/*--------------------------------*- C++ -*----------------------------------*\
  =========                 |
  \\      /  F ield         | OpenFOAM: The Open Source CFD Toolbox
   \\    /   O peration     | Website:  https://openfoam.org
    \\  /    A nd           | Version:  10
     \\/     M anipulation  |
\*---------------------------------------------------------------------------*/
FoamFile
{
    format      ascii;
    class       volScalarField;
    location    "12";
    object      T_0;
}
// * * * * * * * * * * * * * * * * * * * * * * * * * * * * * * * * * * * * * //

dimensions      [0 0 -1 0 0 0 0];

internalField   nonuniform List<scalar> 
100
(
4.4532
13.3182
22.0651
30.616
38.8953
46.8292
54.3476
61.3835
67.8746
73.7633
78.9972
83.5299
87.3213
90.3375
92.552
93.9449
94.504
94.2242
93.1081
91.1656
88.4139
84.8775
80.5876
75.5825
69.9065
63.61
56.7489
49.3841
41.581
33.4088
24.94
16.2499
7.41557
-1.48459
-10.3716
-19.1665
-27.7913
-36.1694
-44.2265
-51.891
-59.095
-65.7744
-71.8699
-77.3276
-82.0989
-86.1415
-89.4194
-91.9037
-93.5723
-94.4103
-94.4103
-93.5723
-91.9037
-89.4194
-86.1414
-82.0988
-77.3275
-71.8699
-65.7743
-59.0949
-51.8909
-44.2264
-36.1693
-27.7912
-19.1664
-10.3715
-1.48448
7.41568
16.25
24.9401
33.4089
41.5811
49.3842
56.749
63.6101
69.9066
75.5826
80.5877
84.8776
88.414
91.1657
93.1082
94.2243
94.504
93.9449
92.552
90.3376
87.3213
83.53
78.9972
73.7633
67.8747
61.3835
54.3476
46.8293
38.8953
30.616
22.0651
13.3182
4.4532
)
;

boundaryField
{
    xmin
    {
        type            fixedValue;
        value           uniform 0;
    }
    xmax
    {
        type            fixedValue;
        value           uniform 0;
    }
    frontAndBack
    {
        type            empty;
    }
}


// ************************************************************************* //
