/*--------------------------------*- C++ -*----------------------------------*\
  =========                 |
  \\      /  F ield         | OpenFOAM: The Open Source CFD Toolbox
   \\    /   O peration     | Website:  https://openfoam.org
    \\  /    A nd           | Version:  10
     \\/     M anipulation  |
\*---------------------------------------------------------------------------*/
FoamFile
{
    format      ascii;
    class       volScalarField;
    location    "0.06";
    object      T;
}
// * * * * * * * * * * * * * * * * * * * * * * * * * * * * * * * * * * * * * //

dimensions      [0 0 0 1 0 0 0];

internalField   nonuniform List<scalar> 
12225
(
1.00694
1.00397
1.00144
1.00053
1.00001
0.99965
0.999457
0.99937
0.999323
0.99929
0.999263
0.999216
0.999116
0.998869
0.998249
0.996756
0.992849
0.983587
0.994965
0.99447
0.996349
0.997908
0.99867
0.998979
0.999136
0.99924
0.999302
0.999333
0.999339
0.999316
0.99923
0.998998
0.998403
0.996979
0.993428
0.985128
0.999592
0.99992
1
0.999967
0.999819
0.999637
0.999514
0.999449
0.99941
0.999378
0.999345
0.999297
0.999198
0.998968
0.998408
0.997098
0.994008
0.98738
1.00032
1.00007
0.999547
0.99942
0.999421
0.999388
0.999355
0.999341
0.999334
0.999324
0.999306
0.99927
0.999183
0.998976
0.998477
0.997333
0.994788
0.989704
1.00013
0.999833
0.999434
0.999387
0.999436
0.999423
0.999388
0.999365
0.999348
0.999331
0.999307
0.999268
0.999184
0.998994
0.998557
0.997594
0.995578
0.991809
0.999993
0.999846
0.999578
0.999496
0.999494
0.99946
0.999412
0.999376
0.99935
0.999325
0.999296
0.999254
0.999173
0.999004
0.998635
0.997857
0.996319
0.993601
0.999975
0.999925
0.999719
0.999592
0.999547
0.999498
0.999443
0.999399
0.999363
0.99933
0.999295
0.999248
0.999171
0.999024
0.998721
0.998116
0.996981
0.995069
0.999983
0.999963
0.999798
0.999661
0.999596
0.999539
0.999477
0.999423
0.999378
0.999337
0.999296
0.999246
0.999172
0.999042
0.99879
0.998312
0.997452
0.996048
0.999986
0.999973
0.99984
0.999706
0.999627
0.99956
0.999491
0.99943
0.999377
0.99933
0.999283
0.99923
0.999158
0.999043
0.998834
0.998454
0.997794
0.996747
0.999984
0.999963
0.999852
0.999723
0.999631
0.999554
0.999478
0.99941
0.999351
0.999297
0.999245
0.999189
0.99912
0.999019
0.998849
0.998557
0.998071
0.997319
0.99998
0.999942
0.99984
0.999715
0.999612
0.999524
0.999441
0.999365
0.9993
0.999241
0.999184
0.999127
0.999061
0.998973
0.998838
0.998621
0.998276
0.99776
0.999976
0.999921
0.999818
0.999694
0.999583
0.999486
0.999398
0.999317
0.999245
0.99918
0.999121
0.999063
0.999
0.998924
0.998818
0.998661
0.998426
0.998086
0.999975
0.999912
0.999811
0.99969
0.999577
0.999476
0.999384
0.9993
0.999224
0.999156
0.999096
0.999038
0.998977
0.998911
0.99883
0.998718
0.998563
0.998349
0.999978
0.999919
0.999828
0.999717
0.99961
0.999512
0.999421
0.999338
0.999264
0.999197
0.999137
0.999081
0.999025
0.998969
0.998906
0.998828
0.998729
0.9986
0.999982
0.999936
0.999861
0.999769
0.999677
0.99959
0.999511
0.999438
0.99937
0.999309
0.999254
0.999205
0.999159
0.999113
0.999065
0.999011
0.99895
0.998876
0.999987
0.999957
0.999905
0.99984
0.999774
0.999712
0.999654
0.9996
0.999548
0.999503
0.999462
0.999426
0.999394
0.999361
0.999328
0.999295
0.999259
0.99922
0.999993
0.999986
0.999968
0.999941
0.999912
0.999886
0.999864
0.999841
0.99982
0.999801
0.999783
0.999768
0.999755
0.999743
0.99973
0.999716
0.999701
0.999687
1
1.00003
1.00005
1.00007
1.00009
1.00011
1.00013
1.00015
1.00017
1.00018
1.0002
1.00021
1.00022
1.00023
1.00024
1.00024
1.00025
1.00025
1.00001
1.00006
1.00011
1.00017
1.00022
1.00028
1.00034
1.00039
1.00043
1.00048
1.00051
1.00055
1.00058
1.0006
1.00063
1.00065
1.00067
1.00068
1.00001
1.00006
1.00012
1.00019
1.00026
1.00033
1.00039
1.00046
1.00052
1.00057
1.00062
1.00067
1.00071
1.00075
1.00078
1.00081
1.00084
1.00086
1.00001
1.00006
1.00012
1.00018
1.00025
1.00031
1.00038
1.00045
1.00051
1.00057
1.00062
1.00068
1.00072
1.00077
1.00081
1.00085
1.00088
1.00091
1.00001
1.00006
1.00012
1.00017
1.00023
1.0003
1.00036
1.00043
1.00049
1.00055
1.00061
1.00067
1.00072
1.00077
1.00081
1.00085
1.00089
1.00092
1
1.00008
1.00013
1.00016
1.00021
1.00027
1.00034
1.00041
1.00048
1.00054
1.0006
1.00066
1.00071
1.00076
1.00081
1.00085
1.00089
1.00093
0.999997
1.0001
1.00014
1.00015
1.00019
1.00026
1.00033
1.0004
1.00047
1.00054
1.00061
1.00067
1.00072
1.00077
1.00082
1.00086
1.00091
1.00094
1
1.00009
1.0001
1.00012
1.00019
1.00028
1.00035
1.00042
1.00049
1.00056
1.00063
1.00069
1.00074
1.00079
1.00084
1.00088
1.00093
1.00097
1.00014
1.00014
0.999953
0.999972
1.00014
1.00029
1.00039
1.00047
1.00055
1.00062
1.00068
1.00074
1.0008
1.00084
1.00089
1.00093
1.00097
1.00101
1.0005
1.00058
1.0001
0.999927
1.00003
1.00018
1.00031
1.00042
1.00053
1.00062
1.0007
1.00076
1.00082
1.00088
1.00093
1.00097
1.00102
1.00106
1.00004
1.00088
1.00115
1.00111
1.00099
1.00088
1.00081
1.0008
1.00082
1.00085
1.00088
1.00092
1.00096
1.00099
1.00103
1.00106
1.0011
1.00113
0.994517
0.993822
0.99606
0.998048
0.999185
0.99978
1.00015
1.0004
1.00059
1.00072
1.00083
1.00091
1.00098
1.00104
1.00109
1.00114
1.00118
1.00121
1.00648
1.00454
1.00223
1.0015
1.00119
1.00097
1.00088
1.00087
1.00089
1.00092
1.00096
1.00099
1.00103
1.00107
1.0011
1.00114
1.00117
1.00122
0.58269
0.582669
0.582591
0.582477
0.582337
0.582171
0.581973
0.581748
0.581497
0.581221
0.580923
0.580602
0.58026
0.579898
0.579517
0.579121
0.578711
0.578289
0.577858
0.577421
0.576981
0.57654
0.576102
0.575669
0.575244
0.574831
0.57443
0.574044
0.573673
0.57332
0.572997
0.572728
0.57257
0.572626
0.572706
0.572666
0.572655
0.572636
0.572628
0.572635
0.57264
0.572709
0.572873
0.57304
0.573259
0.573566
0.573907
0.574294
0.574723
0.575194
0.575705
0.576254
0.57684
0.577461
0.578117
0.578805
0.579524
0.580274
0.581051
0.581855
0.582684
0.583537
0.584411
0.585306
0.586219
0.58715
0.588096
0.589056
0.590028
0.591012
0.592005
0.593007
0.594015
0.595028
0.596046
0.597067
0.598089
0.599112
0.600135
0.601156
0.602175
0.60319
0.604202
0.605208
0.606208
0.607202
0.608188
0.609167
0.610137
0.611098
0.61205
0.612992
0.613923
0.614842
0.61575
0.616644
0.617524
0.618388
0.61924
0.620081
0.620908
0.62172
0.622517
0.623299
0.624064
0.624814
0.625546
0.626262
0.62696
0.62764
0.628303
0.628947
0.629573
0.630179
0.630766
0.631334
0.631881
0.632407
0.632913
0.633397
0.633859
0.634298
0.634715
0.635107
0.635475
0.635819
0.636138
0.636432
0.6367
0.636943
0.637159
0.637349
0.637511
0.637646
0.637753
0.637832
0.637882
0.637902
0.637893
0.637854
0.637784
0.637683
0.63755
0.637384
0.637184
0.63695
0.636681
0.636377
0.636037
0.635661
0.635248
0.634797
0.634309
0.633782
0.633217
0.632612
0.631968
0.631284
0.630559
0.629793
0.628986
0.628134
0.627233
0.626272
0.625253
0.624189
0.623082
0.621935
0.620746
0.619515
0.618241
0.616923
0.615561
0.614154
0.612702
0.611201
0.609676
0.608044
0.606621
0.604277
0.583792
0.583761
0.583701
0.583605
0.58348
0.583327
0.583144
0.582929
0.582683
0.582408
0.582104
0.581776
0.581426
0.581055
0.580668
0.580266
0.579851
0.579427
0.578995
0.57856
0.578123
0.57769
0.577263
0.576847
0.576447
0.576069
0.575717
0.575399
0.575117
0.574876
0.574671
0.574489
0.574316
0.574013
0.573649
0.573434
0.573306
0.573258
0.573276
0.573343
0.57347
0.573629
0.573784
0.574004
0.574291
0.574596
0.574936
0.575317
0.575739
0.576202
0.576704
0.577245
0.577824
0.578438
0.579086
0.579767
0.580479
0.581221
0.581991
0.582788
0.58361
0.584455
0.585322
0.58621
0.587117
0.58804
0.58898
0.589933
0.590899
0.591876
0.592863
0.593858
0.594859
0.595867
0.596879
0.597894
0.598911
0.599928
0.600946
0.601962
0.602975
0.603986
0.604992
0.605993
0.606989
0.607978
0.60896
0.609934
0.610899
0.611856
0.612803
0.613739
0.614665
0.615579
0.616482
0.617373
0.618253
0.619122
0.619976
0.620815
0.621638
0.622446
0.623239
0.624016
0.624777
0.625522
0.62625
0.626961
0.627654
0.62833
0.628988
0.629627
0.630247
0.630849
0.63143
0.631992
0.632533
0.633054
0.633553
0.634031
0.634487
0.63492
0.63533
0.635716
0.636077
0.636414
0.636726
0.637012
0.637273
0.637508
0.637716
0.637897
0.638052
0.638178
0.638276
0.638346
0.638386
0.638397
0.638378
0.638329
0.638249
0.638137
0.637993
0.637816
0.637605
0.637359
0.637079
0.636762
0.63641
0.636021
0.635595
0.635131
0.634629
0.634089
0.633509
0.63289
0.63223
0.631531
0.63079
0.630009
0.629184
0.628317
0.627407
0.626458
0.625468
0.624432
0.623354
0.622232
0.621067
0.619859
0.618606
0.617309
0.615967
0.614579
0.613146
0.611668
0.61016
0.608566
0.607106
0.605082
0.586074
0.586003
0.585924
0.585819
0.585684
0.585515
0.585314
0.585081
0.584817
0.584526
0.584207
0.583865
0.5835
0.583115
0.582714
0.582298
0.58187
0.581433
0.580989
0.580542
0.580096
0.579652
0.579215
0.578789
0.578376
0.57798
0.577604
0.577247
0.576912
0.576596
0.576303
0.576036
0.5758
0.575585
0.575391
0.575241
0.575131
0.575067
0.575055
0.575094
0.575189
0.57534
0.575535
0.57577
0.576041
0.576344
0.576684
0.577063
0.577481
0.577938
0.578434
0.578967
0.579537
0.580141
0.58078
0.581452
0.582154
0.582886
0.583647
0.584434
0.585247
0.586083
0.586942
0.587821
0.588719
0.589635
0.590566
0.591512
0.592471
0.593442
0.594423
0.595412
0.596409
0.597411
0.598419
0.59943
0.600444
0.601458
0.602473
0.603487
0.604499
0.605509
0.606514
0.607515
0.608511
0.609501
0.610484
0.611459
0.612426
0.613385
0.614334
0.615274
0.616203
0.617121
0.618028
0.618922
0.619804
0.620673
0.621529
0.622371
0.623199
0.624012
0.62481
0.625593
0.626359
0.62711
0.627843
0.62856
0.629259
0.629941
0.630604
0.631249
0.631875
0.632482
0.63307
0.633637
0.634184
0.63471
0.635215
0.635698
0.636159
0.636598
0.637012
0.637402
0.637768
0.638109
0.638425
0.638716
0.63898
0.639219
0.63943
0.639615
0.639772
0.6399
0.640001
0.640072
0.640114
0.640126
0.640108
0.64006
0.63998
0.639867
0.639723
0.639544
0.639331
0.639084
0.638801
0.638482
0.638127
0.637734
0.637304
0.636836
0.63633
0.635784
0.635199
0.634575
0.63391
0.633204
0.632457
0.631669
0.630839
0.629967
0.629054
0.628104
0.627115
0.626083
0.625008
0.62389
0.622728
0.621522
0.620272
0.618978
0.617637
0.61625
0.614818
0.613338
0.611823
0.61023
0.608729
0.606874
0.589488
0.589378
0.589271
0.589147
0.588992
0.588801
0.588577
0.588321
0.588035
0.587721
0.587382
0.587018
0.586633
0.586229
0.585808
0.585374
0.584927
0.584473
0.584012
0.583549
0.583087
0.582628
0.582176
0.581734
0.581304
0.58089
0.580494
0.580118
0.579763
0.579433
0.57913
0.578859
0.578621
0.578411
0.578231
0.57809
0.577989
0.577928
0.57791
0.577934
0.578004
0.578119
0.578277
0.57848
0.578725
0.57901
0.579336
0.5797
0.580105
0.580547
0.581028
0.581546
0.5821
0.582689
0.583312
0.583967
0.584653
0.58537
0.586115
0.586886
0.587684
0.588505
0.589349
0.590215
0.591099
0.592002
0.592921
0.593856
0.594804
0.595764
0.596735
0.597715
0.598703
0.599699
0.600699
0.601704
0.602713
0.603723
0.604734
0.605745
0.606755
0.607763
0.608768
0.609769
0.610765
0.611756
0.612741
0.613719
0.61469
0.615653
0.616606
0.617551
0.618486
0.61941
0.620324
0.621225
0.622115
0.622993
0.623857
0.624708
0.625544
0.626367
0.627175
0.627967
0.628744
0.629504
0.630249
0.630976
0.631686
0.632379
0.633054
0.63371
0.634348
0.634966
0.635565
0.636144
0.636703
0.63724
0.637756
0.638251
0.638723
0.639172
0.639597
0.639998
0.640374
0.640725
0.641051
0.641351
0.641626
0.641873
0.642093
0.642286
0.642451
0.642587
0.642695
0.642773
0.642821
0.642839
0.642827
0.642783
0.642707
0.642599
0.642458
0.642282
0.642072
0.641826
0.641544
0.641227
0.640872
0.640479
0.640049
0.63958
0.639072
0.638525
0.637938
0.637311
0.636643
0.635935
0.635184
0.634393
0.633559
0.632684
0.631768
0.630813
0.629817
0.628779
0.627698
0.626574
0.625407
0.624196
0.62294
0.62164
0.620294
0.6189
0.61746
0.61597
0.61444
0.612833
0.611295
0.609496
0.594008
0.593859
0.593725
0.593584
0.593409
0.593195
0.592947
0.592665
0.592353
0.592013
0.591646
0.591256
0.590845
0.590415
0.589968
0.589508
0.589038
0.588559
0.588075
0.58759
0.587105
0.586625
0.586151
0.585688
0.585237
0.584803
0.584386
0.583991
0.58362
0.583275
0.58296
0.582675
0.582422
0.582201
0.582013
0.581863
0.581752
0.58168
0.58165
0.581661
0.581714
0.58181
0.581948
0.582128
0.582351
0.582614
0.582919
0.583263
0.583646
0.584068
0.584528
0.585025
0.585558
0.586125
0.586726
0.58736
0.588025
0.588721
0.589445
0.590196
0.590973
0.591775
0.5926
0.593447
0.594313
0.595199
0.596102
0.597021
0.597954
0.5989
0.599857
0.600826
0.601803
0.602788
0.603779
0.604776
0.605776
0.60678
0.607785
0.608792
0.609798
0.610803
0.611806
0.612806
0.613803
0.614794
0.615781
0.616761
0.617735
0.618702
0.619661
0.620611
0.621551
0.622482
0.623403
0.624313
0.625211
0.626097
0.626971
0.627832
0.628679
0.629513
0.630332
0.631136
0.631925
0.632698
0.633455
0.634195
0.634919
0.635625
0.636313
0.636983
0.637635
0.638267
0.63888
0.639473
0.640045
0.640596
0.641126
0.641634
0.642119
0.642582
0.64302
0.643434
0.643822
0.644186
0.644524
0.644836
0.645121
0.645379
0.64561
0.645813
0.645988
0.646133
0.646249
0.646336
0.646392
0.646417
0.646411
0.646373
0.646303
0.646199
0.646062
0.64589
0.645682
0.645439
0.645159
0.644842
0.644488
0.644096
0.643665
0.643195
0.642686
0.642136
0.641547
0.640917
0.640246
0.639533
0.638779
0.637982
0.637144
0.636264
0.635343
0.63438
0.633377
0.632331
0.631243
0.630112
0.628937
0.627719
0.626456
0.625148
0.623794
0.622393
0.620943
0.619442
0.617896
0.616273
0.614705
0.612899
0.599646
0.599467
0.599311
0.599151
0.598955
0.598718
0.598443
0.598133
0.597792
0.597422
0.597025
0.596604
0.596162
0.595701
0.595225
0.594735
0.594235
0.593728
0.593217
0.592704
0.592193
0.591687
0.591189
0.590701
0.590228
0.58977
0.589333
0.588918
0.588527
0.588164
0.58783
0.587527
0.587256
0.587018
0.586815
0.586648
0.58652
0.586431
0.586382
0.586374
0.586407
0.586482
0.586598
0.586755
0.586954
0.587193
0.587472
0.58779
0.588147
0.588543
0.588976
0.589446
0.589952
0.590492
0.591066
0.591673
0.592311
0.592979
0.593677
0.594402
0.595154
0.59593
0.596731
0.597554
0.598398
0.599261
0.600142
0.601041
0.601954
0.602882
0.603822
0.604774
0.605736
0.606706
0.607684
0.608669
0.609659
0.610653
0.611649
0.612648
0.613648
0.614648
0.615646
0.616643
0.617637
0.618628
0.619615
0.620596
0.621571
0.622541
0.623503
0.624457
0.625403
0.62634
0.627268
0.628185
0.629091
0.629986
0.63087
0.631741
0.632599
0.633443
0.634274
0.63509
0.635892
0.636678
0.637448
0.638202
0.63894
0.63966
0.640363
0.641048
0.641714
0.642361
0.642989
0.643596
0.644183
0.64475
0.645295
0.645817
0.646317
0.646793
0.647246
0.647673
0.648076
0.648453
0.648804
0.649128
0.649426
0.649696
0.649938
0.650152
0.650337
0.650492
0.650618
0.650713
0.650777
0.65081
0.65081
0.650779
0.650714
0.650615
0.650482
0.650313
0.650108
0.649867
0.649589
0.649273
0.648918
0.648525
0.648093
0.647622
0.64711
0.646558
0.645965
0.64533
0.644655
0.643937
0.643177
0.642375
0.641531
0.640644
0.639716
0.638746
0.637734
0.63668
0.635583
0.634444
0.633261
0.632035
0.630764
0.629448
0.628086
0.626675
0.625216
0.623703
0.622142
0.620503
0.618908
0.617064
0.606432
0.606232
0.606058
0.605878
0.605659
0.605397
0.605094
0.604755
0.604383
0.603981
0.603551
0.603097
0.602621
0.602126
0.601616
0.601093
0.600561
0.600022
0.599479
0.598937
0.598396
0.597862
0.597336
0.596822
0.596323
0.595842
0.59538
0.594942
0.594529
0.594144
0.593788
0.593463
0.593171
0.592911
0.592687
0.592499
0.592348
0.592237
0.592164
0.592132
0.59214
0.592188
0.592277
0.592406
0.592576
0.592785
0.593033
0.59332
0.593646
0.59401
0.59441
0.594847
0.595319
0.595827
0.596367
0.596941
0.597546
0.598182
0.598847
0.59954
0.60026
0.601006
0.601776
0.60257
0.603385
0.60422
0.605075
0.605947
0.606836
0.60774
0.608657
0.609588
0.610529
0.611481
0.612441
0.613409
0.614384
0.615363
0.616347
0.617335
0.618324
0.619315
0.620306
0.621296
0.622285
0.623271
0.624254
0.625234
0.626208
0.627178
0.628141
0.629097
0.630046
0.630987
0.63192
0.632842
0.633755
0.634658
0.635549
0.636429
0.637297
0.638152
0.638993
0.639821
0.640634
0.641432
0.642216
0.642983
0.643734
0.644468
0.645185
0.645884
0.646565
0.647227
0.647869
0.648492
0.649094
0.649675
0.650235
0.650773
0.651287
0.651778
0.652245
0.652686
0.653103
0.653494
0.653858
0.654195
0.654505
0.654788
0.655041
0.655266
0.655461
0.655627
0.655762
0.655865
0.655938
0.655978
0.655986
0.65596
0.655901
0.655807
0.655677
0.655512
0.655309
0.65507
0.654792
0.654476
0.654122
0.653728
0.653294
0.65282
0.652305
0.651749
0.651151
0.650512
0.649831
0.649107
0.648341
0.647532
0.64668
0.645786
0.644849
0.643871
0.64285
0.641787
0.640681
0.639532
0.63834
0.637105
0.635825
0.6345
0.633129
0.63171
0.63024
0.628716
0.62714
0.625485
0.623864
0.621971
0.61441
0.614196
0.614004
0.613804
0.613561
0.613272
0.612941
0.612571
0.612166
0.61173
0.611265
0.610775
0.610264
0.609733
0.609187
0.608629
0.608061
0.607488
0.606912
0.606337
0.605765
0.6052
0.604644
0.604102
0.603575
0.603066
0.602578
0.602114
0.601675
0.601264
0.600882
0.600532
0.600213
0.599928
0.599678
0.599463
0.599286
0.599146
0.599045
0.598983
0.59896
0.598976
0.599032
0.599128
0.599263
0.599436
0.599648
0.599899
0.600187
0.600512
0.600874
0.601272
0.601705
0.602173
0.602674
0.603208
0.603774
0.60437
0.604996
0.605651
0.606333
0.607041
0.607775
0.608532
0.609312
0.610114
0.610935
0.611775
0.612633
0.613507
0.614396
0.615299
0.616214
0.617141
0.618078
0.619023
0.619977
0.620937
0.621903
0.622873
0.623847
0.624824
0.625802
0.626781
0.62776
0.628737
0.629713
0.630686
0.631656
0.632621
0.633581
0.634536
0.635485
0.636426
0.63736
0.638285
0.639202
0.640109
0.641006
0.641891
0.642766
0.643628
0.644478
0.645315
0.646138
0.646946
0.64774
0.648519
0.649281
0.650028
0.650757
0.651469
0.652163
0.652838
0.653494
0.654131
0.654747
0.655342
0.655916
0.656467
0.656996
0.6575
0.65798
0.658436
0.658865
0.659269
0.659646
0.659996
0.660318
0.660612
0.660876
0.661112
0.661317
0.661492
0.661636
0.661748
0.661828
0.661875
0.661889
0.66187
0.661815
0.661725
0.661599
0.661436
0.661236
0.660997
0.66072
0.660404
0.660048
0.659653
0.659216
0.658739
0.65822
0.65766
0.657057
0.656412
0.655724
0.654994
0.65422
0.653403
0.652544
0.651641
0.650696
0.649708
0.648677
0.647604
0.646488
0.64533
0.644128
0.642883
0.641593
0.640259
0.638879
0.63745
0.635971
0.634436
0.632848
0.631176
0.629531
0.627587
0.623634
0.623408
0.623199
0.622976
0.622709
0.622392
0.622031
0.621629
0.621191
0.620719
0.620218
0.619692
0.619142
0.618574
0.61799
0.617395
0.61679
0.616181
0.615569
0.614959
0.614353
0.613755
0.613168
0.612594
0.612036
0.611497
0.610979
0.610485
0.610017
0.609577
0.609165
0.608785
0.608436
0.60812
0.607839
0.607593
0.607383
0.60721
0.607075
0.606977
0.606918
0.606897
0.606915
0.60697
0.607065
0.607197
0.607367
0.607574
0.607818
0.608099
0.608416
0.608768
0.609155
0.609577
0.610032
0.610519
0.611039
0.611589
0.612169
0.612778
0.613415
0.614079
0.614769
0.615483
0.616221
0.616981
0.617762
0.618563
0.619382
0.620219
0.621072
0.62194
0.622823
0.623717
0.624624
0.62554
0.626466
0.6274
0.628341
0.629288
0.63024
0.631196
0.632155
0.633116
0.634079
0.635041
0.636004
0.636964
0.637923
0.638879
0.639831
0.640779
0.641722
0.642659
0.643589
0.644512
0.645427
0.646334
0.647231
0.648119
0.648996
0.649862
0.650716
0.651558
0.652386
0.653202
0.654003
0.65479
0.655561
0.656316
0.657055
0.657777
0.658481
0.659167
0.659834
0.660481
0.661109
0.661716
0.662301
0.662864
0.663404
0.66392
0.664412
0.664879
0.66532
0.665735
0.666123
0.666484
0.666816
0.66712
0.667394
0.667639
0.667853
0.668036
0.668188
0.668307
0.668394
0.668447
0.668467
0.668452
0.668401
0.668315
0.668191
0.66803
0.667831
0.667593
0.667315
0.666998
0.666641
0.666242
0.665803
0.665322
0.664799
0.664233
0.663624
0.662973
0.662279
0.661541
0.660759
0.659934
0.659066
0.658154
0.657199
0.656201
0.65516
0.654077
0.652951
0.651782
0.65057
0.649315
0.648016
0.646673
0.645283
0.643845
0.642357
0.640812
0.639214
0.637528
0.635861
0.633871
0.634164
0.633926
0.633698
0.633453
0.633159
0.632813
0.632421
0.631986
0.631513
0.631005
0.630467
0.629902
0.629313
0.628706
0.628083
0.627448
0.626805
0.626157
0.625508
0.624861
0.624219
0.623586
0.622963
0.622355
0.621763
0.621191
0.62064
0.620113
0.619612
0.619138
0.618692
0.618278
0.617894
0.617543
0.617226
0.616943
0.616695
0.616483
0.616308
0.616169
0.616068
0.616003
0.615976
0.615986
0.616034
0.616118
0.616239
0.616396
0.61659
0.61682
0.617084
0.617384
0.617719
0.618087
0.618488
0.618922
0.619388
0.619884
0.620411
0.620967
0.621551
0.622163
0.622801
0.623464
0.624151
0.624861
0.625594
0.626347
0.62712
0.627912
0.628721
0.629546
0.630386
0.631241
0.632108
0.632987
0.633877
0.634777
0.635684
0.6366
0.637522
0.638449
0.639382
0.640317
0.641256
0.642196
0.643137
0.644078
0.645019
0.645958
0.646895
0.647828
0.648758
0.649684
0.650604
0.651518
0.652426
0.653326
0.654218
0.655101
0.655975
0.656838
0.657691
0.658533
0.659362
0.660179
0.660982
0.661771
0.662546
0.663306
0.664049
0.664777
0.665487
0.666179
0.666853
0.667508
0.668143
0.668757
0.66935
0.669922
0.67047
0.670995
0.671495
0.671971
0.67242
0.672844
0.67324
0.673609
0.673949
0.674261
0.674543
0.674795
0.675015
0.675205
0.675362
0.675487
0.675579
0.675637
0.67566
0.675648
0.6756
0.675516
0.675393
0.675233
0.675034
0.674795
0.674516
0.674197
0.673837
0.673436
0.672992
0.672507
0.671978
0.671407
0.670792
0.670134
0.669432
0.668686
0.667896
0.667062
0.666185
0.665264
0.664299
0.663291
0.66224
0.661146
0.66001
0.658831
0.657609
0.656344
0.655035
0.653683
0.652285
0.650839
0.649343
0.647791
0.646183
0.644486
0.642803
0.640772
0.646065
0.645816
0.645569
0.645298
0.644976
0.6446
0.644175
0.643706
0.643196
0.642651
0.642073
0.641468
0.640839
0.640191
0.639527
0.638851
0.638167
0.637479
0.63679
0.636104
0.635423
0.634751
0.634091
0.633445
0.632816
0.632207
0.631619
0.631055
0.630516
0.630004
0.629521
0.629067
0.628644
0.628253
0.627894
0.627569
0.627277
0.627021
0.626799
0.626613
0.626463
0.626349
0.626271
0.626229
0.626222
0.626252
0.626317
0.626418
0.626554
0.626725
0.626931
0.627171
0.627444
0.627752
0.628092
0.628464
0.628867
0.629302
0.629767
0.630261
0.630784
0.631334
0.631912
0.632515
0.633143
0.633794
0.634469
0.635165
0.635883
0.636619
0.637375
0.638147
0.638937
0.639741
0.64056
0.641392
0.642236
0.643091
0.643957
0.644831
0.645713
0.646603
0.647498
0.648399
0.649304
0.650212
0.651123
0.652035
0.652948
0.653862
0.654774
0.655685
0.656594
0.657499
0.658401
0.659298
0.66019
0.661075
0.661954
0.662825
0.663688
0.664542
0.665386
0.66622
0.667043
0.667854
0.668653
0.669438
0.67021
0.670968
0.67171
0.672437
0.673147
0.67384
0.674515
0.675172
0.675809
0.676426
0.677023
0.677598
0.67815
0.678678
0.679183
0.679663
0.680117
0.680545
0.680946
0.68132
0.681665
0.681981
0.682267
0.682523
0.682747
0.682941
0.683101
0.683229
0.683323
0.683383
0.683408
0.683398
0.68335
0.683266
0.683143
0.682982
0.682781
0.682541
0.68226
0.681937
0.681574
0.681168
0.68072
0.680229
0.679695
0.679117
0.678495
0.67783
0.67712
0.676366
0.675567
0.674725
0.673838
0.672907
0.671933
0.670915
0.669853
0.668749
0.667603
0.666414
0.665182
0.663908
0.662591
0.661231
0.659825
0.658372
0.65687
0.655313
0.6537
0.651995
0.650299
0.648237
0.659415
0.659154
0.658885
0.658587
0.658234
0.657825
0.657365
0.656859
0.65631
0.655724
0.655105
0.654458
0.653786
0.653094
0.652386
0.651667
0.65094
0.650208
0.649477
0.648748
0.648025
0.647312
0.64661
0.645924
0.645254
0.644604
0.643975
0.643369
0.642789
0.642234
0.641707
0.64121
0.640742
0.640304
0.639898
0.639525
0.639184
0.638877
0.638603
0.638363
0.638158
0.637987
0.637851
0.637749
0.637682
0.63765
0.637652
0.637689
0.63776
0.637864
0.638003
0.638175
0.63838
0.638617
0.638887
0.639189
0.639522
0.639886
0.64028
0.640703
0.641155
0.641635
0.642141
0.642674
0.643233
0.643816
0.644422
0.645051
0.645702
0.646373
0.647064
0.647774
0.648501
0.649244
0.650004
0.650777
0.651565
0.652364
0.653176
0.653998
0.654829
0.655669
0.656517
0.657372
0.658232
0.659098
0.659967
0.66084
0.661715
0.662592
0.66347
0.664348
0.665225
0.6661
0.666973
0.667843
0.668709
0.66957
0.670426
0.671275
0.672118
0.672953
0.67378
0.674597
0.675405
0.676202
0.676988
0.677762
0.678523
0.679271
0.680004
0.680723
0.681426
0.682113
0.682782
0.683434
0.684067
0.684681
0.685274
0.685846
0.686396
0.686924
0.687427
0.687906
0.68836
0.688788
0.689189
0.689562
0.689907
0.690224
0.69051
0.690766
0.690991
0.691184
0.691344
0.691472
0.691566
0.691625
0.691649
0.691637
0.691588
0.691502
0.691377
0.691213
0.691009
0.690765
0.690479
0.690153
0.689784
0.689373
0.688919
0.688422
0.687881
0.687296
0.686667
0.685994
0.685276
0.684514
0.683707
0.682855
0.681959
0.681019
0.680035
0.679007
0.677936
0.676823
0.675667
0.674468
0.673228
0.671945
0.670621
0.669253
0.667842
0.666384
0.664878
0.663317
0.661702
0.659994
0.658292
0.656206
0.674297
0.674021
0.673728
0.673399
0.673012
0.672566
0.672067
0.67152
0.670928
0.670298
0.669634
0.66894
0.668221
0.667482
0.666727
0.66596
0.665186
0.664408
0.66363
0.662855
0.662087
0.661328
0.660581
0.659849
0.659134
0.658439
0.657764
0.657112
0.656484
0.655882
0.655307
0.65476
0.654241
0.653752
0.653293
0.652864
0.652468
0.652102
0.65177
0.651469
0.651202
0.650967
0.650766
0.650597
0.650462
0.65036
0.650291
0.650255
0.650252
0.650282
0.650345
0.65044
0.650567
0.650727
0.650917
0.651139
0.651392
0.651675
0.651987
0.652329
0.6527
0.653098
0.653524
0.653976
0.654454
0.654956
0.655483
0.656033
0.656606
0.657199
0.657814
0.658448
0.659101
0.659771
0.660458
0.661161
0.661879
0.662611
0.663356
0.664112
0.66488
0.665659
0.666446
0.667242
0.668046
0.668856
0.669671
0.670492
0.671317
0.672145
0.672976
0.673809
0.674642
0.675476
0.676308
0.677139
0.677968
0.678794
0.679616
0.680433
0.681245
0.682051
0.68285
0.68364
0.684423
0.685196
0.68596
0.686712
0.687453
0.688182
0.688897
0.689599
0.690287
0.690959
0.691614
0.692253
0.692875
0.693477
0.69406
0.694622
0.695163
0.695682
0.696178
0.69665
0.697097
0.697518
0.697913
0.698281
0.698621
0.698933
0.699214
0.699466
0.699686
0.699875
0.700032
0.700155
0.700245
0.7003
0.70032
0.700304
0.70025
0.700159
0.700029
0.69986
0.69965
0.699401
0.69911
0.698777
0.698402
0.697985
0.697524
0.69702
0.696472
0.695879
0.695242
0.694561
0.693834
0.693063
0.692248
0.691387
0.690482
0.689533
0.68854
0.687503
0.686423
0.685301
0.684136
0.682929
0.681681
0.680392
0.679061
0.677688
0.676272
0.674811
0.673304
0.671743
0.670129
0.668422
0.66672
0.66462
0.690804
0.69051
0.690188
0.689823
0.689396
0.688909
0.688365
0.68777
0.687129
0.686448
0.685732
0.684986
0.684214
0.683422
0.682614
0.681795
0.680968
0.680138
0.679309
0.678483
0.677664
0.676855
0.676058
0.675276
0.674511
0.673765
0.673039
0.672336
0.671655
0.671
0.67037
0.669767
0.669191
0.668644
0.668125
0.667635
0.667175
0.666745
0.666346
0.665977
0.66564
0.665334
0.665058
0.664815
0.664603
0.664423
0.664274
0.664157
0.664071
0.664017
0.663994
0.664003
0.664043
0.664113
0.664214
0.664346
0.664507
0.664699
0.664919
0.665168
0.665446
0.665751
0.666084
0.666443
0.666828
0.667238
0.667672
0.668131
0.668612
0.669115
0.66964
0.670185
0.67075
0.671333
0.671934
0.672553
0.673187
0.673837
0.674502
0.675179
0.67587
0.676572
0.677285
0.678009
0.678741
0.679482
0.68023
0.680985
0.681746
0.682512
0.683283
0.684056
0.684833
0.685611
0.686391
0.68717
0.687949
0.688727
0.689503
0.690275
0.691044
0.691809
0.692567
0.69332
0.694066
0.694804
0.695534
0.696255
0.696965
0.697664
0.698352
0.699027
0.699689
0.700337
0.700969
0.701586
0.702187
0.702769
0.703333
0.703877
0.704401
0.704904
0.705385
0.705842
0.706275
0.706684
0.707067
0.707423
0.707752
0.708052
0.708324
0.708565
0.708776
0.708956
0.709104
0.709218
0.7093
0.709347
0.709358
0.709334
0.709272
0.709173
0.709036
0.708859
0.708642
0.708384
0.708085
0.707745
0.707362
0.706937
0.706468
0.705955
0.705399
0.704798
0.704153
0.703463
0.702728
0.701948
0.701124
0.700255
0.699341
0.698383
0.697382
0.696337
0.695249
0.694118
0.692946
0.691733
0.690478
0.689183
0.687847
0.686471
0.685053
0.683592
0.682085
0.680528
0.678919
0.677219
0.675522
0.673418
0.709039
0.708722
0.708366
0.707957
0.707483
0.706944
0.706346
0.705694
0.704994
0.704253
0.703475
0.702666
0.701833
0.700979
0.70011
0.69923
0.698344
0.697455
0.696568
0.695685
0.69481
0.693944
0.693091
0.692254
0.691432
0.69063
0.689847
0.689086
0.688347
0.687631
0.686941
0.686275
0.685635
0.685022
0.684436
0.683877
0.683346
0.682843
0.682369
0.681924
0.681507
0.68112
0.680763
0.680435
0.680136
0.679868
0.67963
0.679421
0.679243
0.679094
0.678976
0.678887
0.678828
0.678799
0.678799
0.678829
0.678888
0.678975
0.679091
0.679236
0.679408
0.679607
0.679834
0.680086
0.680365
0.680669
0.680998
0.68135
0.681726
0.682124
0.682545
0.682987
0.683449
0.683931
0.684431
0.68495
0.685487
0.68604
0.686608
0.687192
0.68779
0.688401
0.689025
0.68966
0.690307
0.690963
0.691629
0.692303
0.692985
0.693675
0.69437
0.69507
0.695776
0.696485
0.697197
0.697911
0.698626
0.699342
0.700058
0.700773
0.701485
0.702195
0.702902
0.703604
0.704301
0.704992
0.705676
0.706352
0.70702
0.707679
0.708327
0.708965
0.709591
0.710204
0.710803
0.711388
0.711958
0.712511
0.713046
0.713564
0.714062
0.71454
0.714997
0.715432
0.715844
0.716231
0.716595
0.716932
0.717243
0.717526
0.717781
0.718006
0.718202
0.718367
0.7185
0.718602
0.71867
0.718704
0.718703
0.718667
0.718594
0.718483
0.718334
0.718147
0.717919
0.717651
0.717342
0.716992
0.716599
0.716164
0.715686
0.715164
0.714598
0.713988
0.713334
0.712635
0.711891
0.711103
0.71027
0.709393
0.708471
0.707505
0.706496
0.705444
0.704349
0.703212
0.702034
0.700815
0.699555
0.698256
0.696918
0.69554
0.694122
0.692663
0.691161
0.68961
0.68801
0.686321
0.684636
0.682539
0.72915
0.728802
0.728401
0.727939
0.727404
0.726797
0.726127
0.7254
0.724623
0.723803
0.722947
0.72206
0.721149
0.720219
0.719276
0.718324
0.717367
0.716409
0.715454
0.714505
0.713564
0.712635
0.711718
0.710817
0.709932
0.709066
0.708219
0.707392
0.706587
0.705805
0.705045
0.704309
0.703597
0.702909
0.702246
0.701609
0.700998
0.700412
0.699853
0.699321
0.698815
0.698337
0.697886
0.697463
0.697067
0.6967
0.69636
0.696049
0.695765
0.69551
0.695284
0.695085
0.694915
0.694774
0.69466
0.694574
0.694517
0.694487
0.694485
0.694511
0.694564
0.694643
0.694749
0.694881
0.695039
0.695222
0.695429
0.695661
0.695916
0.696195
0.696496
0.696819
0.697163
0.697527
0.697912
0.698316
0.698738
0.699178
0.699636
0.700109
0.700599
0.701103
0.701622
0.702154
0.702699
0.703255
0.703823
0.704401