/*--------------------------------*- C++ -*----------------------------------*\
  =========                 |
  \\      /  F ield         | OpenFOAM: The Open Source CFD Toolbox
   \\    /   O peration     | Website:  https://openfoam.org
    \\  /    A nd           | Version:  10
     \\/     M anipulation  |
\*---------------------------------------------------------------------------*/
FoamFile
{
    format      ascii;
    class       volScalarField;
    location    "30.5";
    object      T;
}
// * * * * * * * * * * * * * * * * * * * * * * * * * * * * * * * * * * * * * //

dimensions      [0 0 0 1 0 0 0];

internalField   nonuniform List<scalar> 
10000
(
374.985
361.289
356.608
354.556
353.443
352.74
352.251
351.885
351.6
351.368
351.175
351.009
350.866
350.739
350.625
350.522
350.428
350.341
350.261
350.185
350.114
350.047
349.984
349.923
349.865
349.81
349.757
349.705
349.656
349.608
349.562
349.517
349.474
349.431
349.39
349.35
349.311
349.273
349.236
349.2
349.164
349.13
349.096
349.063
349.031
349
348.969
348.939
348.91
348.882
348.854
348.826
348.8
348.774
348.749
348.724
348.7
348.676
348.654
348.631
348.61
348.588
348.568
348.548
348.529
348.51
348.492
348.474
348.457
348.44
348.425
348.409
348.394
348.38
348.366
348.353
348.341
348.328
348.317
348.306
348.295
348.286
348.276
348.267
348.259
348.251
348.244
348.238
348.231
348.226
348.221
348.216
348.212
348.209
348.206
348.203
348.202
348.2
348.199
348.199
388.613
374.851
367.193
362.728
359.916
358.006
356.625
355.575
354.744
354.064
353.494
353.005
352.579
352.202
351.863
351.557
351.276
351.016
350.775
350.55
350.337
350.137
349.947
349.766
349.592
349.426
349.267
349.113
348.965
348.822
348.683
348.549
348.418
348.291
348.168
348.048
347.931
347.817
347.706
347.597
347.492
347.388
347.287
347.189
347.092
346.998
346.907
346.817
346.729
346.643
346.56
346.478
346.398
346.321
346.245
346.171
346.098
346.028
345.959
345.892
345.827
345.764
345.703
345.643
345.585
345.529
345.474
345.421
345.37
345.32
345.273
345.226
345.182
345.139
345.098
345.058
345.021
344.984
344.95
344.917
344.885
344.856
344.828
344.801
344.776
344.753
344.732
344.712
344.693
344.676
344.661
344.648
344.636
344.625
344.617
344.609
344.604
344.6
344.598
344.597
393.228
382.311
374.587
369.248
365.487
362.745
360.671
359.047
357.737
356.652
355.733
354.941
354.246
353.628
353.072
352.567
352.103
351.675
351.276
350.903
350.551
350.219
349.903
349.602
349.315
349.039
348.774
348.518
348.272
348.034
347.803
347.579
347.362
347.151
346.946
346.746
346.551
346.361
346.176
345.996
345.819
345.647
345.479
345.315
345.155
344.998
344.845
344.695
344.549
344.407
344.267
344.131
343.998
343.869
343.742
343.619
343.498
343.381
343.267
343.156
343.047
342.942
342.839
342.74
342.643
342.549
342.458
342.37
342.285
342.202
342.123
342.046
341.972
341.9
341.832
341.766
341.703
341.642
341.585
341.53
341.478
341.428
341.382
341.337
341.296
341.257
341.221
341.188
341.157
341.13
341.104
341.082
341.062
341.044
341.03
341.018
341.009
341.002
340.998
340.997
395.214
386.578
379.595
374.191
370.039
366.816
364.267
362.206
360.506
359.074
357.847
356.779
355.836
354.993
354.231
353.536
352.897
352.305
351.753
351.235
350.747
350.285
349.846
349.428
349.027
348.643
348.273
347.917
347.573
347.241
346.918
346.606
346.303
346.008
345.721
345.441
345.169
344.904
344.645
344.393
344.146
343.906
343.671
343.441
343.217
342.998
342.783
342.574
342.37
342.17
341.975
341.785
341.599
341.418
341.241
341.068
340.9
340.736
340.576
340.42
340.269
340.121
339.978
339.838
339.703
339.572
339.445
339.321
339.202
339.086
338.975
338.867
338.764
338.664
338.568
338.476
338.387
338.303
338.222
338.145
338.072
338.003
337.938
337.876
337.818
337.764
337.714
337.667
337.624
337.585
337.55
337.518
337.49
337.466
337.446
337.429
337.416
337.407
337.401
337.399
396.261
389.192
383.027
377.881
373.663
370.214
367.374
365.007
363.007
361.293
359.804
358.494
357.328
356.278
355.325
354.452
353.647
352.898
352.199
351.541
350.921
350.332
349.773
349.238
348.727
348.235
347.763
347.307
346.867
346.441
346.028
345.628
345.239
344.861
344.493
344.134
343.785
343.445
343.113
342.789
342.472
342.163
341.862
341.567
341.279
340.998
340.723
340.454
340.192
339.935
339.685
339.44
339.202
338.969
338.741
338.52
338.303
338.093
337.887
337.687
337.492
337.303
337.119
336.94
336.766
336.597
336.434
336.275
336.122
335.973
335.83
335.692
335.559
335.43
335.307
335.189
335.075
334.967
334.863
334.764
334.67
334.581
334.497
334.418
334.344
334.274
334.209
334.15
334.095
334.044
333.999
333.958
333.922
333.891
333.865
333.844
333.827
333.815
333.808
333.805
396.898
390.904
385.439
380.643
376.52
373.005
370.009
367.442
365.224
363.289
361.584
360.068
358.705
357.47
356.342
355.304
354.342
353.445
352.605
351.814
351.065
350.354
349.677
349.03
348.41
347.814
347.24
346.686
346.151
345.633
345.131
344.643
344.17
343.709
343.261
342.824
342.399
341.984
341.579
341.183
340.798
340.421
340.053
339.693
339.342
338.998
338.663
338.335
338.015
337.702
337.396
337.098
336.806
336.522
336.244
335.974
335.709
335.452
335.201
334.957
334.719
334.488
334.263
334.044
333.832
333.626
333.426
333.233
333.045
332.864
332.689
332.52
332.358
332.201
332.05
331.906
331.767
331.635
331.508
331.388
331.273
331.164
331.062
330.965
330.874
330.789
330.71
330.637
330.57
330.508
330.453
330.403
330.359
330.321
330.289
330.263
330.243
330.228
330.219
330.216
397.322
392.087
387.185
382.732
378.769
375.279
372.217
369.529
367.159
365.057
363.179
361.489
359.957
358.558
357.272
356.082
354.975
353.94
352.966
352.047
351.176
350.348
349.557
348.8
348.074
347.376
346.702
346.053
345.424
344.815
344.225
343.651
343.094
342.552
342.024
341.51
341.009
340.52
340.042
339.577
339.122
338.677
338.243
337.819
337.405
337
336.604
336.217
335.839
335.47
335.109
334.757
334.413
334.078
333.75
333.43
333.119
332.815
332.519
332.23
331.95
331.677
331.411
331.153
330.902
330.659
330.423
330.195
329.974
329.76
329.553
329.354
329.162
328.977
328.799
328.628
328.465
328.308
328.159
328.016
327.881
327.753
327.631
327.517
327.41
327.309
327.216
327.13
327.05
326.978
326.912
326.854
326.802
326.757
326.719
326.688
326.664
326.647
326.637
326.633
397.621
392.941
388.48
384.333
380.545
377.125
374.054
371.301
368.829
366.603
364.588
362.756
361.079
359.537
358.109
356.782
355.542
354.377
353.278
352.238
351.25
350.308
349.408
348.545
347.716
346.918
346.148
345.404
344.684
343.986
343.309
342.651
342.011
341.389
340.782
340.191
339.615
339.053
338.504
337.968
337.444
336.933
336.434
335.945
335.468
335.002
334.546
334.101
333.666
333.24
332.825
332.419
332.023
331.637
331.259
330.891
330.532
330.182
329.841
329.508
329.185
328.87
328.564
328.267
327.978
327.698
327.426
327.163
326.908
326.661
326.423
326.193
325.972
325.758
325.553
325.357
325.168
324.988
324.815
324.651
324.495
324.347
324.208
324.076
323.952
323.837
323.729
323.629
323.538
323.454
323.379
323.311
323.252
323.2
323.156
323.121
323.093
323.073
323.061
323.057
397.841
393.576
389.463
385.575
381.956
378.624
375.574
372.792
370.256
367.94
365.819
363.87
362.071
360.404
358.851
357.4
356.037
354.752
353.537
352.383
351.284
350.234
349.229
348.264
347.335
346.44
345.576
344.74
343.93
343.145
342.383
341.641
340.92
340.218
339.534
338.868
338.217
337.582
336.962
336.357
335.766
335.188
334.624
334.072
333.532
333.005
332.49
331.986
331.494
331.013
330.544
330.085
329.637
329.199
328.772
328.356
327.949
327.553
327.167
326.791
326.425
326.069
325.723
325.386
325.059
324.742
324.434
324.136
323.848
323.569
323.299
323.039
322.788
322.547
322.315
322.092
321.879
321.674
321.479
321.294
321.117
320.95
320.791
320.642
320.502
320.371
320.25
320.137
320.033
319.939
319.853
319.777
319.709
319.651
319.601
319.561
319.529
319.507
319.494
319.489
398.008
394.059
390.222
386.55
383.083
379.841
376.829
374.041
371.466
369.085
366.882
364.838
362.936
361.16
359.497
357.934
356.46
355.065
353.74
352.479
351.275
350.122
349.016
347.953
346.928
345.94
344.984
344.058
343.161
342.291
341.444
340.622
339.821
339.041
338.28
337.539
336.815
336.108
335.418
334.745
334.086
333.443
332.814
332.199
331.598
331.01
330.436
329.874
329.326
328.789
328.265
327.754
327.254
326.766
326.29
325.825
325.372
324.93
324.499
324.079
323.671
323.274
322.887
322.512
322.147
321.793
321.45
321.117
320.795
320.484
320.183
319.893
319.613
319.343
319.084
318.836
318.597
318.369
318.152
317.944
317.747
317.56
317.384
317.217
317.061
316.915
316.779
316.653
316.537
316.432
316.336
316.251
316.176
316.11
316.055
316.01
315.975
315.95
315.935
315.93
398.136
394.434
390.815
387.321
383.986
380.83
377.862
375.082
372.483
370.056
367.789
365.667
363.679
361.81
360.049
358.386
356.81
355.313
353.887
352.525
351.222
349.971
348.769
347.612
346.495
345.415
344.371
343.358
342.376
341.422
340.494
339.591
338.712
337.855
337.019
336.204
335.408
334.631
333.872
333.13
332.405
331.696
331.003
330.326
329.664
329.016
328.383
327.765
327.16
326.569
325.991
325.427
324.876
324.337
323.812
323.3
322.8
322.312
321.837
321.374
320.924
320.485
320.059
319.644
319.242
318.851
318.473
318.106
317.75
317.407
317.075
316.754
316.446
316.148
315.862
315.588
315.325
315.073
314.833
314.604
314.387
314.181
313.986
313.802
313.629
313.468
313.318
313.179
313.051
312.935
312.829
312.735
312.652
312.58
312.519
312.469
312.431
312.403
312.386
312.381
398.236
394.728
391.283
387.935
384.713
381.634
378.71
375.943
373.333
370.872
368.555
366.369
364.307
362.357
360.509
358.756
357.087
355.497
353.977
352.521
351.124
349.781
348.488
347.24
346.034
344.867
343.736
342.639
341.574
340.538
339.53
338.549
337.593
336.661
335.751
334.863
333.996
333.149
332.322
331.513
330.722
329.949
329.193
328.454
327.731
327.025
326.333
325.658
324.997
324.352
323.721
323.104
322.502
321.914
321.34
320.78
320.234
319.701
319.182
318.676
318.184
317.704
317.238
316.785
316.345
315.918
315.504
315.103
314.715
314.339
313.976
313.626
313.288
312.963
312.65
312.35
312.063
311.787
311.525
311.275
311.037
310.811
310.598
310.397
310.208
310.032
309.868
309.716
309.576
309.449
309.333
309.23
309.139
309.061
308.994
308.94
308.897
308.867
308.849
308.843
398.315
394.96
391.654
388.426
385.297
382.286
379.402
376.652
374.036
371.551
369.192
366.954
364.828
362.807
360.883
359.048
357.295
355.618
354.01
352.467
350.982
349.551
348.17
346.836
345.544
344.293
343.079
341.9
340.754
339.639
338.553
337.496
336.464
335.458
334.475
333.516
332.579
331.664
330.769
329.894
329.038
328.202
327.383
326.583
325.8
325.035
324.286
323.554
322.838
322.139
321.455
320.787
320.134
319.497
318.874
318.267
317.675
317.097
316.534
315.985
315.451
314.932
314.426
313.935
313.457
312.994
312.545
312.11
311.688
311.281
310.887
310.507
310.14
309.788
309.449
309.123
308.811
308.512
308.227
307.956
307.698
307.453
307.222
307.004
306.799
306.607
306.429
306.265
306.113
305.975
305.85
305.738
305.639
305.553
305.481
305.422
305.376
305.343
305.324
305.317
398.377
395.144
391.95
388.818
385.767
382.813
379.965
377.231
374.611
372.107
369.715
367.432
365.251
363.167
361.174
359.265
357.435
355.679
353.99
352.363
350.795
349.281
347.817
346.4
345.026
343.694
342.399
341.141
339.917
338.725
337.563
336.43
335.325
334.246
333.193
332.163
331.158
330.174
329.213
328.273
327.353
326.454
325.574
324.713
323.871
323.048
322.242
321.454
320.684
319.931
319.194
318.475
317.772
317.086
316.415
315.761
315.123
314.501
313.894
313.303
312.728
312.168
311.623
311.093
310.579
310.08
309.596
309.127
308.673
308.233
307.809
307.399
307.004
306.624
306.258
305.907
305.571
305.249
304.942
304.649
304.371
304.107
303.858
303.623
303.402
303.196
303.004
302.826
302.663
302.513
302.379
302.258
302.152
302.059
301.981
301.918
301.868
301.833
301.812
301.804
398.427
395.29
392.185
389.131
386.143
383.236
380.419
377.698
375.077
372.556
370.136
367.813
365.583
363.443
361.388
359.412
357.511
355.681
353.916
352.212
350.565
348.972
347.429
345.933
344.48
343.069
341.697
340.362
339.062
337.795
336.559
335.353
334.175
333.026
331.902
330.804
329.731
328.681
327.654
326.65
325.667
324.706
323.765
322.845
321.944
321.063
320.201
319.358
318.534
317.727
316.939
316.169
315.416
314.681
313.964
313.263
312.58
311.913
311.263
310.63
310.013
309.413
308.83
308.262
307.711
307.176
306.658
306.155
305.668
305.197
304.742
304.303
303.88
303.473
303.081
302.705
302.344
301.999
301.67
301.356
301.058
300.775
300.507
300.255
300.019
299.798
299.592
299.401
299.226
299.066
298.921
298.792
298.678
298.579
298.496
298.427
298.374
298.336
298.314
298.306
398.466
395.405
392.371
389.379
386.442
383.573
380.78
378.069
375.446
372.911
370.465
368.106
365.833
363.642
361.53
359.493
357.526
355.627
353.791
352.014
350.293
348.625
347.006
345.434
343.906
342.42
340.973
339.563
338.189
336.849
335.541
334.264
333.016
331.797
330.605
329.439
328.299
327.184
326.093
325.026
323.981
322.958
321.958
320.978
320.02
319.082
318.164
317.267
316.389
315.53
314.69
313.87
313.068
312.285
311.52
310.773
310.045
309.334
308.641
307.967
307.309
306.67
306.047
305.442
304.855
304.284
303.731
303.195
302.676
302.174
301.689
301.22
300.769
300.334
299.916
299.515
299.13
298.763
298.411
298.076
297.758
297.456
297.171
296.902
296.65
296.414
296.194
295.991
295.804
295.634
295.479
295.341
295.22
295.114
295.025
294.952
294.896
294.855
294.831
294.823
398.497
395.495
392.517
389.573
386.676
383.836
381.062
378.359
375.732
373.183
370.713
368.322
366.009
363.771
361.606
359.512
357.484
355.52
353.617
351.772
349.981
348.241
346.55
344.906
343.305
341.746
340.227
338.745
337.299
335.888
334.509
333.163
331.846
330.559
329.3
328.069
326.863
325.684
324.53
323.4
322.294
321.211
320.151
319.114
318.098
317.104
316.132
315.18
314.249
313.338
312.448
311.578
310.727
309.896
309.084
308.292
307.519
306.765
306.03
305.313
304.616
303.937
303.276
302.634
302.01
301.404
300.817
300.248
299.697
299.163
298.648
298.151
297.671
297.21
296.766
296.34
295.931
295.541
295.167
294.812
294.474
294.153
293.85
293.565
293.297
293.046
292.813
292.597
292.398
292.217
292.053
291.907
291.778
291.666
291.571
291.493
291.433
291.39
291.364
291.356
398.52
395.565
392.629
389.722
386.856
384.038
381.277
378.578
375.945
373.382
370.889
368.467
366.117
363.835
361.622
359.474
357.389
355.365
353.398
351.488
349.63
347.822
346.062
344.348
342.678
341.048
339.459
337.908
336.392
334.912
333.465
332.05
330.667
329.313
327.989
326.692
325.423
324.181
322.964
321.773
320.607
319.465
318.347
317.252
316.18
315.131
314.104
313.099
312.115
311.153
310.213
309.293
308.394
307.516
306.658
305.821
305.004
304.206
303.429
302.672
301.934
301.216
300.517
299.838
299.178
298.538
297.916
297.314
296.731
296.167
295.622
295.096
294.589
294.1
293.631
293.18
292.748
292.334
291.939
291.563
291.206
290.866
290.546
290.244
289.96
289.695
289.448
289.219
289.009
288.818
288.644
288.489
288.352
288.234
288.134
288.052
287.988
287.942
287.915
287.906
398.538
395.617
392.713
389.834
386.989
384.187
381.434
378.735
376.095
373.516
371.001
368.55
366.164
363.841
361.581
359.383
357.244
355.163
353.137
351.164
349.242
347.369
345.543
343.763
342.025
340.328
338.671
337.052
335.469
333.922
332.408
330.927
329.478
328.059
326.671
325.311
323.979
322.675
321.397
320.146
318.92
317.72
316.544
315.393
314.265
313.161
312.081
311.023
309.988
308.975
307.985
307.017
306.07
305.145
304.242
303.359
302.498
301.659
300.84
300.041
299.264
298.507
297.771
297.055
296.36
295.684
295.03
294.395
293.78
293.185
292.611
292.056
291.521
291.006
290.511
290.036
289.58
289.144
288.728
288.331
287.954
287.596
287.258
286.94
286.641
286.361
286.101
285.86
285.638
285.436
285.253
285.089
284.945
284.82
284.714
284.628
284.561
284.513
284.484
284.474
398.551
395.655
392.774
389.914
387.084
384.291
381.541
378.839
376.189
373.594
371.056
368.576
366.156
363.794
361.49
359.244
357.054
354.918
352.835
350.803
348.82
346.885
344.996
343.15
341.347
339.585
337.863
336.178
334.53
332.917
331.339
329.793
328.28
326.798
325.346
323.924
322.531
321.166
319.829
318.518
317.234
315.977
314.744
313.537
312.355
311.197
310.064
308.954
307.868
306.805
305.766
304.749
303.755
302.784
301.835
300.909
300.005
299.123
298.262
297.424
296.607
295.812
295.038
294.286
293.555
292.846
292.158
291.491
290.845
290.22
289.616
289.033
288.471
287.929
287.409
286.909
286.43
285.972
285.534
285.117
284.72
284.344
283.989
283.654
283.34
283.045
282.772
282.518
282.285
282.073
281.881
281.709
281.557
281.425
281.314
281.223
281.153
281.102
281.072
281.062
398.56
395.681
392.814
389.967
387.146
384.357
381.606
378.897
376.235
373.622
371.061
368.553
366.099
363.699
361.353
359.06
356.821
354.633
352.495
350.407
348.365
346.37
344.42
342.513
340.647
338.822
337.036
335.288
333.576
331.9
330.258
328.65
327.074
325.53
324.017
322.534
321.08
319.656
318.26
316.891
315.55
314.235
312.947
311.686
310.449
309.238
308.053
306.892
305.755
304.643
303.555
302.491
301.45
300.434
299.44
298.47
297.523
296.599
295.698
294.819
293.964
293.131
292.32
291.532
290.766
290.023
289.301
288.602
287.925
287.27
286.637
286.026
285.437
284.869
284.324
283.8
283.298
282.817
282.359
281.921
281.506
281.111
280.739
280.387
280.058
279.749
279.462
279.197
278.953
278.73
278.528
278.348
278.189
278.051
277.934
277.839
277.765
277.712
277.68
277.669
398.565
395.696
392.838
389.997
387.179
384.389
381.633
378.915
376.238
373.606
371.021
368.484
365.997
363.56
361.173
358.837
356.55
354.311
352.121
349.978
347.881
345.828
343.819
341.852
339.926
338.039
336.192
334.382
332.608
330.87
329.167
327.497
325.86
324.256
322.682
321.14
319.627
318.144
316.69
315.264
313.867
312.497
311.154
309.838
308.549
307.286
306.048
304.837
303.651
302.49
301.354
300.243
299.156
298.094
297.056
296.043
295.054
294.088
293.147
292.229
291.335
290.464
289.617
288.793
287.993
287.216
286.462
285.731
285.023
284.338
283.676
283.037
282.421
281.828
281.257
280.71
280.185
279.682
279.202
278.745
278.31
277.898
277.508
277.141
276.796
276.474
276.173
275.896
275.64
275.407
275.196
275.007
274.841
274.697
274.575
274.475
274.398
274.343
274.309
274.298
398.567
395.702
392.847
390.007
387.187
384.392
381.627
378.897
376.204
373.551
370.941
368.376
365.856
363.382
360.955
358.576
356.243
353.956
351.716
349.52
347.368
345.26
343.193
341.168
339.184
337.238
335.331
333.461
331.627
329.829
328.065
326.336
324.639
322.975
321.343
319.742
318.172
316.631
315.121
313.639
312.186
310.762
309.365
307.996
306.654
305.339
304.051
302.79
301.555
300.346
299.162
298.005
296.873
295.766
294.685
293.629
292.598
291.591
290.61
289.653
288.721
287.813
286.929
286.07
285.236
284.425
283.639
282.877
282.138
281.424
280.734
280.067
279.424
278.806
278.21
277.639
277.091
276.567
276.066
275.589
275.135
274.705
274.299
273.915
273.556
273.219
272.906
272.616
272.349
272.106
271.886
271.689
271.515
271.365
271.238
271.134
271.053
270.995
270.961
270.949
398.566
395.7
392.843
389.999
387.173
384.37
381.594
378.848
376.137
373.462
370.826
368.231
365.679
363.169
360.703
358.282
355.904
353.571
351.281
349.034
346.83
344.667
342.546
340.465
338.423
336.42
334.454
332.526
330.634
328.777
326.955
325.167
323.412
321.69
320.001
318.342
316.715
315.119
313.552
312.016
310.508
309.03
307.58
306.159
304.766
303.4
302.062
300.752
299.468
298.212
296.982
295.778
294.602
293.451
292.326
291.228
290.155
289.109
288.088
287.092
286.122
285.178
284.259
283.365
282.496
281.653
280.834
280.041
279.272
278.529
277.81
277.116
276.447
275.803
275.183
274.588
274.018
273.472
272.951
272.454
271.982
271.534
271.111
270.712
270.337
269.987
269.66
269.359
269.081
268.828
268.598
268.393
268.213
268.056
267.923
267.815
267.731
267.671
267.635
267.622
398.564
395.692
392.828
389.976
387.141
384.326
381.535
378.772
376.041
373.342
370.68
368.055
365.47
362.924
360.42
357.957
355.536
353.157
350.819
348.523
346.267
344.053
341.878
339.742
337.645
335.586
333.564
331.579
329.629
327.716
325.836
323.991
322.18
320.401
318.655
316.941
315.258
313.606
311.985
310.395
308.834
307.303
305.801
304.328
302.884
301.469
300.082
298.723
297.391
296.088
294.812
293.564
292.343
291.148
289.981
288.841
287.728
286.641
285.581
284.547
283.54
282.559
281.605
280.677
279.774
278.898
278.048
277.224
276.426
275.653
274.907
274.186
273.491
272.821
272.178
271.559
270.967
270.4
269.858
269.342
268.851
268.385
267.945
267.531
267.141
266.777
266.438
266.124
265.836
265.572
265.334
265.121
264.933
264.77
264.633
264.52
264.433
264.37
264.333
264.32
398.559
395.678
392.804
389.941
387.092
384.263
381.455
378.673
375.919
373.196
370.506
367.851
365.232
362.651
360.109
357.605
355.141
352.717
350.333
347.989
345.683
343.418
341.19
339.002
336.851
334.737
332.66
330.62
328.615
326.645
324.71
322.809
320.942
319.108
317.307
315.538
313.8
312.095
310.42
308.777
307.163
305.58
304.027
302.504
301.01
299.546
298.11
296.703
295.325
293.976
292.654
291.361
290.097
288.86
287.651
286.469
285.316
284.189
283.091
282.019
280.975
279.959
278.969
278.007
277.071
276.163
275.281
274.427
273.599
272.798
272.024
271.276
270.555
269.861
269.193
268.552
267.937
267.349
266.787
266.252
265.743
265.26
264.803
264.373
263.969
263.591
263.24
262.914
262.615
262.342
262.095
261.874
261.679
261.51
261.367
261.25
261.159
261.094
261.055
261.042
398.553
395.659
392.771
389.894
387.03
384.182
381.356
378.552
375.775
373.026
370.307
367.621
364.969
362.353
359.772
357.229
354.723
352.255
349.825
347.433
345.08
342.764
340.486
338.246
336.042
333.876
331.745
329.651
327.592
325.568
323.578
321.623
319.701
317.813
315.957
314.134
312.344
310.585
308.858
307.162
305.498
303.864
302.26
300.687
299.144
297.631
296.148
294.694
293.27
291.875
290.509
289.172
287.864
286.585
285.335
284.113
282.919
281.754
280.617
279.509
278.428
277.376
276.352
275.356
274.388
273.448
272.535
271.65
270.794
269.964
269.163
268.389
267.642
266.923
266.232
265.568
264.931
264.322
263.74
263.186
262.659
262.159
261.686
261.24
260.822
260.43
260.066
259.729
259.419
259.136
258.88
258.651
258.449
258.274
258.126
258.005
257.911
257.844
257.803
257.79
398.545
395.635
392.732
389.837
386.954
384.088
381.24
378.413
375.61
372.834
370.087
367.369
364.684
362.031
359.413
356.83
354.283
351.772
349.297
346.859
344.458
342.094
339.767
337.476
335.221
333.003
330.82
328.673
326.56
324.483
322.44
320.432
318.457
316.515
314.607
312.731
310.888
309.078
307.299
305.552
303.837
302.153
300.5
298.878
297.287
295.727
294.196
292.697
291.227
289.787
288.377
286.997
285.646
284.325
283.034
281.772
280.539
279.336
278.161
277.016
275.9
274.813
273.755
272.725
271.725
270.753
269.81
268.895
268.01
267.152
266.324
265.524
264.752
264.009
263.294
262.607
261.949
261.319
260.718
260.144
259.599
259.082
258.593
258.132
257.7
257.295
256.918
256.57
256.249
255.956
255.692
255.455
255.246
255.065
254.912
254.787
254.689
254.62
254.578
254.564
398.536
395.608
392.685
389.771
386.868
383.98
381.109
378.257
375.429
372.624
369.847
367.097
364.378
361.69
359.034
356.412
353.823
351.27
348.751
346.268
343.821
341.409
339.033
336.693
334.388
332.119
329.885
327.686
325.522
323.393
321.298
319.237
317.21
315.217
313.257
311.33
309.435
307.574
305.745
303.948
302.183
300.45
298.748
297.078
295.44
293.832
292.256
290.71
289.196
287.712
286.258
284.836
283.443
282.081
280.75
279.448
278.177
276.935
275.724
274.542
273.391
272.269
271.177
270.115
269.082
268.079
267.106
266.162
265.248
264.363
263.508
262.682
261.885
261.118
260.38
259.671
258.992
258.341
257.72
257.128
256.565
256.031
255.527
255.051
254.604
254.186
253.797
253.437
253.106
252.804
252.53
252.286
252.07
251.883
251.725
251.596
251.495
251.423
251.38
251.366
398.526
395.577
392.634
389.698
386.773
383.861
380.965
378.088
375.231
372.398
369.589
366.808
364.054
361.33
358.637
355.976
353.347
350.751
348.19
345.662
343.169
340.711
338.287
335.899
333.545
331.226
328.942
326.693
324.479
322.299
320.153
318.041
315.963
313.918
311.907
309.93
307.985
306.074
304.195
302.349
300.535
298.754
297.004
295.287
293.602
291.948
290.327
288.736
287.178
285.65
284.154
282.69
281.256
279.853
278.482
277.141
275.832
274.553
273.305
272.088
270.901
269.746
268.62
267.526
266.461
265.428
264.425
263.452
262.509
261.597
260.716
259.864
259.043
258.252
257.491
256.76
256.06
255.389
254.749
254.138
253.558
253.007
252.487
251.996
251.535
251.104
250.703
250.332
249.99
249.679
249.397
249.145
248.922
248.729
248.566
248.433
248.329
248.255
248.211
248.196
398.515
395.543
392.577
389.618
386.669
383.732
380.81
377.906
375.021
372.157
369.317
366.503
363.715
360.955
358.224
355.524
352.855
350.218
347.614
345.042
342.504
340
337.53
335.095
332.693
330.326
327.993
325.695
323.43
321.2
319.004
316.843
314.715
312.62
310.56
308.532
306.539
304.578
302.651
300.756
298.895
297.066
295.27
293.506
291.775
290.076
288.41
286.775
285.173
283.603
282.065
280.559
279.085
277.642
276.232
274.853
273.506
272.19
270.906
269.654
268.433
267.243
266.085
264.958
263.863
262.799
261.766
260.765
259.795
258.856
257.948
257.071
256.226
255.411
254.628
253.875
253.154
252.463
251.804
251.175
250.577
250.01
249.474
248.969
248.494
248.05
247.637
247.255
246.903
246.582
246.292
246.032
245.803
245.604
245.436
245.299
245.192
245.116
245.07
245.055
398.503
395.507
392.517
389.533
386.558
383.594
380.645
377.712
374.798
371.904
369.032
366.184
363.361
360.565
357.798
355.059
352.35
349.672
347.025
344.411
341.829
339.28
336.764
334.282
331.834
329.419
327.038
324.691
322.378
320.1
317.855
315.644
313.467
311.324
309.214
307.139
305.097
303.088
301.113
299.171
297.262
295.387
293.545
291.735
289.959
288.216
286.506
284.828
283.183
281.571
279.992
278.445
276.931
275.449
274
272.583
271.199
269.847
268.527
267.24
265.985
264.762
263.572
262.414
261.288
260.194
259.132
258.102
257.105
256.139
255.206
254.304
253.435
252.597
251.791
251.017
250.275
249.565
248.886
248.24
247.625
247.042
246.49
245.97
245.482
245.026
244.601
244.207
243.845
243.515
243.216
242.949
242.713
242.509
242.336
242.195
242.085
242.006
241.959
241.943
398.49
395.469
392.452
389.442
386.44
383.449
380.472
377.51
374.565
371.639
368.735
365.853
362.996
360.164
357.359
354.581
351.833
349.114
346.426
343.769
341.144
338.551
335.99
333.462
330.968
328.506
326.079
323.685
321.324
318.998
316.705
314.446
312.221
310.03
307.873
305.749
303.66
301.604
299.582
297.593
295.639
293.718
291.83
289.976
288.156
286.369
284.615
282.895
281.208
279.555
277.935
276.348
274.794
273.274
271.787
270.333
268.912
267.524
266.169
264.848
263.56
262.304
261.082
259.892
258.736
257.613
256.522
255.465
254.44
253.448
252.489
251.563
250.67
249.809
248.982
248.187
247.424
246.694
245.997
245.333
244.701
244.102
243.535
243.001
242.499
242.03
241.593
241.189
240.817
240.478
240.171
239.896
239.654
239.444
239.266
239.121
239.008
238.927
238.879
238.863
398.476
395.428
392.385
389.347
386.317
383.298
380.291
377.298
374.323
371.365
368.428
365.512
362.619
359.751
356.909
354.094
351.306
348.547
345.818
343.119
340.451
337.814
335.209
332.637
330.097
327.59
325.116
322.675
320.268
317.895
315.555
313.249
310.977
308.739
306.535
304.365
302.229
300.127
298.059
296.025
294.025
292.059
290.127
288.229
286.365
284.535
282.739
280.977
279.249
277.554
275.894
274.268
272.676
271.117
269.593
268.102
266.645
265.222
263.833
262.478
261.157
259.869
258.615
257.395
256.209
255.056
253.938
252.853
251.801
250.784
249.8
248.849
247.933
247.05
246.2
245.384
244.602
243.853
243.137
242.455
241.807
241.192
240.61
240.062
239.547
239.065
238.617
238.202
237.82
237.472
237.157
236.875
236.626
236.41
236.228
236.079
235.963
235.88
235.83
235.813
398.462
395.386
392.314
389.248
386.189
383.14
380.103
377.08
374.073
371.083
368.112
365.162
362.234
359.33
356.45
353.597
350.77
347.972
345.202
342.461
339.751
337.071
334.423
331.807
329.222
326.67
324.151
321.665
319.212
316.793
314.407
312.055
309.737
307.453
305.202
302.986
300.805
298.657
296.544
294.465
292.421
290.411
288.435
286.494
284.587
282.715
280.877
279.074
277.305
275.571
273.872
272.207
270.576
268.98
267.419
265.892
264.4
262.942
261.519
260.131
258.777
257.457
256.173
254.922
253.707
252.526
251.379
250.267
249.189
248.146
247.137
246.163
245.223
244.318
243.447
242.611
241.808
241.041
240.307
239.608
238.943
238.312
237.716
237.153
236.625
236.131
235.672
235.246
234.855
234.497
234.174
233.885
233.63
233.409
233.222
233.069
232.95
232.865
232.814
232.796
398.448
395.343
392.242
389.146
386.057
382.978
379.91
376.856
373.816
370.793
367.789
364.804
361.841
358.9
355.984
353.092
350.227
347.389
344.579
341.797
339.046
336.324
333.633
330.973
328.345
325.749
323.185
320.654
318.156
315.692
313.261
310.864
308.5
306.171
303.876
301.615
299.388
297.196
295.039
292.916
290.828
288.774
286.756
284.772
282.824
280.91
279.031
277.187
275.379
273.605
271.867
270.164
268.496
266.863
265.266
263.703
262.176
260.685
259.228
257.807
256.421
255.07
253.755
252.475
251.23
250.021
248.847
247.708
246.605
245.536
244.503
243.506
242.543
241.616
240.724
239.867
239.045
238.258
237.507
236.791
236.109
235.463
234.852
234.276
233.735
233.229
232.758
232.322
231.921
231.555
231.224
230.928
230.666
230.44
230.248
230.091
229.969
229.882
229.83
229.812
398.433
395.298
392.167
389.041
385.922
382.812
379.712
376.626
373.554
370.497
367.459
364.44
361.441
358.464
355.511
352.582
349.678
346.801
343.951
341.129
338.336
335.572
332.839
330.137
327.466
324.826
322.219
319.644
317.102
314.593
312.118
309.676
307.269
304.895
302.555
300.25
297.98
295.744
293.543
291.377
289.246
287.15
285.09
283.065
281.075
279.12
277.201
275.318
273.47
271.658
269.881
268.141
266.436
264.767
263.134
261.537
259.975
258.45
256.96
255.507
254.09
252.708
251.363
250.054
248.78
247.543
246.342
245.177
244.048
242.955
241.898
240.877
239.892
238.943
238.03
237.153
236.312
235.507
234.738
234.005
233.308
232.647
232.021
231.431
230.878
230.36
229.878
229.431
229.021
228.646
228.307
228.004
227.736
227.504
227.308
227.148
227.023
226.934
226.88
226.862
398.418
395.252
392.091
388.934
385.783
382.642
379.511
376.392
373.286
370.197
367.124
364.07
361.036
358.023
355.033
352.066
349.124
346.208
343.318