/*--------------------------------*- C++ -*----------------------------------*\
  =========                 |
  \\      /  F ield         | OpenFOAM: The Open Source CFD Toolbox
   \\    /   O peration     | Website:  https://openfoam.org
    \\  /    A nd           | Version:  10
     \\/     M anipulation  |
\*---------------------------------------------------------------------------*/
FoamFile
{
    format      ascii;
    class       volScalarField;
    location    "30.5";
    object      T_0;
}
// * * * * * * * * * * * * * * * * * * * * * * * * * * * * * * * * * * * * * //

dimensions      [0 0 0 1 0 0 0];

internalField   nonuniform List<scalar> 
10000
(
374.982
361.288
356.607
354.555
353.442
352.739
352.249
351.884
351.599
351.367
351.173
351.008
350.865
350.738
350.624
350.521
350.427
350.34
350.259
350.184
350.113
350.046
349.982
349.922
349.864
349.809
349.755
349.704
349.655
349.607
349.561
349.516
349.472
349.43
349.389
349.349
349.31
349.272
349.234
349.198
349.163
349.128
349.095
349.062
349.03
348.998
348.968
348.938
348.909
348.88
348.852
348.825
348.798
348.772
348.747
348.722
348.698
348.675
348.652
348.63
348.608
348.587
348.566
348.546
348.527
348.508
348.49
348.472
348.455
348.439
348.423
348.408
348.393
348.378
348.365
348.351
348.339
348.327
348.315
348.304
348.294
348.284
348.275
348.266
348.257
348.25
348.243
348.236
348.23
348.224
348.219
348.215
348.211
348.207
348.204
348.202
348.2
348.199
348.198
348.198
388.612
374.852
367.193
362.728
359.916
358.006
356.625
355.575
354.744
354.064
353.494
353.005
352.579
352.202
351.863
351.556
351.275
351.016
350.775
350.549
350.337
350.137
349.946
349.765
349.592
349.426
349.266
349.113
348.965
348.821
348.683
348.548
348.418
348.291
348.167
348.047
347.93
347.816
347.705
347.597
347.491
347.387
347.286
347.188
347.091
346.997
346.905
346.816
346.728
346.642
346.559
346.477
346.397
346.319
346.243
346.169
346.097
346.027
345.958
345.891
345.826
345.763
345.701
345.642
345.584
345.527
345.473
345.42
345.368
345.319
345.271
345.225
345.18
345.138
345.096
345.057
345.019
344.983
344.948
344.915
344.884
344.854
344.826
344.8
344.775
344.752
344.73
344.71
344.692
344.675
344.66
344.646
344.634
344.624
344.615
344.608
344.602
344.598
344.596
344.595
393.227
382.311
374.587
369.248
365.487
362.745
360.671
359.047
357.736
356.651
355.733
354.94
354.245
353.627
353.071
352.566
352.102
351.674
351.275
350.901
350.55
350.217
349.902
349.601
349.313
349.037
348.772
348.517
348.27
348.032
347.801
347.578
347.36
347.149
346.944
346.744
346.549
346.359
346.174
345.993
345.817
345.645
345.477
345.313
345.152
344.996
344.843
344.693
344.547
344.404
344.265
344.129
343.996
343.866
343.74
343.616
343.496
343.379
343.264
343.153
343.045
342.939
342.837
342.737
342.64
342.546
342.456
342.367
342.282
342.2
342.12
342.043
341.969
341.897
341.829
341.763
341.7
341.639
341.582
341.527
341.475
341.425
341.378
341.334
341.293
341.254
341.218
341.185
341.154
341.126
341.101
341.079
341.059
341.041
341.027
341.015
341.006
340.999
340.995
340.994
395.212
386.578
379.595
374.19
370.039
366.816
364.266
362.206
360.505
359.074
357.847
356.778
355.835
354.992
354.23
353.535
352.896
352.304
351.752
351.234
350.746
350.284
349.845
349.426
349.025
348.641
348.271
347.915
347.571
347.238
346.916
346.604
346.3
346.005
345.718
345.439
345.167
344.901
344.642
344.39
344.143
343.903
343.667
343.438
343.214
342.994
342.78
342.571
342.367
342.167
341.972
341.782
341.596
341.414
341.237
341.065
340.896
340.732
340.572
340.416
340.265
340.117
339.974
339.835
339.699
339.568
339.441
339.317
339.198
339.082
338.971
338.863
338.759
338.66
338.564
338.471
338.383
338.299
338.218
338.141
338.068
337.999
337.933
337.872
337.814
337.76
337.709
337.663
337.62
337.581
337.545
337.514
337.486
337.462
337.441
337.425
337.412
337.402
337.397
337.395
396.26
389.192
383.027
377.88
373.663
370.214
367.373
365.006
363.006
361.292
359.803
358.493
357.326
356.277
355.324
354.451
353.645
352.896
352.197
351.539
350.919
350.33
349.77
349.236
348.724
348.233
347.76
347.304
346.864
346.438
346.025
345.625
345.236
344.857
344.489
344.131
343.782
343.441
343.109
342.785
342.469
342.16
341.858
341.563
341.275
340.993
340.719
340.45
340.187
339.931
339.681
339.436
339.197
338.964
338.737
338.515
338.299
338.088
337.882
337.682
337.487
337.298
337.114
336.935
336.761
336.592
336.429
336.27
336.117
335.968
335.825
335.687
335.553
335.425
335.302
335.183
335.07
334.961
334.858
334.759
334.665
334.576
334.492
334.413
334.338
334.269
334.204
334.144
334.089
334.039
333.993
333.953
333.917
333.886
333.859
333.838
333.821
333.809
333.802
333.8
396.896
390.904
385.439
380.642
376.519
373.005
370.008
367.441
365.223
363.288
361.583
360.066
358.703
357.468
356.34
355.302
354.34
353.443
352.603
351.811
351.063
350.352
349.675
349.027
348.407
347.811
347.237
346.683
346.147
345.629
345.127
344.639
344.166
343.705
343.257
342.82
342.394
341.979
341.574
341.179
340.793
340.416
340.048
339.688
339.337
338.993
338.658
338.33
338.009
337.696
337.391
337.092
336.801
336.516
336.239
335.968
335.704
335.446
335.195
334.951
334.713
334.482
334.257
334.038
333.826
333.62
333.42
333.227
333.039
332.858
332.683
332.514
332.351
332.195
332.044
331.899
331.761
331.628
331.502
331.381
331.266
331.158
331.055
330.958
330.867
330.782
330.703
330.63
330.563
330.501
330.446
330.396
330.352
330.315
330.282
330.256
330.236
330.221
330.213
330.21
397.32
392.087
387.184
382.731
378.768
375.278
372.216
369.528
367.158
365.056
363.177
361.487
359.955
358.556
357.27
356.08
354.973
353.937
352.964
352.044
351.173
350.344
349.554
348.797
348.07
347.372
346.699
346.049
345.42
344.811
344.22
343.647
343.09
342.547
342.019
341.505
341.004
340.514
340.037
339.571
339.116
338.672
338.238
337.813
337.399
336.994
336.598
336.211
335.833
335.464
335.103
334.751
334.407
334.071
333.743
333.424
333.112
332.808
332.512
332.224
331.943
331.67
331.404
331.146
330.895
330.652
330.416
330.188
329.966
329.753
329.546
329.346
329.154
328.969
328.791
328.62
328.457
328.3
328.151
328.008
327.873
327.745
327.623
327.509
327.402
327.302
327.208
327.122
327.042
326.97
326.904
326.846
326.794
326.749
326.711
326.68
326.656
326.639
326.629
326.625
397.62
392.941
388.48
384.332
380.545
377.124
374.053
371.299
368.828
366.601
364.587
362.754
361.077
359.534
358.107
356.779
355.539
354.374
353.275
352.235
351.247
350.305
349.404
348.541
347.712
346.914
346.144
345.4
344.68
343.981
343.304
342.646
342.006
341.383
340.777
340.186
339.609
339.047
338.498
337.962
337.438
336.927
336.427
335.939
335.462
334.995
334.539
334.094
333.659
333.233
332.818
332.412
332.016
331.629
331.251
330.883
330.524
330.174
329.833
329.5
329.177
328.862
328.556
328.258
327.97
327.689
327.417
327.154
326.899
326.653
326.414
326.185
325.963
325.75
325.545
325.348
325.159
324.979
324.806
324.642
324.486
324.338
324.199
324.067
323.943
323.827
323.72
323.62
323.529
323.445
323.37
323.302
323.242
323.191
323.147
323.111
323.084
323.064
323.052
323.048
397.84
393.576
389.462
385.575
381.956
378.623
375.573
372.791
370.254
367.938
365.817
363.868
362.069
360.401
358.849
357.397
356.034
354.749
353.533
352.379
351.28
350.23
349.224
348.259
347.331
346.435
345.571
344.735
343.925
343.14
342.377
341.636
340.915
340.212
339.528
338.861
338.211
337.576
336.956
336.35
335.759
335.181
334.616
334.064
333.525
332.998
332.482
331.979
331.486
331.005
330.535
330.076
329.628
329.191
328.763
328.347
327.94
327.544
327.158
326.782
326.416
326.06
325.713
325.377
325.05
324.732
324.425
324.127
323.838
323.559
323.289
323.029
322.778
322.537
322.305
322.082
321.869
321.664
321.469
321.284
321.107
320.939
320.781
320.632
320.492
320.361
320.239
320.126
320.023
319.928
319.843
319.766
319.699
319.64
319.591
319.55
319.519
319.496
319.483
319.479
398.006
394.059
390.221
386.549
383.082
379.84
376.828
374.04
371.464
369.083
366.879
364.835
362.933
361.157
359.494
357.931
356.456
355.061
353.736
352.475
351.27
350.117
349.011
347.948
346.923
345.934
344.978
344.053
343.155
342.284
341.438
340.615
339.814
339.034
338.273
337.531
336.808
336.101
335.411
334.737
334.078
333.434
332.805
332.19
331.589
331.001
330.427
329.865
329.317
328.78
328.256
327.744
327.244
326.756
326.28
325.815
325.362
324.92
324.489
324.069
323.661
323.263
322.877
322.501
322.136
321.782
321.439
321.106
320.784
320.473
320.172
319.882
319.602
319.332
319.073
318.824
318.586
318.358
318.14
317.933
317.736
317.549
317.372
317.206
317.049
316.903
316.767
316.641
316.526
316.42
316.325
316.239
316.164
316.099
316.043
315.998
315.963
315.938
315.923
315.918
398.135
394.434
390.814
387.32
383.985
380.829
377.86
375.08
372.481
370.054
367.786
365.665
363.676
361.806
360.046
358.382
356.806
355.308
353.882
352.52
351.217
349.966
348.764
347.606
346.489
345.41
344.365
343.352
342.369
341.415
340.487
339.584
338.704
337.847
337.011
336.196
335.4
334.622
333.863
333.121
332.396
331.687
330.994
330.317
329.654
329.007
328.374
327.755
327.15
326.559
325.981
325.416
324.865
324.327
323.801
323.289
322.789
322.301
321.826
321.363
320.912
320.474
320.047
319.633
319.23
318.84
318.461
318.094
317.738
317.395
317.063
316.742
316.433
316.136
315.85
315.576
315.313
315.061
314.821
314.592
314.374
314.168
313.973
313.789
313.617
313.455
313.305
313.166
313.039
312.922
312.817
312.722
312.639
312.567
312.506
312.456
312.418
312.39
312.373
312.368
398.235
394.728
391.282
387.934
384.711
381.633
378.708
375.941
373.33
370.87
368.552
366.366
364.303
362.353
360.506
358.752
357.083
355.492
353.972
352.516
351.119
349.776
348.482
347.234
346.027
344.86
343.729
342.632
341.567
340.531
339.523
338.541
337.585
336.652
335.743
334.854
333.987
333.14
332.312
331.503
330.713
329.939
329.183
328.444
327.721
327.014
326.323
325.647
324.986
324.341
323.71
323.093
322.491
321.903
321.329
320.768
320.222
319.689
319.17
318.664
318.171
317.692
317.226
316.773
316.333
315.905
315.491
315.09
314.701
314.326
313.963
313.612
313.275
312.949
312.637
312.337
312.049
311.774
311.511
311.261
311.023
310.797
310.584
310.383
310.194
310.018
309.854
309.702
309.562
309.435
309.319
309.216
309.125
309.047
308.98
308.925
308.883
308.853
308.835
308.829
398.314
394.96
391.654
388.425
385.296
382.284
379.401
376.65
374.033
371.548
369.189
366.951
364.824
362.803
360.878
359.043
357.29
355.613
354.005
352.461
350.976
349.545
348.164
346.829
345.537
344.286
343.072
341.893
340.746
339.631
338.545
337.487
336.455
335.449
334.466
333.507
332.57
331.654
330.759
329.884
329.028
328.191
327.373
326.572
325.789
325.024
324.275
323.543
322.827
322.127
321.443
320.775
320.122
319.484
318.862
318.254
317.662
317.084
316.521
315.972
315.438
314.918
314.412
313.921
313.444
312.98
312.531
312.096
311.674
311.266
310.873
310.492
310.126
309.773
309.434
309.108
308.796
308.498
308.213
307.941
307.683
307.438
307.207
306.988
306.784
306.592
306.414
306.249
306.098
305.959
305.834
305.722
305.624
305.538
305.466
305.407
305.361
305.328
305.308
305.302
398.376
395.144
391.949
388.817
385.766
382.811
379.963
377.228
374.609
372.104
369.712
367.428
365.247
363.163
361.169
359.26
357.43
355.673
353.984
352.357
350.789
349.274
347.81
346.393
345.019
343.686
342.392
341.133
339.908
338.716
337.554
336.421
335.316
334.237
333.183
332.153
331.147
330.164
329.202
328.262
327.342
326.443
325.562
324.701
323.859
323.035
322.23
321.442
320.671
319.918
319.181
318.462
317.759
317.072
316.402
315.748
315.109
314.487
313.88
313.289
312.713
312.153
311.608
311.079
310.564
310.065
309.581
309.112
308.657
308.218
307.793
307.384
306.989
306.608
306.243
305.892
305.555
305.233
304.926
304.633
304.355
304.091
303.842
303.606
303.386
303.179
302.987
302.81
302.646
302.497
302.362
302.241
302.135
302.043
301.965
301.901
301.852
301.816
301.795
301.788
398.426
395.29
392.184
389.13
386.142
383.234
380.417
377.695
375.074
372.553
370.132
367.809
365.579
363.438
361.383
359.407
357.506
355.675
353.909
352.205
350.558
348.965
347.422
345.925
344.472
343.061
341.689
340.354
339.053
337.785
336.549
335.343
334.165
333.015
331.892
330.794
329.72
328.67
327.643
326.638
325.655
324.694
323.753
322.832
321.931
321.05
320.188
319.345
318.52
317.714
316.925
316.155
315.402
314.667
313.949
313.248
312.565
311.898
311.248
310.615
309.998
309.398
308.814
308.247
307.695
307.16
306.642
306.139
305.652
305.181
304.726
304.287
303.863
303.456
303.064
302.688
302.327
301.982
301.653
301.339
301.04
300.757
300.49
300.238
300.001
299.78
299.574
299.384
299.208
299.049
298.904
298.775
298.66
298.562
298.478
298.41
298.357
298.319
298.296
298.288
398.465
395.405
392.37
389.377
386.44
383.571
380.777
378.067
375.443
372.908
370.461
368.102
365.829
363.637
361.525
359.487
357.52
355.621
353.784
352.007
350.286
348.618
346.999
345.426
343.898
342.411
340.964
339.554
338.18
336.839
335.531
334.253
333.005
331.786
330.594
329.428
328.288
327.172
326.081
325.013
323.968
322.945
321.944
320.965
320.006
319.068
318.15
317.252
316.374
315.515
314.675
313.855
313.053
312.269
311.504
310.757
310.029
309.318
308.625
307.95
307.293
306.653
306.03
305.425
304.838
304.267
303.714
303.178
302.658
302.156
301.671
301.203
300.751
300.316
299.898
299.497
299.112
298.744
298.393
298.058
297.74
297.438
297.153
296.884
296.631
296.395
296.176
295.972
295.786
295.615
295.461
295.323
295.201
295.096
295.006
294.933
294.877
294.836
294.812
294.804
398.495
395.495
392.516
389.571
386.674
383.834
381.059
378.356
375.728
373.179
370.709
368.318
366.004
363.766
361.601
359.506
357.478
355.514
353.611
351.765
349.973
348.233
346.542
344.897
343.296
341.737
340.217
338.735
337.289
335.877
334.499
333.152
331.835
330.547
329.288
328.056
326.851
325.671
324.517
323.387
322.28
321.197
320.137
319.1
318.084
317.09
316.117
315.165
314.233
313.323
312.432
311.562
310.711
309.88
309.068
308.276
307.502
306.748
306.013
305.296
304.598
303.919
303.258
302.616
301.992
301.386
300.799
300.229
299.678
299.145
298.629
298.132
297.653
297.191
296.747
296.321
295.912
295.521
295.148
294.792
294.454
294.134
293.831
293.545
293.277
293.026
292.793
292.577
292.379
292.197
292.033
291.887
291.758
291.646
291.551
291.473
291.413
291.37
291.344
291.336
398.519
395.565
392.628
389.721
386.854
384.036
381.274
378.575
375.942
373.378
370.885
368.463
366.112
363.83
361.616
359.468
357.382
355.358
353.391
351.48
349.622
347.814
346.054
344.339
342.668
341.039
339.449
337.897
336.382
334.901
333.454
332.039
330.655
329.301
327.976
326.679
325.41
324.167
322.951
321.759
320.593
319.45
318.332
317.237
316.165
315.115
314.088
313.082
312.099
311.137
310.196
309.276
308.377
307.499
306.641
305.803
304.986
304.188
303.411
302.653
301.915
301.197
300.498
299.819
299.159
298.518
297.897
297.295
296.711
296.147
295.602
295.076
294.569
294.08
293.611
293.16
292.727
292.314
291.919
291.543
291.185
290.846
290.525
290.223
289.939
289.674
289.427
289.198
288.988
288.797
288.623
288.468
288.331
288.213
288.112
288.03
287.967
287.921
287.894
287.885
398.537
395.617
392.712
389.833
386.988
384.185
381.431
378.732
376.091
373.512
370.996
368.545
366.158
363.835
361.575
359.377
357.237
355.155
353.129
351.156
349.234
347.361
345.534
343.753
342.015
340.318
338.66
337.041
335.458
333.91
332.396
330.915
329.465
328.046
326.657
325.297
323.965
322.66
321.383
320.131
318.905
317.705
316.529
315.377
314.249
313.145
312.064
311.006
309.971
308.958
307.967
306.999
306.052
305.127
304.223
303.341
302.48
301.64
300.82
300.022
299.244
298.488
297.751
297.035
296.339
295.664
295.009
294.374
293.759
293.165
292.59
292.035
291.5
290.985
290.49
290.015
289.559
289.123
288.706
288.31
287.932
287.575
287.236
286.918
286.619
286.339
286.078
285.837
285.616
285.414
285.231
285.067
284.923
284.798
284.692
284.606
284.538
284.49
284.462
284.452
398.549
395.655
392.773
389.913
387.082
384.289
381.538
378.836
376.185
373.59
371.051
368.571
366.15
363.788
361.484
359.237
357.046
354.91
352.827
350.794
348.811
346.876
344.986
343.14
341.337
339.575
337.852
336.167
334.518
332.905
331.326
329.78
328.267
326.784
325.332
323.91
322.517
321.151
319.814
318.503
317.219
315.96
314.728
313.521
312.338
311.18
310.046
308.936
307.85
306.787
305.747
304.73
303.736
302.765
301.816
300.889
299.985
299.103
298.242
297.403
296.587
295.791
295.017
294.265
293.534
292.825
292.136
291.469
290.823
290.198
289.594
289.011
288.448
287.907
287.386
286.887
286.408
285.949
285.511
285.094
284.698
284.322
283.966
283.631
283.316
283.022
282.749
282.495
282.262
282.05
281.857
281.685
281.533
281.402
281.291
281.2
281.129
281.079
281.049
281.038
398.558
395.68
392.813
389.965
387.144
384.354
381.603
378.894
376.231
373.618
371.056
368.547
366.093
363.692
361.346
359.053
356.813
354.625
352.487
350.398
348.356
346.361
344.41
342.502
340.636
338.811
337.024
335.276
333.564
331.887
330.245
328.636
327.06
325.516
324.002
322.519
321.065
319.64
318.244
316.875
315.533
314.218
312.93
311.668
310.431
309.22
308.034
306.873
305.736
304.624
303.536
302.471
301.431
300.413
299.42
298.449
297.502
296.578
295.677
294.798
293.942
293.109
292.298
291.51
290.744
290
289.279
288.58
287.902
287.247
286.614
286.003
285.414
284.846
284.3
283.777
283.274
282.794
282.335
281.897
281.482
281.087
280.715
280.363
280.034
279.725
279.438
279.172
278.928
278.705
278.503
278.323
278.164
278.026
277.91
277.814
277.74
277.687
277.656
277.645
398.563
395.695
392.837
389.995
387.176
384.386
381.63
378.911
376.234
373.602
371.016
368.479
365.991
363.553
361.166
358.829
356.542
354.303
352.113
349.969
347.871
345.818
343.808
341.841
339.914
338.027
336.179
334.369
332.595
330.857
329.153
327.483
325.846
324.241
322.667
321.124
319.611
318.128
316.673
315.247
313.849
312.479
311.136
309.82
308.53
307.267
306.029
304.817
303.631
302.47
301.333
300.222
299.135
298.073
297.035
296.022
295.032
294.066
293.125
292.207
291.312
290.441
289.594
288.77
287.97
287.192
286.438
285.707
284.999
284.314
283.652
283.013
282.397
281.804
281.233
280.685
280.16
279.657
279.177
278.72
278.285
277.873
277.483
277.116
276.771
276.448
276.148
275.87
275.615
275.381
275.171
274.982
274.815
274.671
274.549
274.45
274.372
274.317
274.284
274.272
398.565
395.701
392.846
390.005
387.184
384.389
381.624
378.893
376.2
373.546
370.936
368.37
365.849
363.375
360.948
358.568
356.235
353.948
351.706
349.51
347.358
345.249
343.182
341.157
339.172
337.226
335.318
333.448
331.613
329.815
328.051
326.321
324.624
322.96
321.327
319.726
318.155
316.614
315.103
313.621
312.168
310.743
309.346
307.977
306.635
305.32
304.031
302.77
301.534
300.325
299.141
297.984
296.851
295.744
294.663
293.606
292.575
291.568
290.587
289.63
288.697
287.789
286.906
286.046
285.212
284.401
283.614
282.852
282.114
281.399
280.709
280.042
279.399
278.78
278.185
277.613
277.065
276.541
276.04
275.563
275.109
274.679
274.272
273.889
273.529
273.193
272.879
272.589
272.323
272.079
271.859
271.662
271.489
271.338
271.211
271.107
271.026
270.968
270.934
270.922
398.565
395.7
392.842
389.997
387.171
384.367
381.59
378.844
376.132
373.457
370.821
368.225
365.672
363.162
360.696
358.274
355.896
353.562
351.271
349.024
346.819
344.656
342.534
340.453
338.411
336.407
334.441
332.512
330.62
328.762
326.94
325.152
323.396
321.674
319.984
318.325
316.698
315.101
313.534
311.997
310.489
309.011
307.561
306.139
304.746
303.38
302.041
300.731
299.447
298.19
296.96
295.756
294.579
293.428
292.303
291.205
290.132
289.085
288.064
287.068
286.098
285.153
284.234
283.34
282.471
281.627
280.809
280.015
279.247
278.503
277.784
277.09
276.421
275.777
275.157
274.562
273.991
273.445
272.924
272.427
271.955
271.507
271.083
270.684
270.309
269.959
269.633
269.331
269.053
268.8
268.571
268.366
268.185
268.028
267.896
267.787
267.703
267.643
267.607
267.595
398.562
395.692
392.827
389.974
387.138
384.323
381.532
378.768
376.036
373.337
370.674
368.049
365.463
362.917
360.412
357.949
355.527
353.147
350.809
348.512
346.257
344.041
341.866
339.729
337.632
335.572
333.55
331.564
329.615
327.7
325.821
323.975
322.163
320.384
318.637
316.923
315.24
313.588
311.966
310.375
308.814
307.283
305.781
304.308
302.863
301.447
300.06
298.701
297.369
296.065
294.789
293.541
292.319
291.125
289.957
288.817
287.703
286.617
285.556
284.522
283.515
282.534
281.579
280.651
279.748
278.872
278.022
277.197
276.399
275.626
274.88
274.159
273.463
272.794
272.15
271.532
270.939
270.372
269.83
269.314
268.823
268.357
267.917
267.502
267.113
266.748
266.409
266.096
265.807
265.544
265.305
265.092
264.904
264.742
264.604
264.491
264.404
264.341
264.304
264.291
398.558
395.677
392.803
389.939
387.09
384.259
381.451
378.668
375.914
373.191
370.5
367.844
365.225
362.644
360.101
357.597
355.132
352.708
350.323
347.978
345.672
343.406
341.178
338.989
336.838
334.723
332.646
330.605
328.6
326.63
324.694
322.793
320.925
319.091
317.289
315.519
313.782
312.076
310.401
308.757
307.143
305.56
304.006
302.483
300.989
299.524
298.088
296.681
295.302
293.952
292.631
291.338
290.072
288.835
287.626
286.444
285.29
284.164
283.065
281.993
280.949
279.932
278.943
277.98
277.044
276.136
275.254
274.399
273.571
272.77
271.996
271.248
270.527
269.833
269.165
268.523
267.909
267.32
266.758
266.223
265.714
265.231
264.774
264.344
263.94
263.562
263.21
262.885
262.585
262.312
262.065
261.844
261.649
261.48
261.337
261.22
261.129
261.064
261.025
261.012
398.551
395.658
392.77
389.892
387.027
384.179
381.352
378.548
375.77
373.02
370.301
367.615
364.962
362.345
359.764
357.22
354.713
352.245
349.814
347.422
345.068
342.752
340.474
338.233
336.029
333.861
331.731
329.636
327.576
325.551
323.561
321.605
319.683
317.794
315.939
314.115
312.324
310.565
308.838
307.142
305.477
303.842
302.239
300.665
299.122
297.609
296.125
294.671
293.246
291.851
290.485
289.147
287.839
286.56
285.309
284.087
282.893
281.728
280.591
279.482
278.401
277.349
276.325
275.328
274.36
273.419
272.507
271.622
270.765
269.935
269.134
268.359
267.613
266.894
266.202
265.538
264.902
264.292
263.71
263.156
262.628
262.128
261.655
261.21
260.791
260.4
260.035
259.698
259.388
259.105
258.849
258.62
258.418
258.243
258.095
257.974
257.88
257.813
257.772
257.759
398.544
395.635
392.73
389.835
386.952
384.084
381.236
378.408
375.605
372.828
370.08
367.362
364.676
362.023
359.404
356.821
354.273
351.761
349.286
346.848
344.446
342.081
339.753
337.462
335.207
332.988
330.805
328.657
326.544
324.466
322.423
320.414
318.438
316.496
314.588
312.712
310.868
309.057
307.278
305.531
303.815
302.131
300.478
298.856
297.264
295.703
294.172
292.672
291.202
289.762
288.352
286.971
285.62
284.299
283.007
281.745
280.512
279.308
278.134
276.988
275.872
274.785
273.726
272.696
271.696
270.724
269.78
268.866
267.98
267.123
266.294
265.493
264.722
263.978
263.263
262.577
261.918
261.288
260.687
260.113
259.568
259.051
258.562
258.101
257.668
257.263
256.887
256.538
256.217
255.925
255.66
255.423
255.214
255.033
254.88
254.755
254.657
254.588
254.546
254.532
398.534
395.607
392.684
389.769
386.866
383.976
381.105
378.253
375.423
372.618
369.84
367.09
364.37
361.681
359.025
356.402
353.813
351.259
348.74
346.256
343.808
341.396
339.019
336.679
334.373
332.104
329.869
327.67
325.506
323.376
321.28
319.219
317.191
315.197
313.237
311.309
309.415
307.553
305.723
303.926
302.16
300.427
298.725
297.055
295.416
293.808
292.231
290.685
289.17
287.686
286.232
284.809
283.417
282.054
280.722
279.42
278.149
276.907
275.695
274.514
273.362
272.24
271.148
270.085
269.052
268.049
267.076
266.132
265.217
264.332
263.477
262.651
261.854
261.087
260.348
259.64
258.96
258.309
257.688
257.096
256.533
255.999
255.494
255.018
254.571
254.153
253.764
253.404
253.073
252.771
252.497
252.253
252.037
251.85
251.692
251.563
251.462
251.39
251.347
251.333
398.524
395.576
392.632
389.696
386.77
383.857
380.961
378.083
375.226
372.392
369.583
366.8
364.046
361.322
358.628
355.966
353.336
350.74
348.178
345.65
343.156
340.697
338.273
335.884
333.53
331.211
328.926
326.677
324.461
322.281
320.134
318.022
315.943
313.898
311.887
309.909
307.964
306.052
304.173
302.326
300.512
298.73
296.98
295.263
293.577
291.923
290.301
288.711
287.151
285.624
284.127
282.662
281.228
279.826
278.454
277.113
275.803
274.524
273.276
272.058
270.872
269.715
268.59
267.495
266.431
265.397
264.393
263.421
262.478
261.566
260.684
259.832
259.011
258.22
257.459
256.728
256.027
255.356
254.716
254.105
253.524
252.974
252.453
251.962
251.502
251.071
250.669
250.298
249.957
249.645
249.363
249.111
248.888
248.695
248.532
248.399
248.295
248.221
248.177
248.162
398.513
395.543
392.576
389.616
386.666
383.728
380.806
377.901
375.015
372.151
369.31
366.495
363.706
360.946
358.215
355.514
352.844
350.207
347.602
345.03
342.491
339.987
337.516
335.08
332.677
330.31
327.976
325.677
323.413
321.182
318.986
316.823
314.695
312.6
310.539
308.511
306.517
304.556
302.628
300.733
298.871
297.042
295.245
293.481
291.749
290.05
288.383
286.749
285.146
283.576
282.038
280.531
279.057
277.614
276.203
274.824
273.476
272.16
270.876
269.623
268.402
267.212
266.054
264.927
263.831
262.767
261.734
260.733
259.762
258.823
257.915
257.038
256.193
255.378
254.594
253.842
253.12
252.43
251.77
251.141
250.543
249.976
249.44
248.934
248.46
248.016
247.603
247.22
246.868
246.547
246.257
245.997
245.768
245.569
245.401
245.264
245.157
245.081
245.035
245.019
398.501
395.506
392.515
389.53
386.555
383.591
380.641
377.707
374.792
371.897
369.025
366.176
363.353
360.556
357.788
355.048
352.339
349.66
347.013
344.398
341.815
339.266
336.749
334.267
331.817
329.402
327.021
324.673
322.36
320.081
317.835
315.624
313.447
311.303
309.193
307.117
305.074
303.065
301.089
299.147
297.238
295.362
293.519
291.71
289.933
288.189
286.479
284.801
283.156
281.543
279.963
278.416
276.902
275.419
273.97
272.553
271.168
269.816
268.496
267.209
265.954
264.731
263.54
262.381
261.255
260.161
259.099
258.069
257.071
256.106
255.172
254.27
253.4
252.563
251.757
250.983
250.24
249.53
248.852
248.205
247.59
247.006
246.455
245.935
245.447
244.99
244.565
244.171
243.81
243.479
243.18
242.913
242.677
242.473
242.3
242.159
242.049
241.97
241.923
241.907
398.488
395.468
392.45
389.439
386.437
383.445
380.467
377.504
374.559
371.633
368.727
365.845
362.987
360.154
357.349
354.571
351.822
349.102
346.414
343.756
341.13
338.536
335.975
333.446
330.951
328.489
326.061
323.666
321.305
318.978
316.685
314.425
312.2
310.008
307.851
305.727
303.637
301.58
299.558
297.569
295.614
293.692
291.804
289.95
288.129
286.341
284.587
282.867
281.18
279.526
277.905
276.318
274.764
273.243
271.756
270.302
268.88
267.492
266.138
264.816
263.527
262.271
261.049
259.859
258.703
257.579
256.488
255.431
254.406
253.414
252.455
251.528
250.635
249.774
248.946
248.151
247.389
246.659
245.962
245.297
244.665
244.066
243.499
242.965
242.463
241.994
241.557
241.153
240.781
240.441
240.134
239.859
239.617
239.407
239.229
239.084
238.971
238.89
238.842
238.826
398.475
395.428
392.383
389.344
386.314
383.294
380.286
377.293
374.317
371.358
368.42
365.504
362.61
359.742
356.899
354.083
351.294
348.535
345.805
343.105
340.436
337.799
335.194
332.621
330.08
327.572
325.098
322.657
320.249
317.875
315.535
313.228
310.956
308.717
306.512
304.342
302.205
300.102
298.034
295.999
293.999
292.032
290.1
288.202
286.337
284.507
282.71
280.948
279.219
277.525
275.864
274.238
272.645
271.086
269.561
268.07
266.613
265.19
263.801
262.445
261.123
259.835
258.581
257.361
256.175
255.022
253.903
252.818
251.766
250.748
249.764
248.814
247.897
247.014
246.164
245.348
244.565
243.816
243.101
242.418
241.77
241.155
240.573
240.024
239.509
239.028
238.579
238.164
237.783
237.434
237.119
236.837
236.588
236.372
236.19
236.041
235.925
235.842
235.792
235.775
398.461
395.385
392.313
389.245
386.186
383.136
380.098
377.075
374.066
371.076
368.104
365.153
362.225
359.32
356.44
353.586
350.758
347.959
345.188
342.447
339.736
337.056
334.407
331.79
329.205
326.652
324.133
321.646
319.192
316.772
314.386
312.033
309.715
307.43
305.179
302.963
300.78
298.632
296.519
294.439
292.394
290.384
288.408
286.466
284.559
282.686
280.848
279.044
277.275
275.541
273.841
272.175
270.545
268.948
267.387
265.86
264.367
262.909
261.486
260.097
258.743
257.423
256.138
254.888
253.672
252.49
251.343
250.231
249.153
248.11
247.101
246.127
245.187
244.281
243.41
242.573
241.771
241.003
240.269
239.57
238.905
238.274
237.677
237.115
236.587
236.093
235.633
235.207
234.816
234.459
234.135
233.846
233.591
233.37
233.183
233.03
232.911
232.826
232.775
232.757
398.446
395.342
392.24
389.143
386.054
382.974
379.905
376.85
373.81
370.786
367.781
364.795
361.832
358.89
355.973
353.081
350.215
347.376
344.565
341.783
339.03
336.308
333.616
330.956
328.327
325.73
323.166
320.635
318.136
315.671
313.239
310.842
308.478
306.148
303.852
301.59
299.363
297.171
295.013
292.889
290.801
288.747
286.728
284.744
282.795
280.88
279.001
277.157
275.348
273.574
271.836
270.132
268.464
266.831
265.233
263.67
262.143
260.651
259.194
257.772
256.386
255.035
253.72
252.439
251.194
249.985
248.81
247.671
246.568
245.499
244.466
243.468
242.505
241.578
240.686
239.829
239.007
238.22
237.468
236.752
236.071
235.424
234.813
234.237
233.696
233.19
232.719
232.283
231.882
231.515
231.184
230.888
230.626
230.4
230.208
230.051
229.93
229.842
229.79
229.772
398.431
395.297
392.165
389.038
385.918
382.807
379.707
376.62
373.547
370.49
367.451
364.431
361.432
358.454
355.5
352.57
349.666
346.787
343.937
341.114
338.32
335.556
332.822
330.119
327.448
324.807
322.199
319.624
317.082
314.572
312.096
309.654
307.245
304.871
302.531
300.225
297.954
295.718
293.517
291.35
289.219
287.122
285.061
283.035
281.045
279.09
277.171
275.287
273.439
271.626
269.849
268.108
266.403
264.734
263.1
261.503
259.941
258.415
256.925
255.472
254.054
252.672
251.327
250.017
248.744
247.506
246.305
245.139
244.01
242.917
241.86
240.839
239.853
238.904
237.991
237.114
236.273
235.468
234.699
233.966
233.268
232.607
231.981
231.391
230.838
230.32
229.837
229.391
228.98
228.606
228.266
227.963
227.695
227.464
227.267
227.107
226.982
226.893
226.839
226.821
398.416
395.251
392.089
388.931
385.78
382.637
379.505
376.386
373.28
370.189
367.116
364.061
361.026
358.012
355.021
352.054