/*--------------------------------*- C++ -*----------------------------------*\
  =========                 |
  \\      /  F ield         | OpenFOAM: The Open Source CFD Toolbox
   \\    /   O peration     | Website:  https://openfoam.org
    \\  /    A nd           | Version:  10
     \\/     M anipulation  |
\*---------------------------------------------------------------------------*/
FoamFile
{
    format      ascii;
    class       volScalarField;
    location    "1";
    object      T;
}
// * * * * * * * * * * * * * * * * * * * * * * * * * * * * * * * * * * * * * //

dimensions      [0 0 -1 0 0 0 0];

internalField   nonuniform List<scalar> 
100
(
12.8328
38.3792
63.585
88.2265
112.085
134.949
156.614
176.89
195.596
212.566
227.649
240.711
251.637
260.329
266.711
270.725
272.336
271.53
268.314
262.716
254.786
244.595
232.233
217.81
201.453
183.308
163.536
142.313
119.826
96.2757
71.8709
46.8281
21.3697
-4.27832
-29.8884
-55.2332
-80.0878
-104.231
-127.45
-149.537
-170.297
-189.546
-207.112
-222.839
-236.589
-248.239
-257.685
-264.844
-269.652
-272.067
-272.067
-269.652
-264.844
-257.685
-248.239
-236.589
-222.839
-207.111
-189.546
-170.297
-149.537
-127.45
-104.231
-80.0876
-55.233
-29.8882
-4.27805
21.37
46.8284
71.8712
96.276
119.826
142.313
163.536
183.308
201.453
217.81
232.233
244.595
254.787
262.716
268.314
271.53
272.336
270.725
266.71
260.329
251.637
240.711
227.648
212.566
195.596
176.89
156.614
134.948
112.085
88.2263
63.5849
38.3792
12.8328
)
;

boundaryField
{
    xmin
    {
        type            fixedValue;
        value           uniform 0;
    }
    xmax
    {
        type            fixedValue;
        value           uniform 0;
    }
    frontAndBack
    {
        type            empty;
    }
}


// ************************************************************************* //
