/*--------------------------------*- C++ -*----------------------------------*\
  =========                 |
  \\      /  F ield         | OpenFOAM: The Open Source CFD Toolbox
   \\    /   O peration     | Website:  https://openfoam.org
    \\  /    A nd           | Version:  10
     \\/     M anipulation  |
\*---------------------------------------------------------------------------*/
FoamFile
{
    format      ascii;
    class       volScalarField;
    location    "1";
    object      T_0;
}
// * * * * * * * * * * * * * * * * * * * * * * * * * * * * * * * * * * * * * //

dimensions      [0 0 -1 0 0 0 0];

internalField   nonuniform List<scalar> 
100
(
12.8452
38.4162
63.6463
88.3115
112.193
135.079
156.765
177.061
195.784
212.77
227.868
240.943
251.879
260.58
266.967
270.986
272.598
271.792
268.572
262.969
255.032
244.831
232.457
218.02
201.647
183.485
163.694
142.45
119.941
96.3684
71.9401
46.8732
21.3903
-4.28245
-29.9172
-55.2864
-80.1649
-104.332
-127.573
-149.681
-170.461
-189.728
-207.311
-223.054
-236.817
-248.478
-257.933
-265.099
-269.912
-272.329
-272.329
-269.912
-265.099
-257.933
-248.478
-236.817
-223.054
-207.311
-189.728
-170.461
-149.681
-127.573
-104.332
-80.1647
-55.2862
-29.917
-4.28217
21.3906
46.8736
71.9404
96.3687
119.942
142.45
163.694
183.485
201.647
218.02
232.457
244.831
255.032
262.969
268.572
271.792
272.598
270.986
266.967
260.58
251.879
240.943
227.868
212.77
195.784
177.06
156.765
135.078
112.193
88.3113
63.6462
38.4161
12.8451
)
;

boundaryField
{
    xmin
    {
        type            fixedValue;
        value           uniform 0;
    }
    xmax
    {
        type            fixedValue;
        value           uniform 0;
    }
    frontAndBack
    {
        type            empty;
    }
}


// ************************************************************************* //
