/*--------------------------------*- C++ -*----------------------------------*\
  =========                 |
  \\      /  F ield         | OpenFOAM: The Open Source CFD Toolbox
   \\    /   O peration     | Website:  https://openfoam.org
    \\  /    A nd           | Version:  10
     \\/     M anipulation  |
\*---------------------------------------------------------------------------*/
FoamFile
{
    format      ascii;
    class       volScalarField;
    location    "8.6";
    object      T_0;
}
// * * * * * * * * * * * * * * * * * * * * * * * * * * * * * * * * * * * * * //

dimensions      [0 0 -1 0 0 0 0];

internalField   nonuniform List<scalar> 
100
(
-0.0165196
-0.0489731
-0.0796918
-0.107587
-0.131671
-0.151091
-0.165158
-0.173375
-0.175449
-0.171308
-0.161099
-0.145182
-0.124122
-0.0986656
-0.0697135
-0.0382917
-0.00551348
0.0274601
0.0594608
0.0893552
0.116084
0.138701
0.156404
0.168566
0.174757
0.174757
0.168566
0.156403
0.1387
0.116084
0.0893547
0.0594603
0.0274595
-0.00551406
-0.0382923
-0.069714
-0.0986661
-0.124123
-0.145183
-0.161099
-0.171309
-0.175449
-0.173375
-0.165158
-0.151091
-0.131671
-0.107587
-0.0796915
-0.0489728
-0.0165192
0.0165196
0.0489732
0.0796919
0.107587
0.131672
0.151091
0.165159
0.173375
0.175449
0.171309
0.161099
0.145182
0.124123
0.0986659
0.0697137
0.038292
0.00551374
-0.0274598
-0.0594606
-0.089355
-0.116084
-0.1387
-0.156404
-0.168566
-0.174757
-0.174757
-0.168566
-0.156403
-0.1387
-0.116084
-0.0893549
-0.0594605
-0.0274597
0.00551384
0.0382921
0.0697138
0.0986659
0.124123
0.145182
0.161099
0.171308
0.175449
0.173375
0.165158
0.151091
0.131671
0.107587
0.0796914
0.0489727
0.0165192
)
;

boundaryField
{
    inlet
    {
        type            cyclic;
    }
    outlet
    {
        type            cyclic;
    }
    bottom
    {
        type            slip;
    }
    top
    {
        type            slip;
    }
    frontAndBack
    {
        type            empty;
    }
}


// ************************************************************************* //
