/*--------------------------------*- C++ -*----------------------------------*\
  =========                 |
  \\      /  F ield         | OpenFOAM: The Open Source CFD Toolbox
   \\    /   O peration     | Website:  https://openfoam.org
    \\  /    A nd           | Version:  10
     \\/     M anipulation  |
\*---------------------------------------------------------------------------*/
FoamFile
{
    format      ascii;
    class       volScalarField;
    location    "2";
    object      ddt0(T);
}
// * * * * * * * * * * * * * * * * * * * * * * * * * * * * * * * * * * * * * //

dimensions      [0 0 -1 1 0 0 0];

internalField   nonuniform List<scalar> 
10000
(
8093.43
4282.61
4170.14
4229.74
4253.92
4261.25
4263.46
4264.24
4264.6
4264.82
4265
4265.15
4265.28
4265.39
4265.49
4265.57
4265.63
4265.67
4265.71
4265.73
4265.73
4265.73
4265.72
4265.7
4265.67
4265.64
4265.61
4265.57
4265.53
4265.49
4265.45
4265.41
4265.37
4265.33
4265.3
4265.27
4265.23
4265.21
4265.18
4265.16
4265.13
4265.11
4265.1
4265.08
4265.07
4265.06
4265.05
4265.04
4265.03
4265.02
4265.02
4265.01
4265.01
4265.01
4265
4265
4265
4265
4265
4264.99
4264.99
4264.99
4264.99
4264.99
4264.99
4264.99
4264.99
4264.99
4264.99
4264.99
4264.99
4264.99
4264.99
4264.99
4264.99
4264.99
4264.99
4264.99
4264.99
4264.99
4264.99
4264.99
4264.99
4264.99
4264.99
4264.99
4264.99
4264.99
4264.98
4264.98
4264.98
4264.97
4264.96
4264.93
4264.81
4264.31
4262.36
4257.98
4293.25
5104.56
4920.79
-643.948
-731.594
-572.264
-507.391
-486.986
-480.665
-478.429
-477.383
-476.711
-476.183
-475.735
-475.347
-475.015
-474.734
-474.503
-474.321
-474.183
-474.088
-474.031
-474.009
-474.018
-474.054
-474.112
-474.189
-474.281
-474.385
-474.497
-474.615
-474.735
-474.856
-474.975
-475.091
-475.203
-475.309
-475.409
-475.502
-475.589
-475.668
-475.74
-475.805
-475.864
-475.916
-475.962
-476.002
-476.038
-476.069
-476.095
-476.118
-476.138
-476.154
-476.168
-476.18
-476.19
-476.198
-476.204
-476.21
-476.214
-476.218
-476.221
-476.223
-476.224
-476.226
-476.226
-476.227
-476.227
-476.227
-476.227
-476.227
-476.227
-476.226
-476.226
-476.226
-476.225
-476.225
-476.225
-476.225
-476.225
-476.225
-476.226
-476.226
-476.228
-476.23
-476.232
-476.235
-476.239
-476.243
-476.248
-476.255
-476.262
-476.271
-476.284
-476.31
-476.382
-476.641
-477.638
-481.332
-492.735
-507.292
-333.911
4801.61
-754.454
-720.955
-496.169
-406.327
-377.472
-368.273
-364.902
-363.261
-362.176
-361.311
-360.572
-359.932
-359.381
-358.917
-358.535
-358.233
-358.006
-357.848
-357.755
-357.719
-357.734
-357.793
-357.891
-358.019
-358.173
-358.345
-358.532
-358.727
-358.927
-359.128
-359.326
-359.519
-359.705
-359.882
-360.048
-360.203
-360.347
-360.479
-360.599
-360.707
-360.804
-360.891
-360.968
-361.035
-361.094
-361.145
-361.189
-361.227
-361.26
-361.287
-361.311
-361.33
-361.346
-361.36
-361.371
-361.38
-361.387
-361.393
-361.398
-361.401
-361.404
-361.406
-361.408
-361.409
-361.409
-361.409
-361.409
-361.409
-361.408
-361.408
-361.407
-361.406
-361.406
-361.405
-361.405
-361.404
-361.405
-361.405
-361.406
-361.408
-361.41
-361.413
-361.416
-361.421
-361.427
-361.434
-361.443
-361.453
-361.465
-361.479
-361.499
-361.532
-361.611
-361.853
-362.691
-365.592
-374.708
-395.656
-390.278
4845.46
-625.898
-530.696
-276.042
-174.244
-140.927
-129.987
-125.799
-123.658
-122.191
-121.005
-119.986
-119.101
-118.341
-117.7
-117.174
-116.758
-116.446
-116.231
-116.104
-116.058
-116.082
-116.167
-116.305
-116.486
-116.701
-116.944
-117.205
-117.478
-117.758
-118.038
-118.315
-118.585
-118.845
-119.091
-119.324
-119.541
-119.741
-119.925
-120.093
-120.244
-120.379
-120.5
-120.607
-120.702
-120.784
-120.855
-120.917
-120.97
-121.016
-121.054
-121.087
-121.114
-121.136
-121.155
-121.171
-121.183
-121.194
-121.202
-121.208
-121.213
-121.217
-121.22
-121.222
-121.223
-121.224
-121.224
-121.224
-121.223
-121.223
-121.222
-121.221
-121.22
-121.219
-121.218
-121.217
-121.217
-121.217
-121.218
-121.219
-121.221
-121.224
-121.228
-121.233
-121.239
-121.248
-121.257
-121.269
-121.283
-121.299
-121.319
-121.343
-121.38
-121.45
-121.625
-122.138
-123.727
-128.422
-139.656
-149.946
4864.66
-571.985
-453.931
-187.752
-80.875
-45.3785
-33.4104
-28.628
-26.0588
-24.2409
-22.7493
-21.4617
-20.3428
-19.3813
-18.5715
-17.9081
-17.3845
-16.993
-16.7244
-16.5683
-16.5137
-16.549
-16.6623
-16.842
-17.0764
-17.3548
-17.6667
-18.0026
-18.354
-18.7131
-19.0732
-19.4287
-19.7747
-20.1074
-20.4238
-20.7217
-20.9996
-21.2565
-21.4921
-21.7066
-21.9003
-22.0741
-22.229
-22.3661
-22.4866
-22.592
-22.6836
-22.7627
-22.8307
-22.8887
-22.9379
-22.9794
-23.0143
-23.0433
-23.0674
-23.0872
-23.1033
-23.1164
-23.1269
-23.1352
-23.1416
-23.1465
-23.1501
-23.1526
-23.1543
-23.1552
-23.1555
-23.1553
-23.1547
-23.1537
-23.1526
-23.1514
-23.1501
-23.1488
-23.1477
-23.1469
-23.1464
-23.1464
-23.147
-23.1484
-23.1508
-23.1542
-23.159
-23.1653
-23.1733
-23.1833
-23.1954
-23.2099
-23.2271
-23.2473
-23.2712
-23.3005
-23.3399
-23.403
-23.5275
-23.8197
-24.576
-26.5495
-30.9657
-36.4725
4870.67
-554.776
-429.095
-158.703
-49.6956
-13.092
-0.466318
4.7818
7.7282
9.87278
11.6533
13.196
14.5376
15.6899
16.6592
17.452
18.076
18.5406
18.8572
19.038
19.0966
19.0469
18.9032
18.6797
18.3903
18.0482
17.6659
17.2549
16.8255
16.3871
15.9477
15.5143
15.0926
14.6873
14.3019
13.9392
13.601
13.2883
13.0016
12.7407
12.505
12.2936
12.1053
11.9386
11.792
11.6638
11.5524
11.4563
11.3737
11.3032
11.2434
11.1929
11.1505
11.1152
11.086
11.0619
11.0423
11.0264
11.0136
11.0036
10.9957
10.9898
10.9854
10.9823
10.9803
10.9792
10.9789
10.9791
10.9799
10.981
10.9824
10.9839
10.9855
10.9871
10.9885
10.9897
10.9904
10.9905
10.99
10.9885
10.9859
10.9819
10.9765
10.9692
10.9599
10.9484
10.9343
10.9174
10.8973
10.8738
10.8461
10.8131
10.7714
10.7122
10.6138
10.4275
10.047
9.2516
7.73992
5.64587
4872.55
-549.335
-421.051
-149.019
-39.0111
-1.75442
11.3515
16.9923
20.2802
22.7289
24.781
26.564
28.1148
29.4457
30.5637
31.476
32.1918
32.7221
33.08
33.2801
33.338
33.2701
33.093
32.8234
32.4773
32.0702
31.6167
31.1302
30.6227
30.1051
29.5869
29.0761
28.5794
28.1021
27.6486
27.2219
26.8241
26.4565
26.1194
25.8127
25.5358
25.2874
25.0661
24.8703
24.6981
24.5476
24.4168
24.3039
24.2069
24.1242
24.0539
23.9946
23.9449
23.9035
23.8691
23.8409
23.8178
23.7991
23.7842
23.7724
23.7632
23.7562
23.751
23.7474
23.745
23.7438
23.7433
23.7436
23.7445
23.7458
23.7475
23.7494
23.7513
23.7533
23.755
23.7565
23.7575
23.7579
23.7574
23.756
23.7533
23.7491
23.7431
23.7352
23.725
23.7121
23.6964
23.6775
23.6551
23.6288
23.5981
23.5622
23.5189
23.4626
23.3801
23.244
23.0095
22.6242
22.0941
21.4486
4873.23
-547.335
-417.998
-145.182
-34.588
3.13369
16.6331
22.6216
26.2226
28.9539
31.2589
33.2655
35.0105
36.5064
37.7607
38.7815
39.5793
40.1668
40.5588
40.7719
40.8239
40.7336
40.5197
40.2012
39.7965
39.3231
38.7976
38.2351
37.6495
37.053
36.4564
35.8688
35.2979
34.7496
34.2288
33.739
33.2826
32.8609
32.4743
32.1227
31.8052
31.5206
31.267
31.0427
30.8454
30.673
30.5232
30.3939
30.2829
30.1881
30.1077
30.0398
29.9829
29.9354
29.8961
29.8638
29.8374
29.816
29.7989
29.7853
29.7748
29.7668
29.7608
29.7567
29.754
29.7525
29.752
29.7524
29.7534
29.7549
29.7568
29.759
29.7614
29.7637
29.7658
29.7677
29.769
29.7697
29.7695
29.7682
29.7656
29.7613
29.7551
29.7468
29.7359
29.7222
29.7053
29.6849
29.6606
29.6322
29.5991
29.5607
29.5159
29.4614
29.3887
29.2793
29.1012
28.8291
28.5512
28.5193
4873.57
-546.345
-416.432
-143.121
-32.0988
6.00324
19.8471
26.1503
30.0387
33.0304
35.5687
37.7809
39.7036
41.3495
42.7265
43.8438
44.713
45.3484
45.7664
45.9858
46.0263
45.9089
45.6546
45.2845
44.8191
44.278
43.6796
43.0408
42.3771
41.702
41.0277
40.3641
39.7197
39.1014
38.5145
37.9627
37.4486
36.9738
36.5388
36.1432
35.7861
35.4659
35.1808
34.9286
34.7068
34.5131
34.3448
34.1994
34.0747
33.9682
33.8779
33.8016
33.7377
33.6844
33.6402
33.6039
33.5742
33.5502
33.531
33.5157
33.5039
33.4949
33.4882
33.4835
33.4805
33.4788
33.4782
33.4786
33.4798
33.4816
33.4838
33.4863
33.489
33.4917
33.4942
33.4965
33.4983
33.4994
33.4995
33.4985
33.4961
33.492
33.4858
33.4773
33.4662
33.4519
33.4343
33.413
33.3875
33.3575
33.3226
33.2824
33.2361
33.1819
33.1146
33.02
32.8665
32.6121
32.3388
32.644
4873.8
-545.677
-415.349
-141.653
-30.2724
8.16231
22.3154
28.9046
33.0554
36.2849
39.0355
41.434
43.5168
45.2967
46.7821
47.983
48.9123
49.5856
50.0213
50.2397
50.2629
50.1135
49.815
49.3904
48.8622
48.252
47.5799
46.8645
46.1228
45.3697
44.6182
43.8795
43.1629
42.4757
41.8237
41.2111
40.6407
40.114
39.6316
39.193
38.7972
38.4424
38.1266
37.8472
37.6016
37.3871
37.2008
37.0399
36.9018
36.784
36.684
36.5996
36.5288
36.4698
36.421
36.3808
36.3479
36.3214
36.3001
36.2832
36.2701
36.2601
36.2527
36.2475
36.2441
36.2422
36.2416
36.2421
36.2433
36.2453
36.2478
36.2506
36.2537
36.2568
36.2599
36.2626
36.2649
36.2664
36.2671
36.2665
36.2645
36.2607
36.2548
36.2465
36.2353
36.221
36.2032
36.1814
36.1553
36.1244
36.0885
36.047
35.9996
35.9452
35.8805
35.7943
35.6538
35.393
35.0502
35.5999
4873.98
-545.137
-414.463
-140.435
-28.74
9.99196
24.4236
31.2714
35.6592
39.103
42.0442
44.609
46.8335
48.7305
50.3093
51.5805
52.558
53.2591
53.7036
53.9138
53.9133
53.7272
53.3806
52.8986
52.3056
51.6249
50.8784
50.0862
49.2667
48.4361
47.6084
46.7957
46.0079
45.2531
44.5375
43.8654
43.2399
42.6626
42.134
41.6536
41.2201
40.8318
40.4861
40.1803
39.9117
39.6769
39.4731
39.2972
39.1462
39.0174
38.908
38.8158
38.7385
38.674
38.6205
38.5766
38.5407
38.5116
38.4883
38.4699
38.4555
38.4446
38.4365
38.4308
38.427
38.425
38.4243
38.4248
38.4262
38.4284
38.4311
38.4343
38.4378
38.4413
38.4448
38.4481
38.4509
38.453
38.4542
38.4542
38.4528
38.4495
38.4441
38.4363
38.4255
38.4116
38.3939
38.3723
38.3461
38.3151
38.2789
38.237
38.1891
38.1346
38.0713
37.9903
37.8584
37.5897
37.1652
37.9135
4874.14
-544.669
-413.692
-139.371
-27.396
11.6017
26.2826
33.3616
37.9606
41.5947
44.7041
47.4144
49.7617
51.7589
53.4155
54.7432
55.7571
56.4755
56.92
57.1144
57.0843
56.8565
56.458
55.9157
55.2559
54.5035
53.682
52.813
51.9162
51.0087
50.1058
49.2203
48.3628
47.5418
46.7639
46.0338
45.3547
44.7282
44.1547
43.6337
43.1638
42.7429
42.3683
42.037
41.746
41.4918
41.2711
41.0807
40.9172
40.7777
40.6594
40.5596
40.4759
40.4061
40.3483
40.3007
40.2619
40.2304
40.2052
40.1852
40.1696
40.1578
40.149
40.1427
40.1387
40.1364
40.1357
40.1362
40.1377
40.1401
40.1431
40.1466
40.1505
40.1545
40.1585
40.1623
40.1657
40.1685
40.1703
40.1711
40.1703
40.1678
40.1632
40.156
40.146
40.1328
40.1158
40.0948
40.0692
40.0388
40.0029
39.9614
39.9139
39.8599
39.798
39.7209
39.596
39.3233
38.8282
39.7367
4874.27
-544.258
-413.013
-138.433
-26.21
13.0227
27.924
35.2065
39.991
43.7909
47.046
49.881
52.332
54.4119
56.131
57.5015
58.5396
59.265
59.7006
59.8718
59.8061
59.5318
59.0777
58.4725
57.7441
56.919
56.0221
55.0765
54.1028
53.1195
52.1426
51.1856
50.2598
49.3743
48.5357
47.7492
47.018
46.3437
45.7268
45.1665
44.6614
44.209
43.8065
43.4507
43.1381
42.8651
42.6282
42.4238
42.2483
42.0986
41.9717
41.8645
41.7747
41.6998
41.6378
41.5868
41.5451
41.5113
41.4842
41.4628
41.4461
41.4333
41.4238
41.4171
41.4127
41.4103
41.4094
41.41
41.4116
41.4141
41.4174
41.4213
41.4256
41.43
41.4346
41.4389
41.443
41.4464
41.449
41.4506
41.4507
41.4491
41.4454
41.4393
41.4303
41.4181
41.4023
41.3824
41.358
41.3287
41.294
41.2537
41.2073
41.1547
41.0947
41.0211
40.9028
40.6309
40.0842
41.1149
4874.39
-543.898
-412.418
-137.612
-25.1728
14.265
29.3578
36.8166
41.7606
45.7023
49.0804
52.0194
54.5551
56.7007
58.4668
59.8666
60.9171
61.6392
62.0574
62.1984
62.0912
61.7658
61.2528
60.5822
59.7836
58.8849
57.9125
56.8905
55.8408
54.7827
53.7331
52.7062
51.7138
50.7654
49.8679
49.0267
48.245
47.5246
46.8657
46.2676
45.7285
45.2458
44.8165
44.4371
44.1038
43.8129
43.5603
43.3425
43.1555
42.9961
42.8608
42.7467
42.651
42.5713
42.5052
42.4509
42.4064
42.3705
42.3416
42.3187
42.3009
42.2872
42.2771
42.2699
42.2652
42.2626
42.2616
42.2622
42.2639
42.2666
42.2702
42.2743
42.279
42.2839
42.289
42.2939
42.2986
42.3028
42.3063
42.3087
42.3098
42.3092
42.3067
42.3018
42.2942
42.2834
42.2691
42.2508
42.2281
42.2005
42.1677
42.1293
42.085
42.0345
41.9771
41.9074
41.7957
41.5287
40.9513
42.0669
4874.5
-543.588
-411.906
-136.905
-24.2794
15.334
30.59
38.1982
43.2763
47.3359
50.8149
53.8375
56.4393
58.6339
60.4321
61.848
62.8995
63.6086
64.0011
64.105
63.951
63.5704
62.9952
62.2571
61.387
60.4142
59.3663
58.2685
57.1437
56.0122
54.8914
53.7963
52.7391
51.7296
50.7751
49.881
49.0506
48.2857
47.5865
46.952
46.3802
45.8684
45.4134
45.0114
44.6583
44.3501
44.0827
43.852
43.6541
43.4853
43.3422
43.2214
43.1202
43.0358
42.9658
42.9083
42.8613
42.8232
42.7926
42.7684
42.7495
42.735
42.7242
42.7166
42.7115
42.7087
42.7076
42.7082
42.71
42.7129
42.7166
42.7211
42.7261
42.7315
42.7371
42.7426
42.748
42.753
42.7573
42.7607
42.7628
42.7635
42.7623
42.7588
42.7528
42.7437
42.7312
42.7149
42.6943
42.6691
42.6387
42.6029
42.5614
42.5139
42.4598
42.3945
42.2898
42.0315
41.4426
42.6084
4874.59
-543.326
-411.473
-136.308
-23.5254
16.2349
31.6267
39.3581
44.5457
48.7001
52.2587
55.3453
57.9954
60.2228
62.0389
63.4583
64.4999
65.1868
65.5458
65.6064
65.4005
64.9608
64.3208
63.5134
62.5708
61.5237
60.4005
59.2278
58.0291
56.8256
55.6354
54.4739
53.3539
52.2853
51.2757
50.3306
49.4535
48.6458
47.9078
47.2384
46.6354
46.0959
45.6163
45.1927
44.8207
44.4961
44.2145
43.9716
43.7633
43.5856
43.4349
43.3078
43.2013
43.1125
43.0389
42.9783
42.9288
42.8887
42.8565
42.831
42.811
42.7957
42.7843
42.7762
42.7709
42.7678
42.7667
42.7672
42.769
42.772
42.776
42.7808
42.7861
42.7919
42.798
42.8042
42.8103
42.816
42.8212
42.8256
42.8289
42.8309
42.8311
42.8292
42.8249
42.8178
42.8075
42.7935
42.7755
42.753
42.7256
42.693
42.6549
42.6111
42.5611
42.5008
42.4037
42.1572
41.5733
42.7585
4874.66
-543.11
-411.115
-135.815
-22.9052
16.9746
32.4759
40.3054
45.579
49.8062
53.424
56.5559
59.2373
61.4823
63.3028
64.714
65.7356
66.3917
66.7101
66.7217
66.4594
65.9573
65.2501
64.3721
63.3564
62.235
61.0373
59.7906
58.5195
57.2457
55.9879
54.7621
53.5813
52.4557
51.3931
50.3991
49.477
48.6284
47.8534
47.1507
46.5179
45.9519
45.4489
45.0047
44.6148
44.2747
43.9796
43.7251
43.5069
43.3207
43.1629
43.0298
42.9183
42.8253
42.7482
42.6848
42.633
42.5909
42.5572
42.5304
42.5095
42.4934
42.4814
42.4728
42.4672
42.4639
42.4626
42.4631
42.465
42.4681
42.4723
42.4773
42.4829
42.4892
42.4957
42.5025
42.5092
42.5158
42.5219
42.5273
42.5318
42.5351
42.5368
42.5367
42.5343
42.5293
42.5213
42.5099
42.4948
42.4754
42.4515
42.4226
42.3885
42.349
42.3037
42.2489
42.16
41.9282
41.3629
42.5407
4874.72
-542.937
-410.83
-135.423
-22.4118
17.5614
33.1473
41.0515
46.3887
50.668
54.3258
57.4855
60.1825
62.431
64.2434
65.6355
66.6278
67.2452
67.5167
67.4742
67.1517
66.5844
65.8083
64.8586
63.7697
62.5743
61.303
59.9837
58.6418
57.2996
55.9764
54.6884
53.4489
52.2686
51.1552
50.1142
49.1492
48.2616
47.4513
46.7169
46.0558
45.4646
44.9395
44.4758
44.0689
43.714
43.4062
43.1407
42.9131
42.7191
42.5545
42.4158
42.2995
42.2025
42.1222
42.056
42.002
41.9582
41.923
41.895
41.8731
41.8563
41.8437
41.8347
41.8287
41.8252
41.8238
41.8242
41.8261
41.8293
41.8336
41.8389
41.8448
41.8514
41.8584
41.8657
41.8731
41.8804
41.8874
41.8939
41.8996
41.9043
41.9076
41.9092
41.9088
41.9061
41.9006
41.892
41.88
41.864
41.8438
41.8191
41.7894
41.7547
41.7147
41.666
41.5857
41.3708
40.8347
41.9833
4874.76
-542.805
-410.612
-135.124
-22.0369
18.0054
33.6527
41.6094
46.9897
51.3019
54.982
58.1533
60.8513
63.0904
64.8833
66.2465
67.2011
67.7731
67.9921
67.8911
67.5051
66.8706
66.0242
65.0023
63.8404
62.5718
61.228
59.8378
58.427
57.0185
55.632
54.2842
52.9884
51.7556
50.5936
49.5079
48.502
47.5773
46.7335
45.9689
45.281
44.6661
44.12
43.6379
43.215
42.8461
42.5263
42.2505
42.0141
41.8126
41.6417
41.4976
41.3769
41.2762
41.1928
41.1241
41.068
41.0224
40.9858
40.9567
40.934
40.9164
40.9033
40.8939
40.8875
40.8838
40.8822
40.8826
40.8845
40.8877
40.8921
40.8975
40.9038
40.9107
40.9181
40.9259
40.9339
40.9419
40.9498
40.9573
40.9642
40.9702
40.9751
40.9785
40.9802
40.9798
40.9769
40.9713
40.9624
40.9501
40.9339
40.9135
40.8886
40.8591
40.8247
40.7824
40.7113
40.5151
40.016
41.1178
4874.79
-542.71
-410.456
-134.911
-21.7714
18.3177
34.005
41.9942
47.3986
51.7261
55.4125
58.5808
61.2666
63.4846
65.2479
66.5735
67.4832
68.0037
68.1655
68.0025
67.5506
66.847
65.9297
64.8357
63.6012
62.2606
60.8459
59.3866
57.909
56.4365
54.9891
53.5838
52.2342
50.9512
49.7429
48.6148
47.5701
46.6101
45.7346
44.9417
44.2284
43.5911
43.0252
42.5258
42.0877
41.7058
41.3747
41.0893
40.8446
40.636
40.4592
40.3102
40.1852
40.0811
39.9948
39.9237
39.8656
39.8185
39.7806
39.7504
39.7268
39.7086
39.6949
39.685
39.6784
39.6744
39.6727
39.6729
39.6748
39.678
39.6825
39.6881
39.6945
39.7017
39.7094
39.7177
39.7263
39.735
39.7437
39.7521
39.7602
39.7675
39.7739
39.7791
39.7829
39.7848
39.7846
39.7819
39.7764
39.7677
39.7556
39.7397
39.7198
39.6957
39.6672
39.6316
39.5699
39.3935
38.9368
39.9788
4874.81
-542.65
-410.356
-134.776
-21.6052
18.5105
34.2185
42.2219
47.6333
51.9604
55.6386
58.7909
61.4529
63.6396
65.3644
66.6449
67.5036
67.9676
68.0683
67.8405
67.3207
66.5473
65.5587
64.393
63.087
61.6758
60.1921
58.6657
57.1237
55.5896
54.0839
52.6236
51.2227
49.8921
48.6398
47.4714
46.39
45.3968
44.4914
43.6717
42.9346
42.2762
41.6917
41.1761
40.724
40.3298
39.9881
39.6936
39.4412
39.2261
39.0438
38.8901
38.7612
38.6538
38.5648
38.4915
38.4316
38.3829
38.3438
38.3127
38.2882
38.2693
38.2552
38.2449
38.2379
38.2336
38.2318
38.2318
38.2336
38.2369
38.2414
38.247
38.2536
38.261
38.2691
38.2778
38.2868
38.2961
38.3056
38.3149
38.324
38.3327
38.3406
38.3475
38.3532
38.3574
38.3598
38.36
38.3579
38.3529
38.3449
38.3336
38.3187
38.3001
38.2775
38.2487
38.1966
38.0406
37.6295
38.6025
4874.82
-542.62
-410.307
-134.711
-21.5278
18.5964
34.308
42.3094
47.7128
52.0256
55.6829
58.8077
61.4358
63.5824
65.2613
66.4904
67.2928
67.6964
67.7331
67.4384
66.8498
66.0061
64.9466
63.7101
62.334
60.854
59.3033
57.7122
56.1082
54.5151
52.9537
51.4411
49.9915
48.6157
47.3219
46.1154
44.9995
43.9751
43.0415
42.1967
41.4373
40.7592
40.1574
39.6266
39.1612
38.7556
38.4041
38.1012
37.8416
37.6204
37.4329
37.2748
37.1423
37.0319
36.9404
36.865
36.8034
36.7533
36.7131
36.681
36.6557
36.6363
36.6216
36.6109
36.6036
36.5991
36.597
36.5969
36.5986
36.6018
36.6063
36.612
36.6187
36.6263
36.6346
36.6436
36.653
36.6629
36.673
36.6832
36.6933
36.703
36.7123
36.7209
36.7285
36.7349
36.7398
36.7429
36.7439
36.7426
36.7387
36.7318
36.7219
36.7087
36.6921
36.6701
36.6273
36.4919
36.1276
37.026
4874.83
-542.617
-410.303
-134.708
-21.5283
18.5885
34.2887
42.274
47.6563
51.9427
55.5682
58.6559
61.2416
63.3407
64.9674
66.14
66.8822
67.2222
67.1929
66.8302
66.1722
65.2585
64.129
62.823
61.3785
59.8318
58.2165
56.5633
54.9
53.2506
51.6362
50.0741
48.5783
47.1599
45.8269
44.5847
43.4363
42.3826
41.4227
40.5545
39.7742
39.0777
38.4597
37.9148
37.4371
37.0209
36.6603
36.3495
36.0833
35.8564
35.6641
35.502
35.3662
35.2529
35.1591
35.0818
35.0186
34.9672
34.9259
34.8929
34.867
34.8469
34.8317
34.8206
34.813
34.8082
34.8059
34.8057
34.8073
34.8104
34.8148
34.8205
34.8272
34.8349
34.8434
34.8526
34.8625
34.8728
34.8834
34.8943
34.9053
34.9161
34.9267
34.9367
34.9461
34.9545
34.9618
34.9676
34.9717
34.9738
34.9738
34.9713
34.9662
34.9583
34.9474
34.932
34.8984
34.783
34.4654
35.2866
4874.82
-542.637
-410.337
-134.758
-21.5961
18.4998
34.1757
42.1329
47.483
51.7328
55.3175
58.36
60.8962
62.9419
64.5115
65.6237
66.3027
66.5772
66.4806
66.0493
65.3222
64.3393
63.1411
61.7673
60.2566
58.6456
56.9682
55.2556
53.5358
51.833
50.1684
48.5594
47.0202
45.5617
44.192
42.9163
41.7375
40.6565
39.6721
38.782
37.9824
37.2687
36.6357
36.0777
35.5887
35.1626
34.7935
34.4755
34.2031
33.971
33.7743
33.6085
33.4696
33.3537
33.2578
33.1787
33.114
33.0614
33.0191
32.9853
32.9587
32.938
32.9224
32.9109
32.9029
32.8979
32.8954
32.8949
32.8963
32.8993
32.9037
32.9093
32.9161
32.9238
32.9324
32.9418
32.9518
32.9625
32.9736
32.9851
32.9968
33.0086
33.0203
33.0317
33.0426
33.0529
33.0623
33.0706
33.0776
33.083
33.0867
33.0883
33.0877
33.0848
33.0795
33.0702
33.0454
32.9492
32.6768
33.4207
4874.81
-542.676
-410.403
-134.852
-21.7206
18.343
33.9838
41.9029
47.2116
51.4166
54.953
57.9438
60.4251
62.4128
63.9216
64.9707
65.5845
65.7923
65.628
65.1285
64.333
63.2823
62.017
60.5777
59.0032
57.3304
55.5938
53.8247
52.0512
50.2979
48.586
46.933
45.353
43.857
42.4529
41.146
39.9389
38.8324
37.8253
36.9149
36.0973
35.3678
34.7209
34.1508
33.6513
33.2161
32.8392
32.5146
32.2365
31.9996
31.7988
31.6296
31.4878
31.3696
31.2716
31.1909
31.1248
31.0712
31.0279
30.9933
30.9661
30.9449
30.9288
30.917
30.9087
30.9034
30.9006
30.8999
30.9011
30.904
30.9082
30.9138
30.9204
30.9281
30.9367
30.9462
30.9565
30.9674
30.9788
30.9908
31.0031
31.0157
31.0283
31.0409
31.0532
31.0652
31.0765
31.0871
31.0967
31.1051
31.1121
31.1175
31.1212
31.123
31.1228
31.1194
31.1028
31.0246
30.7948
31.4633
4874.79
-542.732
-410.496
-134.983
-21.8917
18.1304
33.7274
41.6003
46.8603
51.0139
54.4963
57.4304
59.8526
61.779
63.2246
64.2088
64.7564
64.8974
64.6656
64.0987
63.2363
62.1195
60.7894
59.2869
57.6513
55.9196
54.1267
52.3041
50.48
48.6792
46.9228
45.2285
43.6104
42.0794
40.6434
39.3074
38.0741
36.944
35.9158
34.9866
34.1525
33.4084
32.7487
32.1675
31.6583
31.2148
30.8307
30.5
30.2167
29.9753
29.7708
29.5985
29.4541
29.3337
29.2339
29.1517
29.0844
29.0296
28.9855
28.9502
28.9224
28.9007
28.8842
28.872
28.8634
28.8578
28.8547
28.8539
28.8549
28.8575
28.8616
28.867
28.8735
28.8811
28.8897
28.8992
28.9095
28.9206
28.9323
28.9446
28.9574
28.9706
28.984
28.9975
29.0111
29.0245
29.0375
29.0501
29.062
29.0731
29.0831
29.0919
29.0995
29.1055
29.1101
29.112
29.1029
29.0413
28.851
29.4474
4874.76
-542.8
-410.61
-135.144
-22.0997
17.8734
33.4198
41.2403
46.4459
50.5433
53.9673
56.8413
59.2017
61.0647
62.4456
63.3643
63.8457
63.9201
63.622
62.9892
62.0617
60.881
59.4887
57.9258
56.2318
54.4443
52.5982
50.7251
48.8534
47.008
45.2102
43.4774
41.8238
40.2603
38.7947
37.4318
36.1743
35.0224
33.9748
33.0283
32.1789
31.4214
30.75
30.1586
29.6405
29.1894
28.7988
28.4624
28.1743
27.929
27.7211
27.5459
27.3991
27.2767
27.1752
27.0916
27.0232
26.9675
26.9226
26.8866
26.8582
26.8361
26.8192
26.8066
26.7977
26.7918
26.7885
26.7874
26.7881
26.7906
26.7944
26.7996
26.806
26.8135
26.822
26.8314
26.8417
26.8528
26.8646
26.8771
26.8903
26.9039
26.9179
26.9322
26.9468
26.9613
26.9758
26.9901
27.004
27.0174
27.0301
27.042
27.0529
27.0628
27.0716
27.0783
27.0759
27.0293
26.8748
27.4036
4874.74
-542.878
-410.74
-135.326
-22.3358
17.5829
33.0737
40.8372
45.9844
50.022
53.385
56.1966
58.4935
60.2922
61.6081
62.4613
62.8772
62.8863
62.5234
61.8266
60.8364
59.5945
58.1427
56.5223
54.7731
52.9329
51.0367
49.1163
47.2001
45.3132
43.4767
41.7082
40.0217
38.4282
36.9351
35.5475
34.2676
33.0958
32.0303
31.068
30.2047
29.4349
28.7528
28.152
27.6258
27.1678
26.7712
26.4297
26.1373
25.8882
25.6773
25.4995
25.3505
25.2263
25.1233
25.0385
24.969
24.9124
24.8668
24.8302
24.8013
24.7787
24.7614
24.7485
24.7392
24.733
24.7294
24.7281
24.7286
24.7308
24.7344
24.7394
24.7456
24.7528
24.7612
24.7704
24.7806
24.7917
24.8035
24.8161
24.8294
24.8433
24.8578
24.8727
24.888
24.9035
24.9192
24.9349
24.9504
24.9658
24.9807
24.9952
25.0091
25.0223
25.0348
25.0458
25.0493
25.016
24.8934
25.3597
4874.71
-542.963
-410.881
-135.525
-22.5919
17.2685
32.7002
40.4038
45.4901
49.4659
52.7662
55.5145
57.7474
59.4817
60.7331
61.5219
61.8736
61.8192
61.3936
60.6353
59.5851
58.2847
56.7764
55.1017
53.3006
51.4109
49.4678
47.5032
45.5457
43.6202
41.7479
39.9463
38.2296
36.6083
35.0901
33.6797
32.3794
31.1892
30.1074
29.1307
28.2546
27.4736
26.7817
26.1724
25.639
25.1745
24.7725
24.4264
24.1301
23.8777
23.6639
23.4838
23.3328
23.207
23.1026
23.0167
22.9462
22.8889
22.8425
22.8054
22.776
22.753
22.7353
22.722
22.7125
22.706
22.7022
22.7005
22.7008
22.7027
22.7061
22.7108
22.7167
22.7237
22.7318
22.7409
22.7509
22.7618
22.7735
22.7861
22.7995
22.8135
22.8282
22.8435
22.8593
22.8755
22.8921
22.9088
22.9258
22.9427
22.9595
22.9762
22.9925
23.0085
23.0242
23.0388
23.0474
23.0257
22.9311
23.3404
4874.68
-543.053
-411.03
-135.734
-22.8608
16.9391
32.3097
39.9517
44.9759
48.889
52.1263
54.8112
56.9806
58.6514
59.8396
60.5655
60.8551
60.7394
60.2537
59.4367
58.3293
56.9737
55.4122
53.6865
51.8367
49.9008
47.914
45.9084
43.9125
41.9513
40.046
38.2141
36.4694
34.8228
33.2815
31.8503
30.5313
29.3244
28.2278
27.2379
26.3502
25.5591
24.8584
24.2413
23.7012
23.2311
22.8242
22.4739
22.174
21.9186
21.7023
21.52
21.3673
21.2399
21.1344
21.0473
20.976
20.918
20.871
20.8334
20.8035
20.7801
20.7621
20.7485
20.7386
20.7319
20.7278
20.7258
20.7258
20.7274
20.7305
20.7349
20.7406
20.7473
20.7551
20.7639
20.7736
20.7843
20.7959
20.8083
20.8215
20.8356
20.8504
20.8658
20.8819
20.8986
20.9158
20.9334
20.9513
20.9694
20.9877
21.0061
21.0245
21.0428
21.061
21.0786
21.0915
21.0797
21.0093
21.367
4874.65
-543.144
-411.183
-135.948
-23.1361
16.6023
31.9112
39.4911
44.453
48.3037
51.4785
54.101
56.2082
57.8171
58.9439
59.6092
59.8391
59.6648
59.1219
58.2493
57.088
55.6804
54.069
52.2956
50.4005
48.4217
46.3945
44.351
42.3198
40.3258
38.3901
36.5303
34.7602
33.0903
31.5281
30.0779
28.7419
27.5199
26.4098
25.408
24.5098
23.7095
23.0007
22.3768
21.8306
21.3554
20.944
20.59
20.2869
20.0288
19.8102
19.626
19.4717
19.343
19.2363
19.1483
19.0762
19.0175
18.97
18.9319
18.9016
18.8779
18.8595
18.8456
18.8354
18.8284
18.824
18.8218
18.8215
18.8228
18.8256
18.8297
18.835
18.8414
18.8488
18.8573
18.8667
18.877
18.8883
18.9005
18.9135
18.9274
18.9421
18.9576
18.9738
18.9907
19.0082
19.0263
19.0449
19.0639
19.0833
19.103
19.1229
19.143
19.1633
19.1833
19.1997
19.1962
19.1461
19.4578
4874.62
-543.237
-411.336
-136.163
-23.4122
16.2648
31.5123
39.0308
43.9313
47.7207
50.8344
53.3961
55.443
56.9922
58.0601
58.6675
58.8406
58.6108
58.0139
57.089
55.8771
54.421
52.7631
50.9454
49.0082
46.9898
44.9253
42.847
40.7833
38.7593
36.7959
34.9107
33.1174
31.4265
29.8451
28.3778
27.0264
25.7906
24.6683
23.6558
22.7481
21.9396
21.2236
20.5934
20.0419
19.562
19.1466
18.7892
18.4833
18.2227
18.0021
17.8162
17.6604
17.5306
17.4229
17.3341
17.2613
17.2019
17.1539
17.1154
17.0847
17.0606
17.0419
17.0278
17.0173
17.01
17.0053
17.0028
17.0022
17.0032
17.0057
17.0094
17.0144
17.0204
17.0275
17.0355
17.0446
17.0546
17.0655
17.0773
17.09
17.1036
17.1181
17.1334
17.1495
17.1664
17.1841
17.2024
17.2214
17.2409
17.261
17.2816
17.3026
17.324
17.3458
17.3676
17.3867
17.3901
17.357
17.6278
4874.59
-543.328
-411.488
-136.374
-23.6845
15.9323
31.1196
38.5781
43.4189
47.1489
50.2036
52.7069
54.696
56.1882
57.2001
57.7525
57.872
57.59
56.9425
55.9686
54.7097
53.2084
51.5075
49.6489
47.6731
45.6182
43.5196
41.4093
39.3161
37.2646
35.2761
33.3678
31.5534
29.8434
28.2448
26.762
25.3967
24.1486
23.0153
21.9931
21.077
20.261
19.5385
18.9027
18.3464
17.8623
17.4435
17.083
16.7745
16.5118
16.2894
16.102
15.9449
15.8139
15.7053
15.6158
15.5424
15.4825
15.434
15.3951
15.3641
15.3397
15.3207
15.3062
15.2955
15.2879
15.2829
15.2801
15.2792
15.2799
15.282
15.2854
15.29
15.2956
15.3023
15.31
15.3186
15.3281
15.3386
15.35
15.3623
15.3755
15.3896
15.4046
15.4205
15.4372
15.4547
15.473
15.4921
15.5119
15.5323
15.5534
15.5751
15.5974
15.6202
15.6433
15.6644
15.6733
15.6539
15.8887
4874.56
-543.416
-411.635
-136.581
-23.9491
15.6093
30.7385
38.1392
42.9226
46.5956
49.594
52.0416
53.9758
55.4142
56.3732
56.8741
56.9433
56.6126
55.9179
54.8986
53.5962
52.0532
50.3127
48.4165
46.4052
44.317
42.1872
40.048
37.9278
35.8516
33.8402
31.911
30.0777
28.3504
26.7363
25.2395
23.8618
22.6026
21.4595
20.4286
19.5049
18.6822
17.9541
17.3133
16.7526
16.2648
15.8428
15.4797
15.1689
14.9043
14.6802
14.4915
14.3332
14.2013
14.092
14.0017
13.9277
13.8674
13.8185
13.7792
13.7479
13.7232
13.7039
13.6892
13.6782
13.6703
13.6651
13.662
13.6608
13.6612
13.663
13.666
13.6702
13.6754
13.6816
13.6888
13.6969
13.706
13.716
13.7269
13.7387
13.7514
13.765
13.7796
13.795
13.8114
13.8286
13.8467
13.8656
13.8853
13.9058
13.9271
13.9491
13.9718
13.9951
14.019
14.0416
14.0547
14.0463
14.2495
4874.53
-543.501
-411.777
-136.778
-24.2031
15.2995
30.3732
37.7188
42.4476
46.0667
49.0117
51.4068
53.2895
54.6773
55.587
56.0397
56.0622
55.6863
54.9481
53.8869
52.5444
50.9632
49.1864
47.2559
45.2123
43.0938
40.9357
38.7702
36.6257
34.527
32.4951
30.5471
28.6967
26.9539
25.3259
23.8167
22.4278
21.1587
20.0068
18.9683
18.0378
17.2092
16.4759
15.8307
15.2662
14.7752
14.3503
13.9848
13.672
13.4057
13.1802
12.9902
12.831
12.6982
12.5882
12.4973
12.4228
12.3621
12.3128
12.2732
12.2416
12.2166
12.197
12.1821
12.1708
12.1627
12.1572
12.1538
12.1523
12.1524
12.1538
12.1565
12.1603
12.1651
12.1708
12.1775
12.1852
12.1937
12.2031
12.2135
12.2247
12.2369
12.2499
12.2639
12.2788
12.2947
12.3114
12.3291
12.3476
12.367
12.3873
12.4084
12.4303
12.4531
12.4766
12.5008
12.5243
12.5404
12.5407
12.7163
4874.5
-543.582
-411.911
-136.966
-24.444
15.0058
30.0271
37.3207
41.9981
45.5664
48.4615
50.8075
52.6421
53.9829
54.8468
55.255
55.2344
54.8169
54.0386
52.939
51.5599
49.9439
48.134
46.1723
44.0995
41.9535
39.7699
37.5807
35.4143
33.2954
31.245
29.2803
27.4146
25.658
24.0176
22.4972
21.0984
19.8205
18.6608
17.6154
16.6789
15.8452
15.1073
14.4581
13.8903
13.3963
12.9691
12.6014
12.2868
12.019
11.7923
11.6012
11.4411
11.3076
11.1969
11.1055
11.0306
10.9694
10.9198
10.8799
10.848
10.8228
10.803
10.7878
10.7764
10.768
10.7622
10.7586
10.7568
10.7565
10.7576
10.7599
10.7632
10.7676
10.7729
10.7791
10.7863
10.7942
10.8031
10.8128
10.8234
10.835
10.8474
10.8607
10.875
10.8902
10.9063
10.9233
10.9413
10.9602
10.98
11.0007
11.0223
11.0448
11.0682
11.0923
11.116
11.1343
11.1411
11.2927
4874.48
-543.658
-412.037
-137.143
-24.6702
14.7301
29.7023
36.9474
41.5769
45.098
47.9467
50.2473
52.0374
53.3348
54.1564
54.5237
54.4636
54.008
53.1932
52.0587
50.6462
48.9986
47.1588
45.169
43.0697
40.8991
38.6925
36.482
34.296
32.1591
30.0923
28.1124
26.2331
24.4643
22.8128
21.2826
19.875
18.5892
17.4227
16.3713
15.4295
14.5911
13.8492
13.1966
12.6258
12.1293
11.6998
11.3303
11.0142
10.745
10.5172
10.3252
10.1643
10.0301
9.91884