/*--------------------------------*- C++ -*----------------------------------*\
  =========                 |
  \\      /  F ield         | OpenFOAM: The Open Source CFD Toolbox
   \\    /   O peration     | Website:  https://openfoam.org
    \\  /    A nd           | Version:  10
     \\/     M anipulation  |
\*---------------------------------------------------------------------------*/
FoamFile
{
    format      ascii;
    class       volScalarField;
    location    "2";
    object      T;
}
// * * * * * * * * * * * * * * * * * * * * * * * * * * * * * * * * * * * * * //

dimensions      [0 0 0 1 0 0 0];

internalField   nonuniform List<scalar> 
10000
(
374.758
360.576
355.415
352.89
351.311
350.153
349.22
348.424
347.724
347.094
346.521
345.995
345.51
345.062
344.649
344.267
343.915
343.591
343.294
343.022
342.774
342.548
342.344
342.159
341.993
341.844
341.711
341.593
341.488
341.396
341.315
341.244
341.182
341.128
341.082
341.042
341.007
340.978
340.953
340.932
340.914
340.899
340.886
340.876
340.867
340.86
340.854
340.849
340.845
340.842
340.839
340.837
340.835
340.834
340.833
340.832
340.832
340.831
340.831
340.83
340.83
340.83
340.83
340.83
340.83
340.83
340.831
340.831
340.831
340.832
340.832
340.833
340.833
340.834
340.835
340.836
340.837
340.838
340.84
340.842
340.843
340.846
340.848
340.851
340.854
340.857
340.86
340.864
340.869
340.873
340.878
340.884
340.89
340.896
340.903
340.91
340.918
340.927
340.936
340.948
387.902
372.684
363.59
357.708
353.502
350.229
347.52
345.183
343.11
341.239
339.531
337.962
336.514
335.177
333.94
332.798
331.745
330.776
329.886
329.072
328.329
327.654
327.041
326.488
325.991
325.545
325.147
324.793
324.479
324.203
323.959
323.747
323.561
323.4
323.26
323.14
323.037
322.949
322.874
322.811
322.757
322.712
322.674
322.643
322.617
322.595
322.577
322.563
322.551
322.541
322.533
322.527
322.522
322.518
322.514
322.512
322.51
322.508
322.507
322.506
322.506
322.506
322.506
322.506
322.506
322.506
322.507
322.508
322.509
322.51
322.511
322.513
322.515
322.517
322.52
322.523
322.526
322.53
322.535
322.54
322.545
322.552
322.559
322.567
322.575
322.585
322.596
322.608
322.62
322.634
322.65
322.666
322.684
322.703
322.723
322.745
322.769
322.793
322.82
322.848
392.036
378.707
368.598
360.905
354.829
349.821
345.541
341.778
338.405
335.341
332.532
329.944
327.552
325.339
323.291
321.399
319.653
318.045
316.569
315.217
313.984
312.862
311.845
310.927
310.101
309.36
308.699
308.111
307.59
307.13
306.726
306.372
306.064
305.796
305.564
305.365
305.193
305.047
304.922
304.817
304.728
304.653
304.59
304.538
304.494
304.458
304.429
304.404
304.384
304.368
304.355
304.345
304.336
304.329
304.324
304.32
304.317
304.314
304.312
304.311
304.31
304.31
304.31
304.31
304.31
304.311
304.312
304.313
304.315
304.317
304.319
304.322
304.325
304.329
304.333
304.338
304.344
304.35
304.358
304.366
304.375
304.386
304.397
304.41
304.425
304.441
304.459
304.478
304.499
304.522
304.547
304.575
304.604
304.636
304.669
304.706
304.744
304.785
304.828
304.874
393.548
381.555
371.25
362.564
355.187
348.806
343.181
338.14
333.565
329.375
325.514
321.944
318.636
315.569
312.729
310.101
307.674
305.439
303.386
301.505
299.789
298.227
296.811
295.533
294.382
293.35
292.429
291.61
290.884
290.243
289.68
289.187
288.757
288.384
288.061
287.783
287.544
287.34
287.167
287.02
286.895
286.791
286.703
286.63
286.57
286.52
286.478
286.444
286.417
286.394
286.376
286.361
286.349
286.34
286.333
286.327
286.322
286.319
286.316
286.314
286.313
286.312
286.312
286.312
286.313
286.314
286.315
286.317
286.319
286.322
286.325
286.329
286.334
286.339
286.345
286.352
286.36
286.369
286.379
286.39
286.403
286.418
286.434
286.452
286.472
286.494
286.518
286.545
286.574
286.606
286.641
286.678
286.719
286.763
286.81
286.86
286.913
286.97
287.03
287.092
394.129
382.773
372.361
363.022
354.681
347.196
340.426
334.249
328.575
323.336
318.481
313.973
309.785
305.894
302.285
298.942
295.852
293.004
290.386
287.988
285.798
283.805
281.998
280.366
278.896
277.579
276.402
275.356
274.428
273.61
272.89
272.26
271.711
271.234
270.821
270.466
270.161
269.9
269.678
269.49
269.332
269.198
269.086
268.993
268.915
268.851
268.799
268.755
268.72
268.691
268.668
268.649
268.634
268.622
268.612
268.605
268.599
268.594
268.591
268.589
268.587
268.586
268.586
268.586
268.587
268.588
268.59
268.592
268.595
268.599
268.603
268.607
268.613
268.62
268.627
268.636
268.646
268.657
268.67
268.684
268.701
268.719
268.74
268.762
268.788
268.816
268.846
268.88
268.917
268.958
269.001
269.049
269.1
269.156
269.215
269.278
269.346
269.417
269.493
269.572
394.308
383.116
372.5
362.616
353.49
345.079
337.315
330.126
323.451
317.239
311.451
306.055
301.027
296.346
291.995
287.961
284.229
280.786
277.62
274.718
272.066
269.653
267.464
265.486
263.705
262.109
260.682
259.414
258.289
257.297
256.424
255.66
254.994
254.415
253.915
253.483
253.113
252.797
252.528
252.3
252.107
251.945
251.809
251.696
251.602
251.524
251.46
251.408
251.365
251.33
251.301
251.279
251.26
251.246
251.234
251.225
251.218
251.213
251.209
251.206
251.204
251.203
251.202
251.203
251.203
251.205
251.207
251.21
251.213
251.217
251.222
251.228
251.235
251.243
251.252
251.262
251.274
251.287
251.303
251.32
251.34
251.361
251.386
251.413
251.443
251.477
251.514
251.554
251.598
251.647
251.699
251.756
251.818
251.884
251.955
252.031
252.111
252.197
252.288
252.383
394.286
382.964
372.026
361.614
351.79
342.564
333.917
325.815
318.224
311.112
304.451
298.217
292.392
286.957
281.897
277.198
272.848
268.831
265.134
261.744
258.646
255.824
253.264
250.951
248.867
246.999
245.33
243.845
242.528
241.366
240.345
239.45
238.67
237.992
237.406
236.901
236.467
236.097
235.782
235.514
235.289
235.099
234.94
234.807
234.697
234.606
234.531
234.469
234.419
234.378
234.345
234.318
234.296
234.279
234.266
234.255
234.247
234.24
234.236
234.232
234.23
234.229
234.228
234.229
234.23
234.231
234.234
234.237
234.241
234.245
234.251
234.258
234.266
234.275
234.285
234.297
234.311
234.326
234.344
234.364
234.386
234.412
234.44
234.471
234.506
234.545
234.587
234.634
234.685
234.74
234.801
234.866
234.937
235.013
235.095
235.183
235.276
235.375
235.48
235.589
394.152
382.52
371.167
360.213
349.731
339.759
330.308
321.372
312.938
304.99
297.514
290.492
283.913
277.762
272.026
266.693
261.749
257.181
252.974
249.114
245.584
242.369
239.45
236.812
234.436
232.305
230.401
228.706
227.204
225.877
224.711
223.69
222.799
222.025
221.356
220.779
220.284
219.861
219.501
219.196
218.938
218.721
218.539
218.388
218.262
218.158
218.072
218.002
217.944
217.897
217.859
217.829
217.804
217.785
217.769
217.757
217.747
217.74
217.735
217.731
217.728
217.727
217.726
217.727
217.728
217.73
217.732
217.736
217.74
217.745
217.752
217.759
217.768
217.778
217.79
217.803
217.818
217.836
217.856
217.878
217.903
217.931
217.963
217.998
218.037
218.08
218.128
218.18
218.237
218.3
218.367
218.441
218.52
218.605
218.697
218.795
218.9
219.011
219.128
219.25
393.953
381.9
370.066
358.552
347.433
336.761
326.564
316.856
307.64
298.915
290.675
282.914
275.624
268.795
262.417
256.48
250.97
245.875
241.18
236.869
232.926
229.332
226.069
223.119
220.461
218.076
215.945
214.048
212.367
210.882
209.576
208.433
207.435
206.569
205.819
205.173
204.618
204.145
203.741
203.399
203.11
202.867
202.664
202.494
202.353
202.236
202.14
202.061
201.997
201.944
201.902
201.867
201.84
201.818
201.801
201.787
201.776
201.768
201.762
201.758
201.755
201.753
201.752
201.753
201.754
201.756
201.759
201.762
201.767
201.773
201.78
201.788
201.798
201.809
201.821
201.836
201.853
201.872
201.894
201.918
201.946
201.977
202.011
202.05
202.093
202.14
202.192
202.249
202.312
202.38
202.454
202.535
202.622
202.715
202.816
202.923
203.038
203.159
203.288
203.422
393.716
381.177
368.819
356.732
344.991
333.651
322.753
312.323
302.378
292.927
283.973
275.518
267.558
260.09
253.105
246.594
240.547
234.951
229.79
225.05
220.711
216.755
213.163
209.913
206.985
204.358
202.009
199.918
198.065
196.428
194.988
193.727
192.627
191.671
190.844
190.131
189.519
188.997
188.551
188.174
187.855
187.587
187.363
187.175
187.02
186.891
186.785
186.698
186.627
186.569
186.522
186.484
186.453
186.429
186.41
186.395
186.383
186.374
186.367
186.362
186.359
186.357
186.356
186.357
186.358
186.36
186.363
186.367
186.372
186.378
186.386
186.395
186.405
186.417
186.43
186.446
186.464
186.485
186.508
186.535
186.564
186.598
186.635
186.676
186.722
186.773
186.829
186.89
186.958
187.031
187.111
187.198
187.291
187.392
187.5
187.616
187.739
187.87
188.008
188.152
393.458
380.394
367.491
354.827
342.474
330.493
318.932
307.824
297.196
287.064
277.442
268.336
259.748
251.677
244.119
237.067
230.512
224.44
218.838
213.689
208.974
204.674
200.767
197.233
194.047
191.188
188.631
186.355
184.337
182.554
180.986
179.613
178.415
177.373
176.472
175.696
175.029
174.46
173.974
173.563
173.216
172.924
172.679
172.475
172.305
172.165
172.049
171.954
171.876
171.813
171.762
171.721
171.688
171.661
171.64
171.624
171.611
171.601
171.594
171.588
171.585
171.582
171.581
171.582
171.583
171.585
171.588
171.593
171.598
171.605
171.612
171.622
171.633
171.645
171.66
171.676
171.696
171.717
171.742
171.77
171.801
171.837
171.876
171.92
171.969
172.022
172.082
172.147
172.218
172.296
172.381
172.472
172.572
172.678
172.793
172.915
173.046
173.185
173.331
173.484
393.189
379.585
366.126
352.888
339.939
327.343
315.15
303.403
292.133
281.365
271.116
261.399
252.221
243.585
235.488
227.927
220.891
214.371
208.351
202.815
197.744
193.118
188.914
185.108
181.678
178.599
175.845
173.392
171.217
169.296
167.606
166.126
164.834
163.711
162.74
161.902
161.183
160.569
160.046
159.602
159.228
158.912
158.648
158.428
158.245
158.094
157.969
157.866
157.783
157.714
157.659
157.615
157.579
157.55
157.528
157.51
157.496
157.485
157.477
157.471
157.467
157.465
157.464
157.464
157.465
157.467
157.471
157.475
157.481
157.488
157.496
157.506
157.517
157.53
157.545
157.563
157.583
157.606
157.631
157.661
157.693
157.73
157.771
157.817
157.868
157.924
157.986
158.055
158.129
158.21
158.299
158.395
158.498
158.61
158.73
158.858
158.994
159.139
159.293
159.452
392.918
378.77
364.758
350.954
337.428
324.241
311.449
299.098
287.224
275.858
265.023
254.735
245.004
235.838
227.236
219.195
211.709
204.767
198.354
192.454
187.047
182.113
177.627
173.566
169.904
166.616
163.676
161.056
158.733
156.681
154.875
153.293
151.912
150.712
149.674
148.779
148.01
147.353
146.794
146.32
145.919
145.582
145.3
145.064
144.869
144.707
144.573
144.463
144.374
144.301
144.242
144.194
144.156
144.125
144.101
144.082
144.067
144.055
144.047
144.041
144.036
144.034
144.032
144.032
144.034
144.036
144.039
144.044
144.05
144.057
144.065
144.075
144.087
144.1
144.116
144.134
144.155
144.178
144.205
144.235
144.269
144.307
144.35
144.397
144.449
144.508
144.572
144.642
144.719
144.803
144.894
144.994
145.101
145.216
145.339
145.472
145.613
145.763
145.922
146.086
392.65
377.964
363.41
349.056
334.972
321.221
307.86
294.939
282.498
270.573
259.188
248.365
238.118
228.456
219.381
210.893
202.985
195.647
188.865
182.623
176.901
171.677
166.926
162.625
158.745
155.261
152.144
149.368
146.904
144.728
142.813
141.135
139.671
138.398
137.296
136.346
135.531
134.834
134.241
133.737
133.312
132.954
132.655
132.405
132.197
132.025
131.883
131.767
131.672
131.594
131.531
131.481
131.44
131.408
131.382
131.361
131.346
131.333
131.324
131.318
131.313
131.31
131.309
131.308
131.31
131.312
131.315
131.32
131.326
131.333
131.342
131.352
131.364
131.378
131.394
131.412
131.433
131.457
131.484
131.515
131.55
131.589
131.632
131.681
131.734
131.794
131.859
131.931
132.01
132.096
132.189
132.29
132.4
132.518
132.644
132.779
132.924
133.077
133.239
133.407
392.389
377.179
362.099
347.215
332.597
318.308
304.41
290.951
277.979
265.529
253.631
242.309
231.581
221.456
211.94
203.034
194.731
187.024
179.898
173.336
167.319
161.823
156.825
152.298
148.214
144.546
141.264
138.339
135.745
133.452
131.435
129.666
128.123
126.782
125.621
124.62
123.76
123.025
122.4
121.869
121.421
121.043
120.727
120.464
120.245
120.063
119.914
119.791
119.691
119.609
119.543
119.489
119.446
119.412
119.385
119.363
119.347
119.334
119.324
119.317
119.312
119.309
119.307
119.307
119.308
119.31
119.314
119.318
119.324
119.331
119.34
119.35
119.363
119.377
119.393
119.411
119.433
119.457
119.485
119.516
119.551
119.59
119.634
119.683
119.737
119.798
119.864
119.937
120.016
120.103
120.198
120.3
120.411
120.53
120.658
120.795
120.941
121.097
121.261
121.431
392.137
376.423
360.837
345.447
330.32
315.523
301.116
287.154
273.683
260.743
248.367
236.581
225.404
214.849
204.924
195.628
186.959
178.907
171.46
164.601
158.308
152.56
147.331
142.593
138.319
134.478
131.042
127.979
125.262
122.86
120.747
118.894
117.277
115.872
114.655
113.606
112.705
111.935
111.279
110.722
110.252
109.857
109.526
109.249
109.02
108.829
108.673
108.544
108.439
108.353
108.283
108.227
108.182
108.146
108.118
108.095
108.078
108.064
108.054
108.046
108.041
108.037
108.036
108.035
108.036
108.038
108.042
108.046
108.052
108.06
108.068
108.079
108.091
108.105
108.121
108.14
108.161
108.185
108.213
108.244
108.279
108.319
108.363
108.412
108.467
108.527
108.593
108.666
108.746
108.833
108.928
109.031
109.142
109.262
109.39
109.528
109.674
109.83
109.995
110.165
391.896
375.702
359.635
343.763
328.155
312.878
297.995
283.561
269.625
256.229
243.408
231.19
219.597
208.643
198.337
188.681
179.672
171.301
163.556
156.42
149.872
143.89
138.445
133.512
129.06
125.06
121.479
118.289
115.457
112.954
110.751
108.82
107.134
105.669
104.4
103.306
102.367
101.563
100.879
100.299
99.8086
99.3962
99.0506
98.7621
98.5224
98.324
98.1604
98.026
97.9162
97.8267
97.7542
97.6957
97.6487
97.6111
97.5812
97.5577
97.5393
97.5251
97.5144
97.5064
97.5008
97.4971
97.4951
97.4946
97.4954
97.4975
97.5008
97.5053
97.5111
97.5183
97.5269
97.5372
97.5492
97.5632
97.5793
97.5979
97.6192
97.6434
97.6709
97.702
97.7369
97.7762
97.82
97.8689
97.9231
97.983
98.0491
98.1217
98.2012
98.2879
98.3823
98.4845
98.595
98.7139
98.8417
98.9784
99.1242
99.2793
99.4432
99.613
391.669
375.019
358.497
342.171
326.111
310.385
295.056
280.181
265.812
251.992
238.759
226.141
214.163
202.841
192.183
182.194
172.87
164.204
156.184
148.793
142.009
135.808
130.166
125.051
120.435
116.286
112.573
109.263
106.325
103.728
101.442
99.4383
97.6888
96.1677
94.8508
93.7152
92.74
91.906
91.1956
90.593
90.084
89.6557
89.2967
88.9972
88.7482
88.5421
88.3722
88.2326
88.1185
88.0256
87.9502
87.8894
87.8405
87.8015
87.7705
87.746
87.7268
87.712
87.7008
87.6924
87.6865
87.6826
87.6804
87.6797
87.6804
87.6823
87.6855
87.6899
87.6956
87.7026
87.7111
87.7212
87.733
87.7468
87.7628
87.7811
87.8021
87.826
87.8531
87.8837
87.9182
87.9569
88.0002
88.0484
88.1019
88.161
88.2263
88.2979
88.3763
88.4619
88.555
88.6559
88.7649
88.8823
89.0084
89.1434
89.2873
89.4404
89.6022
89.7698
391.455
374.377
357.428
340.677
324.194
308.048
292.304
277.02
262.25
248.038
234.423
221.437
209.104
197.441
186.459
176.163
166.55
157.612
149.339
141.712
134.71
128.31
122.483
117.202
112.435
108.149
104.313
100.893
97.8572
95.1734
92.8108
90.7394
88.9309
87.3584
85.9969
84.8227
83.8144
82.952
82.2174
81.5942
81.0677
80.6247
80.2535
79.9437
79.6861
79.4729
79.2971
79.1527
79.0346
78.9385
78.8605
78.7976
78.747
78.7065
78.6744
78.649
78.6292
78.6138
78.6021
78.5934
78.5872
78.583
78.5806
78.5797
78.5803
78.582
78.5851
78.5893
78.5948
78.6017
78.61
78.6198
78.6314
78.6449
78.6605
78.6784
78.699
78.7224
78.7489
78.7789
78.8127
78.8506
78.893
78.9402
78.9925
79.0505
79.1144
79.1845
79.2613
79.3452
79.4363
79.5352
79.6419
79.757
79.8805
80.0127
80.1537
80.3037
80.4622
80.6263
391.255
373.778
356.431
339.283
322.406
305.871
289.742
274.08
258.939
244.365
230.399
217.074
204.414
192.439
181.16
170.581
160.702
151.516
143.01
135.166
127.965
121.381
115.386
109.952
105.045
100.634
96.6847
93.1638
90.038
87.2744
84.8413
82.7079
80.8451
79.2254
77.8227
76.6131
75.5742
74.6857
73.9287
73.2866
72.744
72.2875
71.9049
71.5856
71.3201
71.1003
70.9191
70.7703
70.6486
70.5494
70.469
70.4041
70.3519
70.3102
70.2771
70.2509
70.2303
70.2145
70.2023
70.1933
70.1867
70.1823
70.1797
70.1787
70.179
70.1806
70.1835
70.1875
70.1928
70.1994
70.2075
70.217
70.2283
70.2414
70.2565
70.274
70.2939
70.3167
70.3425
70.3717
70.4045
70.4414
70.4826
70.5284
70.5794
70.6357
70.6978
70.766
70.8407
70.9223
71.0109
71.107
71.2109
71.3228
71.4429
71.5715
71.7087
71.8546
72.0088
72.1684
391.069
373.222
355.506
337.991
320.75
303.854
287.37
271.36
255.877
240.971
226.683
213.046
200.088
187.827
176.275
165.439
155.317
145.903
137.184
129.143
121.759
115.007
108.858
103.283
98.2492
93.7231
89.6705
86.0572
82.849
80.0122
77.5145
75.3243
73.4118
71.7487
70.3084
69.0662
67.9994
67.0868
66.3093
65.6498
65.0925
64.6235
64.2305
63.9024
63.6297
63.4039
63.2177
63.0648
62.9397
62.8378
62.7552
62.6885
62.6349
62.592
62.5579
62.5309
62.5098
62.4934
62.4808
62.4714
62.4647
62.46
62.4572
62.4559
62.4561
62.4575
62.4601
62.464
62.469
62.4754
62.4831
62.4923
62.5031
62.5158
62.5304
62.5472
62.5665
62.5885
62.6134
62.6416
62.6733
62.7089
62.7486
62.793
62.8421
62.8965
62.9565
63.0224
63.0946
63.1733
63.2589
63.3518
63.4521
63.5602
63.6762
63.8004
63.933
64.074
64.2229
64.3771
390.898
372.709
354.652
336.799
319.222
301.995
285.186
268.855
253.061
237.851
223.268
209.347
196.115
183.593
171.793
160.722
150.379
140.757
131.844
123.623
116.073
109.168
102.879
97.176
92.0262
87.3953
83.2485
79.5508
76.2674
73.364
70.8073
68.5653
66.6074
64.9047
63.43
62.1582
61.0657
60.1312
59.335
58.6596
58.0888
57.6085
57.2059
56.8699
56.5905
56.3592
56.1684
56.0118
55.8836
55.7792
55.6946
55.6262
55.5712
55.5272
55.4922
55.4646
55.4429
55.426
55.4131
55.4034
55.3964
55.3915
55.3884
55.387
55.3869
55.3881
55.3906
55.3942
55.3989
55.405
55.4123
55.4212
55.4315
55.4436
55.4577
55.4738
55.4923
55.5133
55.5373
55.5643
55.5947
55.6288
55.667
55.7095
55.7567
55.8089
55.8664
55.9296
55.9989
56.0744
56.1566
56.2456
56.3419
56.4456
56.557
56.6762
56.8035
56.9388
57.0818
57.2297
390.741
372.238
353.869
335.705
317.822
300.292
283.184
266.561
250.482
234.995
220.143
205.964
192.484
179.725
167.7
156.415
145.871
136.06
126.972
118.588
110.886
103.842
97.426
91.6071
86.352
81.626
77.3937
73.6194
70.2677
67.3037
64.6935
62.4044
60.4052
58.6665
57.1606
55.8618
54.746
53.7915
52.9784
52.2884
51.7054
51.2147
50.8035
50.4602
50.1747
49.9384
49.7435
49.5834
49.4525
49.3458
49.2593
49.1894
49.1332
49.0882
49.0524
49.0241
49.0019
48.9846
48.9713
48.9613
48.954
48.9489
48.9457
48.944
48.9437
48.9447
48.9469
48.9503
48.9548
48.9605
48.9674
48.9758
48.9857
48.9972
49.0106
49.0259
49.0435
49.0636
49.0864
49.1122
49.1412
49.1737
49.2101
49.2506
49.2956
49.3453
49.4002
49.4604
49.5264
49.5985
49.6768
49.7617
49.8535
49.9524
50.0586
50.1723
50.2937
50.4227
50.5591
50.7001
390.597
371.808
353.154
334.707
316.544
298.738
281.359
264.471
248.132
232.393
217.298
202.884
189.18
176.206
163.977
152.499
141.773
131.792
122.545
114.013
106.175
99.0053
92.4744
86.5507
81.2004
76.3884
72.0787
68.2352
64.8217
61.8029
59.1442
56.8125
54.776
53.0048
51.4706
50.1472
49.0104
48.0379
47.2093
46.5062
45.912
45.412
44.9929
44.643
44.352
44.1112
43.9125
43.7493
43.6158
43.5071
43.4188
43.3476
43.2902
43.2444
43.2079
43.179
43.1563
43.1386
43.125
43.1147
43.1072
43.1018
43.0984
43.0965
43.096
43.0968
43.0987
43.1018
43.106
43.1113
43.1179
43.1258
43.1351
43.146
43.1587
43.1732
43.1899
43.2089
43.2305
43.2549
43.2824
43.3132
43.3476
43.386
43.4286
43.4758
43.5278
43.5849
43.6474
43.7156
43.7899
43.8704
43.9573
44.0511
44.1517
44.2595
44.3745
44.4968
44.6261
44.7597
390.467
371.417
352.504
333.801
315.383
297.327
279.702
262.574
246.001
230.034
214.72
200.094
186.187
173.019
160.606
148.955
138.065
127.931
118.54
109.875
101.915
94.6316
87.9972
81.9791
76.5431
71.6536
67.2743
63.3684
59.8993
56.8311
54.1288
51.7586
49.6885
47.8879
46.3282
44.9828
43.8269
42.8381
41.9956
41.2806
40.6765
40.168
39.7417
39.3859
39.09
38.845
38.6429
38.4769
38.3411
38.2305
38.1408
38.0682
38.0099
37.9632
37.9261
37.8966
37.8735
37.8554
37.8415
37.831
37.8232
37.8177
37.814
37.8119
37.8113
37.8118
37.8135
37.8163
37.8201
37.8251
37.8312
37.8386
37.8474
37.8576
37.8695
37.8832
37.8989
37.9168
37.9371
37.9601
37.986
38.015
38.0475
38.0836
38.1237
38.1681
38.2171
38.2709
38.3297
38.394
38.4639
38.5398
38.6217
38.71
38.8048
38.9064
39.0147
39.13
39.2518
39.3777
390.349
371.064
351.917
332.982
314.335
296.053
278.206
260.861
244.077
227.906
212.394
197.577
183.488
170.146
157.568
145.76
134.724
124.452
114.933
106.149
98.0778
90.6936
83.9663
77.8635
72.3506
67.3917
62.9499
58.988
55.469
52.3565
49.615
47.2104
45.11
43.2831
41.7005
40.3352
39.1623
38.1588
37.3038
36.5782
35.965
35.4489
35.0163
34.6551
34.3548
34.106
33.9009
33.7324
33.5945
33.4822
33.3911
33.3174
33.2582
33.2108
33.173
33.1431
33.1195
33.1012
33.087
33.0762
33.0682
33.0625
33.0586
33.0563
33.0554
33.0557
33.0572
33.0596
33.0632
33.0678
33.0735
33.0804
33.0885
33.0981
33.1092
33.122
33.1367
33.1535
33.1725
33.194
33.2182
33.2454
33.2758
33.3096
33.3472
33.3888
33.4346
33.4849
33.5401
33.6003
33.6657
33.7367
33.8135
33.8962
33.985
34.0801
34.1816
34.2896
34.4037
34.5216
390.243
370.747
351.389
332.245
313.392
294.907
276.861
259.322
242.348
225.993
210.304
195.317
181.064
167.567
154.842
142.894
131.726
121.331
111.697
102.807
94.6376
87.1628
80.3526
74.1741
68.5926
63.5717
59.074
55.0621
51.4985
48.3464
45.5699
43.1345
41.0071
39.1566
37.5535
36.1705
34.9824
33.9658
33.0995
32.3644
31.7432
31.2202
30.7819
30.4159
30.1116
29.8595
29.6517
29.4809
29.3412
29.2273
29.1349
29.0603
29.0003
28.9522
28.9138
28.8835
28.8596
28.8409
28.8265
28.8154
28.8072
28.8013
28.7973
28.7948
28.7937
28.7938
28.7949
28.7971
28.8003
28.8045
28.8098
28.8162
28.8237
28.8326
28.843
28.8549
28.8685
28.8841
28.9018
28.9218
28.9444
28.9697
28.998
29.0295
29.0644
29.1031
29.1458
29.1927
29.244
29.3001
29.361
29.4271
29.4986
29.5756
29.6583
29.7469
29.8414
29.942
30.0483
30.1581
390.149
370.463
350.917
331.586
312.548
293.881
275.658
257.944
240.802
224.283
208.435
193.297
178.898
165.263
152.405
140.334
129.049
118.544
108.808
99.823
91.5661
84.0107
77.1266
70.8809
65.2383
60.1622
55.6149
51.5585
47.9552
44.7678
41.9601
39.4973
37.3459
35.4743
33.853
32.4542
31.2525
30.2242
29.348
28.6044
27.9759
27.4469
27.0035
26.6332
26.3253
26.0703
25.86
25.6872
25.5458
25.4306
25.3372
25.2616
25.2008
25.1521
25.1133
25.0826
25.0583
25.0394
25.0247
25.0135
25.0051
24.999
24.9947
24.9921
24.9908
24.9906
24.9915
24.9934
24.9963
25.0001
25.0049
25.0108
25.0178
25.026
25.0355
25.0466
25.0592
25.0736
25.09
25.1085
25.1294
25.1528
25.179
25.2081
25.2405
25.2763
25.3158
25.3592
25.4068
25.4587
25.5151
25.5763
25.6425
25.7138
25.7904
25.8725
25.96
26.0532
26.1517
26.2533
390.064
370.209
350.495
330.998
311.796
292.968
274.586
256.718
239.424
222.76
206.772
191.499
176.971
163.212
150.238
138.056
126.667
116.066
106.239
97.1699
88.8354
81.2085
74.2591
67.9537
62.257
57.1319
52.5406
48.4448
44.8063
41.5877
38.7524
36.2652
34.0925
32.2023
30.5648
29.152
27.9382
26.8996
26.0145
25.2634
24.6285
24.0941
23.6461
23.2721
22.961
22.7034
22.4909
22.3163
22.1735
22.0571
21.9626
21.8862
21.8248
21.7756
21.7364
21.7052
21.6807
21.6615
21.6466
21.6352
21.6266
21.6203
21.6159
21.6131
21.6116
21.6112
21.6119
21.6135
21.616
21.6195
21.6238
21.6292
21.6356
21.6431
21.6519
21.662
21.6736
21.6869
21.702
21.719
21.7382
21.7598
21.7839
21.8108
21.8406
21.8735
21.9099
21.9499
21.9936
22.0414
22.0934
22.1498
22.2107
22.2764
22.347
22.4225
22.5032
22.589
22.6797
22.7734
389.989
369.985
350.122
330.477
311.129
292.158
273.635
255.63
238.204
221.411
205.298
189.905
175.263
161.395
148.318
136.039
124.558
113.871
103.964
94.8211
86.4179
78.7281
71.7209
65.3629
59.6184
54.4501
49.82
45.6893
42.0198
38.7736
35.9139
33.4052
31.2136
29.3071
27.6553
26.2301
25.0056
23.9578
23.0649
22.3071
21.6666
21.1275
20.6755
20.2981
19.9842
19.7243
19.5098
19.3337
19.1895
19.072
18.9767
18.8996
18.8376
18.7879
18.7483
18.7169
18.6921
18.6726
18.6575
18.646
18.6372
18.6308
18.6262
18.6232
18.6215
18.6209
18.6213
18.6227
18.6249
18.6279
18.6319
18.6367
18.6426
18.6494
18.6575
18.6667
18.6774
18.6895
18.7033
18.7189
18.7365
18.7562
18.7783
18.8029
18.8302
18.8604
18.8937
18.9303
18.9704
19.0141
19.0617
19.1134
19.1692
19.2294
19.294
19.3632
19.4372
19.5158
19.5989
19.6847
389.923
369.786
349.792
330.016
310.54
291.442
272.796
254.67
237.126
220.219
203.997
188.499
173.756
159.793
146.624
134.259
122.699
111.936
101.959
92.7503
84.2869
76.5416
69.4837
63.0794
57.2929
52.0867
47.4224
43.2611
39.5643
36.2938
33.4127
30.8851
28.677
26.7559
25.0915
23.6555
22.4216
21.3658
20.466
19.7023
19.0569
18.5135
18.058
17.6776
17.3613
17.0993
16.8832
16.7056
16.5603
16.4419
16.3458
16.2681
16.2055
16.1554
16.1154
16.0837
16.0587
16.039
16.0238
16.012
16.0031
15.9965
15.9918
15.9886
15.9867
15.986
15.9862
15.9872
15.9891
15.9918
15.9954
15.9997
16.005
16.0113
16.0185
16.027
16.0366
16.0477
16.0603
16.0745
16.0905
16.1085
16.1286
16.151
16.1758
16.2033
16.2337
16.267
16.3035
16.3434
16.3868
16.4338
16.4847
16.5395
16.5984
16.6615
16.7289
16.8006
16.8764
16.9545
389.865
369.612
349.501
329.612
310.023
290.813
272.058
253.826
236.179
219.172
202.854
187.263
172.432
158.385
145.137
132.697
121.065
110.237
100.198
90.9325
82.4163
74.6225
67.5201
61.0753
55.252
50.0126
45.3183
41.1302
37.4095
34.1178
31.2179
28.6738
26.4511
24.5174
22.842
21.3964
20.1543
19.0914
18.1856
17.4168
16.767
16.2199
15.7613
15.3783
15.0598
14.796
14.5784
14.3996
14.2533
14.134
14.0373
13.959
13.896
13.8455
13.8053
13.7733
13.748
13.7282
13.7128
13.7009
13.6919
13.6851
13.6803
13.6769
13.6749
13.6739
13.6739
13.6747
13.6763
13.6786
13.6818
13.6857
13.6904
13.6961
13.7026
13.7102
13.719
13.729
13.7404
13.7533
13.7678
13.7841
13.8023
13.8226
13.8451
13.87
13.8975
13.9278
13.9609
13.997
14.0363
14.079
14.1251
14.1748
14.2282
14.2854
14.3465
14.4115
14.4802
14.5511
389.814
369.459
349.248
329.257
309.569
290.263
271.412
253.087
235.35
218.256
201.854
186.183
171.275
157.154
143.837
131.331
119.638
108.751
98.659
89.3434
80.7812
72.945
65.8039
59.3238
53.4684
48.1999
43.4796
39.2681
35.5265
32.2163
29.3
26.7415
24.5061
22.5614
20.8763
19.4225
18.1732
17.1041
16.193
15.4197
14.7661
14.2158
13.7545
13.3692
13.0489
12.7835
12.5646
12.3847
12.2375
12.1175
12.0201
11.9414
11.878
11.8272
11.7867
11.7545
11.729
11.709
11.6935
11.6815
11.6723
11.6654
11.6604
11.6569
11.6547
11.6535
11.6533
11.6539
11.6552
11.6572
11.66
11.6635
11.6677
11.6728
11.6787
11.6855
11.6934
11.7024
11.7127
11.7243
11.7373
11.752
11.7684
11.7867
11.8071
11.8295
11.8543
11.8816
11.9114
11.944
11.9795
12.0179
12.0595
12.1043
12.1525
12.2041
12.2592
12.3179
12.3799
12.4438
389.769
369.326
349.026
328.949
309.174
289.783
270.85
252.444
234.628
217.459
200.983
185.241
170.266
156.082
142.704
130.141
118.394
107.458
97.319
87.9601
79.3579
71.485
64.3102
57.7993
51.9161
46.6225
41.8794
37.6477
33.888
30.5616
27.6311
25.06
22.8137
20.8593
19.1659
17.7048
16.4493
15.3748
14.4591
13.682
13.025
12.4719
12.0082
11.621
11.299
11.0323
10.8122
10.6314
10.4834
10.3628
10.2649
10.1858
10.122
10.0709
10.0302
9.99777
9.97217
9.95205
9.93635
9.9242
9.91492
9.90793
9.9028
9.89918
9.89681
9.89548
9.89504
9.89539
9.89645
9.89818
9.90058
9.90365
9.9074
9.9119
9.91717
9.9233
9.93037
9.93844
9.94763
9.95803
9.96976
9.98293
9.99765
10.0141
10.0323
10.0525
10.0747
10.0991
10.1259
10.1551
10.187
10.2215
10.2588
10.299
10.3423
10.3886
10.438
10.4907
10.5463
10.6037
389.731
369.21
348.834
328.681
308.832
289.367
270.362
251.886
234.002
216.766
200.227
184.425
169.392
155.152
141.722
129.11
117.317
106.337
96.1574
86.761
78.1242
70.2194
63.0155
56.4781
50.5708
45.2553
40.4927
36.2434
32.468
29.1277
26.1849
23.6029
21.3471
19.3844
17.6838
16.2164
14.9554
13.8764
12.9567
12.1761
11.5163
10.9608
10.4951
10.1062
9.78272
9.51479
9.29375
9.11213
8.96349
8.84233
8.74397
8.66445
8.60042
8.54908
8.5081
8.47553
8.44978
8.42953
8.41371
8.40146
8.39207
8.38497
8.37973
8.37598
8.37347
8.37198
8.37136
8.37149
8.3723
8.37375
8.37582
8.3785
8.38181
8.38579
8.39047
8.39593
8.40222
8.40942
8.41761
8.42689
8.43736
8.4491
8.46225
8.47689
8.49316
8.51116
8.53101
8.55282
8.57673
8.60283
8.63123
8.66205
8.69537
8.73129
8.7699
8.81126
8.85544
8.90246
8.95219
9.0034
389.698
369.11
348.668
328.449
308.536
289.007
269.94
251.403
233.461
216.169
199.575
183.72
168.637
154.349
140.874
128.219
116.386
105.369
95.1546
85.7259
77.0593
69.1271
61.898
55.3378
49.4097
44.0755
39.2959
35.0315
31.2425
27.8903
24.9368
22.3455
20.0815
18.1116
16.4047
14.9319
13.6663
12.5832
11.6602
10.8767
10.2144
9.65681
9.18931
8.79892
8.47423
8.20528
7.98339
7.80106
7.65184
7.53021
7.43146
7.35162
7.28733
7.23577
7.19461
7.16189
7.13601
7.11565
7.09973
7.08738
7.07789
7.0707
7.06535
7.06149
7.05885
7.05721
7.05642
7.05635
7.05694
7.05812
7.05988
7.0622
7.0651
7.0686
7.07273
7.07756
7.08313
7.08952
7.09679
7.10503
7.11432
7.12475
7.13642
7.14942
7.16387
7.17986
7.19749
7.21687
7.2381
7.26129
7.28652
7.3139
7.34351
7.37543
7.40974
7.4465
7.48576
7.52756
7.57176
7.61726
389.669
369.025
348.525
328.25
308.281
288.698
269.577
250.989
232.996
215.654
199.014
183.114
167.987
153.659
140.145
127.454
115.586
104.536
94.2925
84.8361
76.1438
68.1881
60.9376
54.3576
48.4117
43.0614
38.2673
33.9899
30.1894
26.8268
23.8642
21.2649
18.9938
17.0177
15.3055
13.8281
12.5585
11.472
10.5459
9.75995
9.09552
8.53615
8.06714
7.67547
7.34973
7.07989
6.85727
6.67434
6.52462
6.40258
6.3035
6.22338
6.15886
6.10712
6.0658
6.03295
6.00696
5.9865
5.9705
5.95806
5.94848
5.9412
5.93576
5.9318
5.92903
5.92726
5.92631
5.92606
5.92644
5.92737
5.92884
5.93083
5.93335
5.93641
5.94004
5.94429
5.9492
5.95483
5.96125
5.96853
5.97673
5.98595
5.99626
6.00776
6.02053
6.03466
6.05024
6.06737
6.08614
6.10664
6.12895
6.15316
6.17934
6.20756
6.2379
6.27041
6.30514
6.34211
6.38121
6.42146
389.645
368.951
348.403
328.08
308.063
288.433
269.267
250.633
232.597
215.214
198.533
182.594
167.431
153.068
139.521
126.798
114.901
103.824
93.5545
84.0743
75.3602
67.3844