/*--------------------------------*- C++ -*----------------------------------*\
  =========                 |
  \\      /  F ield         | OpenFOAM: The Open Source CFD Toolbox
   \\    /   O peration     | Website:  https://openfoam.org
    \\  /    A nd           | Version:  10
     \\/     M anipulation  |
\*---------------------------------------------------------------------------*/
FoamFile
{
    format      ascii;
    class       volScalarField;
    location    "2.5";
    object      ddt0(T);
}
// * * * * * * * * * * * * * * * * * * * * * * * * * * * * * * * * * * * * * //

dimensions      [0 0 -1 1 0 0 0];

internalField   nonuniform List<scalar> 
10000
(
7763.63
4039.41
3947.39
4005.85
4027.93
4034.33
4036.2
4036.83
4037.11
4037.27
4037.4
4037.51
4037.61
4037.7
4037.77
4037.84
4037.9
4037.95
4037.98
4038.01
4038.03
4038.05
4038.06
4038.06
4038.05
4038.04
4038.03
4038.01
4037.99
4037.97
4037.95
4037.92
4037.9
4037.87
4037.84
4037.82
4037.79
4037.77
4037.75
4037.73
4037.71
4037.69
4037.67
4037.65
4037.64
4037.62
4037.61
4037.6
4037.59
4037.58
4037.57
4037.57
4037.56
4037.56
4037.55
4037.55
4037.54
4037.54
4037.54
4037.54
4037.54
4037.53
4037.53
4037.53
4037.53
4037.53
4037.53
4037.53
4037.53
4037.53
4037.53
4037.53
4037.53
4037.53
4037.53
4037.53
4037.53
4037.53
4037.53
4037.53
4037.53
4037.53
4037.53
4037.52
4037.52
4037.52
4037.52
4037.52
4037.52
4037.52
4037.51
4037.51
4037.5
4037.48
4037.37
4036.91
4035.01
4029.93
4056.6
4804.04
4647.44
-679.727
-720.961
-566.35
-507.751
-490.191
-484.959
-483.185
-482.397
-481.91
-481.53
-481.202
-480.911
-480.652
-480.423
-480.225
-480.055
-479.914
-479.801
-479.713
-479.65
-479.609
-479.588
-479.586
-479.6
-479.629
-479.67
-479.72
-479.78
-479.846
-479.916
-479.99
-480.067
-480.144
-480.22
-480.296
-480.369
-480.44
-480.508
-480.573
-480.633
-480.69
-480.742
-480.791
-480.836
-480.876
-480.913
-480.946
-480.976
-481.002
-481.026
-481.047
-481.065
-481.081
-481.095
-481.107
-481.117
-481.126
-481.134
-481.14
-481.145
-481.15
-481.153
-481.156
-481.159
-481.161
-481.163
-481.164
-481.165
-481.166
-481.166
-481.167
-481.167
-481.167
-481.168
-481.168
-481.169
-481.169
-481.17
-481.171
-481.172
-481.174
-481.175
-481.177
-481.18
-481.183
-481.186
-481.19
-481.194
-481.199
-481.205
-481.215
-481.233
-481.291
-481.508
-482.385
-485.799
-497.06
-514.786
-358.899
4545.27
-747.615
-668.888
-453.847
-373.265
-348.565
-341.002
-338.355
-337.132
-336.35
-335.728
-335.188
-334.706
-334.276
-333.897
-333.567
-333.286
-333.052
-332.864
-332.718
-332.612
-332.544
-332.51
-332.506
-332.53
-332.577
-332.645
-332.729
-332.828
-332.937
-333.055
-333.178
-333.304
-333.432
-333.56
-333.685
-333.808
-333.926
-334.039
-334.146
-334.247
-334.341
-334.429
-334.509
-334.584
-334.651
-334.712
-334.768
-334.817
-334.861
-334.9
-334.935
-334.965
-334.992
-335.015
-335.035
-335.052
-335.067
-335.08
-335.09
-335.099
-335.106
-335.113
-335.118
-335.122
-335.125
-335.128
-335.13
-335.131
-335.133
-335.134
-335.135
-335.135
-335.136
-335.136
-335.137
-335.138
-335.139
-335.14
-335.142
-335.144
-335.146
-335.149
-335.152
-335.156
-335.161
-335.166
-335.172
-335.179
-335.187
-335.197
-335.21
-335.234
-335.294
-335.488
-336.186
-338.725
-347.161
-367.713
-360.425
4588.52
-622.158
-486.379
-244.832
-154.026
-125.65
-116.715
-113.458
-111.875
-110.822
-109.97
-109.223
-108.556
-107.961
-107.436
-106.98
-106.591
-106.268
-106.007
-105.806
-105.661
-105.568
-105.522
-105.518
-105.552
-105.619
-105.714
-105.833
-105.971
-106.124
-106.289
-106.461
-106.638
-106.817
-106.995
-107.171
-107.342
-107.507
-107.665
-107.814
-107.955
-108.087
-108.21
-108.322
-108.426
-108.52
-108.606
-108.683
-108.752
-108.814
-108.869
-108.917
-108.96
-108.997
-109.029
-109.057
-109.081
-109.101
-109.119
-109.134
-109.146
-109.157
-109.165
-109.172
-109.178
-109.183
-109.186
-109.189
-109.191
-109.193
-109.195
-109.196
-109.197
-109.197
-109.198
-109.199
-109.2
-109.202
-109.203
-109.205
-109.208
-109.211
-109.215
-109.22
-109.225
-109.231
-109.239
-109.247
-109.257
-109.268
-109.281
-109.298
-109.324
-109.376
-109.511
-109.918
-111.222
-115.262
-125.339
-132.285
4606.05
-573.396
-417.475
-166.072
-71.0642
-40.9542
-31.2391
-27.5497
-25.6639
-24.3612
-23.2881
-22.3427
-21.4964
-20.7413
-20.0751
-19.4965
-19.0037
-18.5942
-18.2648
-18.0112
-17.8287
-17.7119
-17.6553
-17.6527
-17.6982
-17.7856
-17.9089
-18.0623
-18.2403
-18.4375
-18.6492
-18.8708
-19.0983
-19.3281
-19.5571
-19.7825
-20.002
-20.2138
-20.4163
-20.6083
-20.7891
-20.9582
-21.1151
-21.2599
-21.3926
-21.5137
-21.6234
-21.7223
-21.811
-21.8901
-21.9603
-22.0222
-22.0766
-22.1242
-22.1655
-22.2013
-22.2321
-22.2584
-22.2808
-22.2997
-22.3157
-22.3289
-22.34
-22.349
-22.3564
-22.3623
-22.367
-22.3707
-22.3737
-22.3759
-22.3777
-22.3791
-22.3802
-22.3812
-22.3822
-22.3834
-22.3847
-22.3863
-22.3884
-22.3909
-22.3941
-22.3981
-22.4029
-22.4086
-22.4154
-22.4234
-22.4327
-22.4433
-22.4555
-22.4695
-22.4857
-22.5056
-22.5331
-22.5794
-22.6751
-22.9037
-23.4988
-25.0807
-28.6582
-32.2862
4611.29
-558.6
-396.237
-141.366
-44.6646
-13.7106
-3.51563
0.504434
2.65656
4.1924
5.47603
6.61253
7.63139
8.54054
9.34234
10.0383
10.6305
11.1219
11.5167
11.8197
12.0368
12.1745
12.2395
12.2391
12.1808
12.0717
11.9193
11.7305
11.5122
11.2705
11.0116
10.7407
10.4627
10.1821
9.90271
9.62775
9.36004
9.10185
8.85502
8.62095
8.40062
8.1947
8.00353
7.82718
7.66548
7.51809
7.3845
7.26408
7.15612
7.05983
6.9744
6.89898
6.83275
6.77487
6.72454
6.68102
6.64358
6.61153
6.58427
6.56122
6.54185
6.52568
6.51229
6.50129
6.49234
6.48513
6.47938
6.47486
6.47133
6.4686
6.46649
6.46484
6.46349
6.46231
6.46114
6.45987
6.45836
6.45649
6.45412
6.45114
6.44741
6.4428
6.43719
6.43045
6.42244
6.41303
6.40209
6.3895
6.37509
6.35866
6.3398
6.3175
6.28888
6.24634
6.17154
6.02501
5.72701
5.12162
4.04744
2.81319
4612.87
-554.114
-389.65
-133.492
-36.0331
-4.6032
5.93273
10.2293
12.6235
14.3786
15.8626
17.1817
18.3653
19.4213
20.3521
21.1593
21.8454
22.4138
22.8694
23.218
23.4663
23.6218
23.6926
23.6872
23.6141
23.482
23.2993
23.0743
22.8149
22.5285
22.2219
21.9016
21.5733
21.2421
20.9124
20.5882
20.2726
19.9684
19.6776
19.4019
19.1425
18.9
18.675
18.4675
18.2772
18.1038
17.9466
17.805
17.678
17.5647
17.4643
17.3756
17.2977
17.2296
17.1705
17.1193
17.0753
17.0376
17.0056
16.9785
16.9557
16.9367
16.921
16.908
16.8975
16.8891
16.8823
16.877
16.8729
16.8697
16.8673
16.8654
16.8639
16.8625
16.8613
16.8599
16.8582
16.8562
16.8536
16.8503
16.8461
16.841
16.8347
16.8271
16.8181
16.8074
16.795
16.7808
16.7644
16.7459
16.7247
16.7005
16.6712
16.6322
16.5717
16.4662
16.2807
15.9883
15.6623
15.4118
4613.42
-552.541
-387.273
-130.533
-32.6506
-0.891545
9.9211
14.4634
17.082
19.0436
20.7174
22.2094
23.5489
24.7437
25.796
26.7076
27.4812
28.1209
28.6323
29.0218
29.2973
29.4673
29.5411
29.5281
29.4383
29.2814
29.0672
28.805
28.5037
28.172
27.8177
27.4479
27.0692
26.6875
26.3079
25.9347
25.5717
25.2218
24.8875
24.5707
24.2726
23.9942
23.7358
23.4974
23.279
23.08
22.8996
22.737
22.5913
22.4614
22.3461
22.2444
22.1551
22.077
22.0091
21.9505
21.9
21.8568
21.82
21.7889
21.7628
21.741
21.723
21.7082
21.6961
21.6864
21.6787
21.6727
21.668
21.6644
21.6616
21.6595
21.6579
21.6564
21.6551
21.6536
21.6519
21.6498
21.647
21.6435
21.639
21.6335
21.6267
21.6184
21.6085
21.5969
21.5833
21.5676
21.5497
21.5293
21.5062
21.4801
21.45
21.4132
21.3623
21.2806
21.1406
20.926
20.7514
20.9324
4613.67
-551.805
-386.12
-129.026
-30.8417
1.18476
12.2409
17.0084
19.8362
21.9918
23.844
25.4984
26.9842
28.3086
29.4741
30.4824
31.3366
32.0414
32.6028
33.0284
33.3268
33.5075
33.5809
33.5578
33.449
33.2655
33.0183
32.7178
32.374
31.9965
31.594
31.1747
30.7458
30.3138
29.8845
29.4628
29.0528
28.6578
28.2805
27.9231
27.587
27.273
26.9817
26.7131
26.467
26.2427
26.0396
25.8565
25.6924
25.5461
25.4163
25.3018
25.2012
25.1134
25.037
24.9709
24.9141
24.8655
24.8241
24.7892
24.7598
24.7353
24.715
24.6983
24.6848
24.6739
24.6652
24.6584
24.6532
24.6492
24.6461
24.6438
24.6421
24.6406
24.6392
24.6378
24.636
24.6338
24.631
24.6274
24.6228
24.617
24.6098
24.601
24.5906
24.5782
24.5637
24.5469
24.5276
24.5058
24.481
24.4533
24.422
24.3857
24.34
24.2723
24.1538
23.9471
23.7423
24.1932
4613.84
-551.326
-385.347
-127.982
-29.545
2.71762
13.9956
18.9715
21.9943
24.3308
26.3493
28.155
29.7765
31.2208
32.4904
33.5871
34.5144
35.2775
35.883
36.3392
36.6558
36.8432
36.9129
36.8765
36.7464
36.5345
36.2528
35.9128
35.5257
35.1019
34.6511
34.1821
33.7031
33.2212
32.7426
32.2728
31.8163
31.3768
30.9572
30.5598
30.1861
29.8373
29.5137
29.2154
28.9421
28.6931
28.4676
28.2644
28.0824
27.92
27.7761
27.649
27.5375
27.44
27.3553
27.2821
27.219
27.1651
27.1193
27.0805
27.0479
27.0207
26.9982
26.9798
26.9647
26.9527
26.9431
26.9356
26.9298
26.9254
26.9222
26.9197
26.9178
26.9164
26.915
26.9136
26.9119
26.9098
26.907
26.9034
26.8987
26.8928
26.8854
26.8764
26.8656
26.8527
26.8375
26.82
26.7998
26.7768
26.7508
26.7217
26.6891
26.6525
26.6091
26.5491
26.4426
26.2279
25.9448
26.6155
4613.97
-550.941
-384.717
-127.115
-28.4533
4.02418
15.5063
20.6749
23.8781
26.3821
28.5542
30.4992
32.2452
33.7991
35.1632
36.3396
37.332
38.1462
38.7894
39.2706
39.6005
39.7903
39.8526
39.8001
39.6461
39.4038
39.086
38.7055
38.2743
37.8037
37.3043
36.7857
36.2568
35.7252
35.1979
34.6805
34.1781
33.6947
33.2334
32.7967
32.3863
32.0032
31.648
31.3206
31.0207
30.7476
30.5002
30.2774
30.0777
29.8997
29.7419
29.6027
29.4804
29.3736
29.2808
29.2005
29.1314
29.0724
29.0221
28.9796
28.9439
28.9142
28.8895
28.8693
28.8528
28.8396
28.8292
28.821
28.8147
28.81
28.8065
28.8039
28.802
28.8005
28.7992
28.7979
28.7964
28.7944
28.7917
28.7882
28.7836
28.7777
28.7704
28.7613
28.7503
28.7372
28.7217
28.7037
28.6829
28.6592
28.6324
28.6023
28.5688
28.5315
28.4888
28.4331
28.3344
28.1117
27.7464
28.6059
4614.08
-550.604
-384.16
-126.346
-27.4786
5.19563
16.8652
22.2108
25.5797
28.237
30.5495
32.6213
34.4802
36.1328
37.5814
38.8284
39.8777
40.7355
41.4097
41.9102
42.2482
42.4361
42.4872
42.4156
42.2352
41.9604
41.6051
41.1829
40.7068
40.189
39.6408
39.0727
38.4941
37.9133
37.3376
36.7734
36.2258
35.6992
35.197
34.7218
34.2753
33.8587
33.4725
33.1167
32.7908
32.4941
32.2255
31.9835
31.7667
31.5735
31.4022
31.251
31.1184
31.0025
30.9017
30.8146
30.7397
30.6756
30.6211
30.575
30.5363
30.504
30.4773
30.4553
30.4375
30.4232
30.4119
30.4031
30.3963
30.3912
30.3875
30.3848
30.3829
30.3815
30.3803
30.3792
30.3778
30.376
30.3736
30.3703
30.3659
30.3603
30.3531
30.3441
30.3332
30.3201
30.3046
30.2865
30.2655
30.2415
30.2143
30.1837
30.1497
30.1119
30.0696
30.0163
29.9233
29.6962
29.2615
30.2766
4614.18
-550.3
-383.657
-125.65
-26.5963
6.2573
18.0976
23.6044
27.1237
29.9199
32.3592
34.545
36.5047
38.245
39.7679
41.076
42.1737
43.0675
43.7661
44.2798
44.6208
44.8023
44.8387
44.7446
44.5354
44.2262
43.8318
43.3669
42.8452
42.2798
41.6828
41.0653
40.4373
39.8077
39.1844
38.5739
37.9819
37.4129
36.8706
36.3576
35.8759
35.4266
35.0102
34.6267
34.2755
33.9559
33.6665
33.4059
33.1725
32.9645
32.7801
32.6174
32.4746
32.3499
32.2415
32.1478
32.0672
31.9982
31.9396
31.89
31.8484
31.8136
31.7848
31.7613
31.7421
31.7267
31.7146
31.7051
31.6979
31.6925
31.6886
31.6859
31.684
31.6826
31.6816
31.6807
31.6796
31.6781
31.6759
31.673
31.669
31.6636
31.6568
31.6482
31.6376
31.6248
31.6095
31.5916
31.5708
31.5469
31.5198
31.4892
31.4551
31.4173
31.3753
31.3239
31.2356
31.0079
30.5221
31.6569
4614.27
-550.026
-383.204
-125.022
-25.7997
7.21578
19.2101
24.8619
28.5163
31.4368
33.9889
36.2757
38.3241
40.1407
41.7276
43.0874
44.2249
45.1471
45.8631
46.3841
46.723
46.8937
46.9115
46.7921
46.5515
46.2059
45.7711
45.2624
44.6945
44.0812
43.4353
42.7686
42.0917
41.4139
40.7436
40.0876
39.452
38.8416
38.26
37.7102
37.1941
36.7129
36.2671
35.8567
35.481
35.139
34.8295
34.5509
34.3014
34.079
33.8819
33.7081
33.5555
33.4223
33.3065
33.2064
33.1203
33.0467
32.984
32.931
32.8866
32.8494
32.8187
32.7935
32.7731
32.7567
32.7437
32.7337
32.726
32.7204
32.7163
32.7135
32.7116
32.7104
32.7096
32.7089
32.7081
32.7069
32.7052
32.7027
32.6991
32.6943
32.6879
32.6799
32.6698
32.6575
32.6428
32.6254
32.6052
32.5818
32.5552
32.525
32.4913
32.454
32.4127
32.3631
32.279
32.054
31.5364
32.7547
4614.36
-549.781
-382.798
-124.46
-25.0872
8.07289
20.2045
25.9851
29.759
32.7891
35.4402
37.8148
39.9398
41.8214
43.4618
44.8639
46.0328
46.9757
47.7025
48.2249
48.5565
48.7121
48.7077
48.5599
48.2857
47.9019
47.4253
46.8719
46.2573
45.5959
44.9012
44.1857
43.4603
42.735
42.0184
41.3179
40.6396
39.9886
39.3688
38.7831
38.2335
37.7213
37.247
36.8104
36.4109
36.0474
35.7184
35.4223
35.1572
34.921
34.7117
34.5271
34.3651
34.2236
34.1007
33.9944
33.903
33.8248
33.7583
33.7021
33.6549
33.6155
33.5829
33.5562
33.5345
33.5171
33.5034
33.4927
33.4847
33.4787
33.4745
33.4717
33.4699
33.4688
33.4682
33.4678
33.4674
33.4666
33.4654
33.4634
33.4604
33.4561
33.4505
33.4431
33.4338
33.4223
33.4084
33.3918
33.3724
33.3499
33.3242
33.2949
33.2622
33.2258
33.1856
33.138
33.058
32.8386
32.3071
33.5749
4614.43
-549.564
-382.439
-123.964
-24.4576
8.82975
21.0818
26.9752
30.8533
33.9784
36.7146
39.1641
41.3536
43.2891
44.9729
46.408
47.5998
48.556
49.287
49.805
50.1244
50.2607
50.2307
50.0518
49.7416
49.318
48.7983
48.1995
47.5378
46.8282
46.085
45.3209
44.5477
43.7757
43.0137
42.2695
41.5495
40.859
40.2019
39.5813
38.9993
38.4571
37.9551
37.4932
37.0707
36.6863
36.3386
36.0257
35.7455
35.496
35.2749
35.0799
34.9088
34.7594
34.6296
34.5174
34.4209
34.3384
34.2682
34.2089
34.159
34.1174
34.083
34.0548
34.0319
34.0136
33.9991
33.9879
33.9794
33.9732
33.9689
33.966
33.9643
33.9634
33.9631
33.963
33.9629
33.9627
33.962
33.9606
33.9582
33.9547
33.9498
33.9433
33.9349
33.9244
33.9115
33.8961
33.8779
33.8566
33.8321
33.8043
33.7729
33.738
33.6994
33.6539
33.5783
33.3671
32.837
34.1237
4614.49
-549.376
-382.127
-123.531
-23.9096
9.48805
21.8442
27.8345
31.8017
35.0074
37.8152
40.327
42.5691
44.5477
46.2649
47.724
48.9306
49.8929
50.6217
51.1299
51.4324
51.5455
51.4865
51.2738
50.9257
50.4606
49.8969
49.2521
48.543
47.7853
46.9938
46.1819
45.3615
44.5435
43.7371
42.9503
42.1897
41.4606
40.7673
40.1129
39.4995
38.9282
38.3996
37.9133
37.4686
37.0641
36.6983
36.3692
36.0746
35.8123
35.5799
35.3749
35.1951
35.0381
34.9017
34.7839
34.6825
34.5958
34.522
34.4597
34.4073
34.3636
34.3274
34.2978
34.2738
34.2545
34.2393
34.2276
34.2188
34.2123
34.2079
34.205
34.2033
34.2026
34.2026
34.2028
34.2032
34.2035
34.2033
34.2026
34.201
34.1983
34.1943
34.1888
34.1815
34.1721
34.1605
34.1464
34.1296
34.1099
34.0871
34.0609
34.0314
33.9984
33.9618
33.919
33.8479
33.6471
33.1312
34.4103
4614.55
-549.215
-381.859
-123.161
-23.441
10.0504
22.4946
28.5665
32.6082
35.8805
38.7468
41.3086
43.5921
45.6032
47.3442
48.8187
50.0323
50.9939
51.7145
52.2076
52.4888
52.5749
52.484
52.235
51.8471
51.3394
50.7308
50.0395
49.2829
48.4773
47.638
46.7788
45.9121
45.0491
44.1993
43.3709
42.5708
41.8044
41.0761
40.389
39.7452
39.1459
38.5915
38.0817
37.6157
37.192
36.8088
36.4641
36.1557
35.8811
35.6378
35.4234
35.2352
35.071
34.9283
34.805
34.6989
34.6082
34.5311
34.4659
34.4111
34.3653
34.3275
34.2965
34.2714
34.2512
34.2354
34.2231
34.2139
34.2072
34.2027
34.1998
34.1983
34.1977
34.1979
34.1986
34.1994
34.2002
34.2007
34.2007
34.1999
34.1981
34.1951
34.1907
34.1845
34.1765
34.1663
34.1538
34.1387
34.1208
34.0999
34.0758
34.0484
34.0177
33.9837
33.9438
33.8778
33.6892
33.1973
34.4469
4614.59
-549.079
-381.635
-122.852
-23.049
10.5203
23.0372
29.176
33.278
36.6037
39.516
42.116
44.4299
46.4636
48.2194
49.701
50.9144
51.8687
52.5755
53.0487
53.3044
53.3601
53.2346
52.9473
52.518
51.9665
51.3123
50.5742
49.7702
48.9171
48.0305
47.1248
46.2128
45.3058
44.4137
43.5449
42.7065
41.904
41.1418
40.4232
39.7501
39.1239
38.5448
38.0125
37.526
37.0838
36.684
36.3245
36.0028
35.7165
35.4628
35.2392
35.0431
34.872
34.7233
34.5948
34.4843
34.3898
34.3094
34.2414
34.1843
34.1367
34.0973
34.0649
34.0387
34.0177
34.0012
33.9885
33.9789
33.972
33.9674
33.9645
33.963
33.9627
33.9632
33.9642
33.9655
33.9669
33.968
33.9687
33.9688
33.9679
33.966
33.9628
33.9579
33.9514
33.9428
33.932
33.9187
33.9028
33.8841
33.8624
33.8375
33.8095
33.7783
33.7416
33.681
33.5063
33.0458
34.2483
4614.63
-548.969
-381.452
-122.599
-22.7298
10.9022
23.4772
29.6688
33.8178
37.1842
40.1306
42.7579
45.092
47.1388
48.9009
50.3819
51.5882
52.5293
53.217
53.6658
53.8924
53.9147
53.7521
53.4246
52.9526
52.3565
51.6563
50.8714
50.0201
49.12
48.1869
47.2356
46.2792
45.3294
44.3962
43.4884
42.6129
41.7755
40.9807
40.2317
39.5305
38.8784
38.2757
37.7218
37.2157
36.7558
36.3402
35.9665
35.6322
35.3347
35.0712
34.8389
34.6353
34.4575
34.3031
34.1697
34.0549
33.9568
33.8733
33.8028
33.7435
33.694
33.653
33.6195
33.5922
33.5704
33.5533
33.54
33.5302
33.5231
33.5183
33.5154
33.5141
33.5139
33.5147
33.5161
33.5178
33.5197
33.5215
33.523
33.5239
33.5241
33.5233
33.5213
33.5178
33.5128
33.5059
33.4969
33.4857
33.472
33.4557
33.4365
33.4144
33.3893
33.3612
33.3282
33.2733
33.1135
32.6894
33.8316
4614.66
-548.882
-381.308
-122.4
-22.4793
11.2012
23.8207
30.0519
34.2353
37.6306
40.5999
43.2441
45.5889
47.6402
49.4006
50.874
52.067
52.9893
53.6532
54.0737
54.2678
54.254
54.0522
53.683
53.1673
52.526
51.7796
50.9479
50.0499
49.1034
48.1247
47.1288
46.1292
45.1378
44.1648
43.2191
42.3079
41.437
40.6108
39.8327
39.1046
38.4278
37.8024
37.2279
36.7031
36.2264
35.7957
35.4085
35.0622
34.7541
34.4812
34.2408
34.0299
33.8459
33.686
33.5479
33.4292
33.3276
33.2412
33.1682
33.1068
33.0556
33.0132
32.9784
32.9502
32.9276
32.9098
32.8962
32.8859
32.8786
32.8737
32.8709
32.8696
32.8696
32.8707
32.8724
32.8746
32.8771
32.8796
32.8818
32.8836
32.8848
32.8851
32.8844
32.8824
32.8789
32.8737
32.8667
32.8576
32.8462
32.8324
32.8159
32.7967
32.7748
32.7501
32.7208
32.6719
32.5277
32.1433
33.2156
4614.68
-548.817
-381.2
-122.252
-22.2925
11.4232
24.0742
30.3329
34.5392
37.9523
40.9344
43.5859
45.9326
47.9805
49.732
51.1913
52.3653
53.2639
53.8999
54.2885
54.4472
54.3951
54.1524
53.7403
53.1801
52.4932
51.7006
50.8226
49.8784
48.8863
47.8629
46.8236
45.782
44.7503
43.7389
42.7568
41.8112
40.9081
40.0519
39.2459
38.4921
37.7917
37.1447
36.5506
36.0081
35.5154
35.0703
34.6703
34.3127
33.9945
33.7127
33.4645
33.2468
33.0569
32.892
32.7494
32.6269
32.5221
32.4329
32.3575
32.2941
32.2413
32.1975
32.1616
32.1324
32.1091
32.0907
32.0766
32.066
32.0585
32.0535
32.0506
32.0494
32.0496
32.0509
32.053
32.0557
32.0587
32.0618
32.0648
32.0674
32.0696
32.0711
32.0716
32.071
32.0692
32.0658
32.0608
32.0538
32.0448
32.0336
32.02
32.0039
31.9852
31.964
31.9387
31.8958
31.7674
31.4242
32.4205
4614.7
-548.772
-381.125
-122.15
-22.1645
11.5743
24.2452
30.5201
34.7386
38.1596
41.1451
43.7953
46.136
48.1731
49.9093
51.3488
52.4988
53.3694
53.9737
54.3275
54.4484
54.356
54.0711
53.6152
53.01
52.2775
51.439
50.5151
49.5256
48.4889
47.422
46.3404
45.2582
44.1876
43.1393
42.1221
41.1436
40.2096
39.3247
38.4921
37.7139
36.991
36.3235
35.7108
35.1514
34.6436
34.1849
33.7729
33.4044
33.0767
32.7866
32.531
32.3069
32.1114
31.9417
31.795
31.6688
31.5609
31.4692
31.3916
31.3263
31.2719
31.2268
31.1898
31.1598
31.1357
31.1168
31.1022
31.0913
31.0836
31.0784
31.0755
31.0744
31.0747
31.0763
31.0787
31.0817
31.0852
31.0889
31.0927
31.0962
31.0993
31.1019
31.1037
31.1046
31.1043
31.1027
31.0997
31.0949
31.0883
31.0797
31.069
31.0559
31.0406
31.023
31.0017
30.9648
30.8523
30.5502
31.4676
4614.71
-548.745
-381.081
-122.089
-22.0897
11.6611
24.3412
30.6222
34.8433
38.2632
41.2436
43.8848
46.2124
48.2324
49.9475
51.3622
52.4838
53.3226
53.8922
54.2085
54.2897
54.1557
53.8276
53.3273
52.677
51.8991
51.0151
50.0461
49.0121
47.9319
46.8227
45.7004
44.579
43.4709
42.387
41.3363
40.3263
39.3629
38.4507
37.5928
36.7913
36.0471
35.3602
34.7299
34.1546
33.6325
33.161
32.7375
32.3589
32.0223
31.7243
31.4618
31.2317
31.0309
30.8566
30.706
30.5765
30.4657
30.3715
30.2918
30.2248
30.1688
30.1225
30.0845
30.0536
30.0288
30.0093
29.9943
29.9831
29.9752
29.9699
29.9669
29.9658
29.9663
29.968
29.9707
29.9742
29.9781
29.9824
29.9868
29.9911
29.9952
29.9989
30.0019
30.0042
30.0055
30.0056
30.0045
30.0019
29.9977
29.9917
29.9838
29.9739
29.962
29.9479
29.9306
29.8997
29.8024
29.5405
30.3784
4614.71
-548.735
-381.063
-122.066
-22.0626
11.6903
24.3701
30.6481
34.8632
38.274
41.242
43.8673
46.1756
48.1729
49.862
51.2475
52.3369
53.1409
53.6732
53.95
53.99
53.8132
53.4413
52.8964
52.2012
51.3782
50.4495
49.4364
48.3591
47.2366
46.0866
44.9248
43.7657
42.6217
41.5038
40.4211
39.3811
38.3897
37.4515
36.5697
35.7461
34.9818
34.2765
33.6295
33.0393
32.5037
32.0202
31.5859
31.1978
30.8527
30.5473
30.2784
30.0426
29.8369
29.6583
29.504
29.3714
29.2579
29.1614
29.0797
29.011
28.9537
28.9062
28.8672
28.8355
28.8101
28.79
28.7746
28.7631
28.7549
28.7495
28.7464
28.7454
28.7459
28.7478
28.7507
28.7545
28.7589
28.7637
28.7687
28.7738
28.7788
28.7834
28.7876
28.7912
28.794
28.7959
28.7966
28.7962
28.7943
28.7908
28.7858
28.7789
28.7702
28.7597
28.7464
28.7212
28.6385
28.4147
29.1745
4614.71
-548.738
-381.07
-122.076
-22.0778
11.6685
24.3397
30.6068
34.8085
38.2031
41.1521
43.7557
46.0393
48.0091
49.6679
51.0206
52.0748
52.8415
53.3344
53.5703
53.568
53.3479
52.9319
52.3426
51.6028
50.7355
49.7629
48.7067
47.5874
46.4241
45.2346
44.035
42.8397
41.6614
40.5111
39.3979
38.3294
37.3115
36.3487
35.4442
34.5998
33.8164
33.0939
32.4313
31.8269
31.2787
30.7838
30.3395
29.9425
29.5895
29.2772
29.0022
28.7611
28.5508
28.3683
28.2105
28.0749
27.9589
27.8602
27.7767
27.7065
27.6478
27.5992
27.5593
27.5268
27.5008
27.4802
27.4644
27.4525
27.4441
27.4385
27.4354
27.4343
27.4349
27.4369
27.44
27.4441
27.4489
27.4541
27.4597
27.4655
27.4713
27.4769
27.4821
27.487
27.4912
27.4947
27.4972
27.4987
27.4991
27.4981
27.4957
27.4918
27.4863
27.4792
27.4697
27.45
27.3809
27.1927
27.8773
4614.7
-548.755
-381.097
-122.115
-22.1295
11.6026
24.2579
30.5071
34.6889
38.0614
40.986
43.5627
45.8172
47.7555
49.3807
50.6976
51.7142
52.4415
52.8936
53.0875
53.0422
52.7786
52.3186
51.6853
50.9017
49.9909
48.9756
47.8776
46.7175
45.5149
44.2875
43.0517
41.8219
40.611
39.4298
38.2877
37.1921
36.1491
35.1631
34.2373
33.3733
32.5721
31.8334
31.1561
30.5385
29.9784
29.4729
29.0192
28.6139
28.2535
27.9348
27.654
27.408
27.1935
27.0072
26.8463
26.7079
26.5895
26.4888
26.4036
26.3319
26.272
26.2223
26.1815
26.1483
26.1216
26.1006
26.0843
26.0722
26.0635
26.0577
26.0545
26.0533
26.0539
26.056
26.0593
26.0636
26.0687
26.0744
26.0805
26.0869
26.0934
26.0998
26.1061
26.1121
26.1176
26.1226
26.1268
26.1302
26.1326
26.1339
26.1341
26.133
26.1305
26.1267
26.1208
26.1063
26.0498
25.894
26.5076
4614.69
-548.782
-381.142
-122.179
-22.2126
11.4989
24.1321
30.3578
34.5142
37.8596
40.7551
43.3008
45.5225
47.4261
49.0149
50.2938
51.2709
51.9575
52.3679
52.5192
52.4308
52.1236
51.6202
50.9434
50.1168
49.1638
48.107
46.9686
45.7694
44.529
43.2654
41.995
40.7324
39.4904
38.28
37.1106
35.9895
34.9229
33.9151
32.9691
32.0868
31.2689
30.5149
29.8239
29.194
28.6228
28.1075
27.645
27.2319
26.8647
26.5399
26.2539
26.0033
25.7848
25.5951
25.4311
25.2902
25.1696
25.067
24.9802
24.9071
24.8461
24.7954
24.7538
24.7199
24.6926
24.6711
24.6544
24.6419
24.633
24.627
24.6236
24.6224
24.623
24.6252
24.6286
24.633
24.6384
24.6444
24.6509
24.6578
24.6649
24.6722
24.6793
24.6863
24.6931
24.6994
24.7051
24.7103
24.7146
24.7181
24.7206
24.7221
24.7225
24.7218
24.7193
24.7095
24.6645
24.5379
25.0853
4614.68
-548.817
-381.201
-122.263
-22.3217
11.3637
23.9698
30.167
34.2936
37.6077
40.4705
42.982
45.1679
47.0343
48.5847
49.8239
50.7603
51.4053
51.7735
51.8821
51.7507
51.4006
50.8542
50.1351
49.2667
48.2726
47.1758
45.9985
44.7618
43.4854
42.1873
40.884
39.5903
38.3189
37.081
35.8857
34.7407
33.6519
32.6236
31.6588
30.7593
29.9257
29.1576
28.4538
27.8124
27.2309
26.7064
26.2358
25.8154
25.4419
25.1115
24.8207
24.5658
24.3436
24.1506
23.984
23.8407
23.718
23.6137
23.5254
23.451
23.3889
23.3373
23.2949
23.2603
23.2325
23.2105
23.1934
23.1806
23.1714
23.1652
23.1616
23.1603
23.1609
23.163
23.1665
23.1711
23.1766
23.1829
23.1897
23.1971
23.2047
23.2126
23.2206
23.2285
23.2362
23.2438
23.2509
23.2576
23.2637
23.2692
23.2739
23.2778
23.2808
23.2829
23.2836
23.2781
23.2434
23.1425
23.6289
4614.67
-548.86
-381.273
-122.364
-22.4522
11.2028
23.7777
29.9426
34.0359
37.3156
40.1427
42.6175
44.7654
46.593
48.1034
49.302
50.197
50.8001
51.126
51.1921
51.0182
50.6258
50.0376
49.2772
48.3683
47.3347
46.1995
44.985
43.7125
42.4017
41.0709
39.7365
38.4133
37.1143
35.8504
34.6309
33.4635
32.3538
31.3064
30.3241
29.4086
28.5604
27.7791
27.0634
26.4113
25.8203
25.2873
24.8091
24.3821
24.0027
23.6671
23.3718
23.113
22.8873
22.6914
22.5222
22.3767
22.2522
22.1462
22.0565
21.981
21.9178
21.8654
21.8222
21.787
21.7586
21.7362
21.7187
21.7055
21.696
21.6896
21.6859
21.6844
21.6849
21.687
21.6904
21.6951
21.7007
21.7072
21.7144
21.722
21.7301
21.7386
21.7472
21.7559
21.7646
21.7731
21.7815
21.7896
21.7973
21.8045
21.8111
21.8172
21.8226
21.8272
21.8308
21.8293
21.8036
21.7252
22.156
4614.65
-548.909
-381.354
-122.478
-22.5994
11.0219
23.5623
29.6921
33.7494
36.9921
39.7816
42.2177
44.3264
46.1139
47.5836
48.741
49.5944
50.1556
50.4395
50.4638
50.2483
49.8147
49.1859
48.3855
47.4377
46.3661
45.1942
43.9443
42.6377
41.2944
39.9326
38.5689
37.218
35.8929
34.6047
33.3627
32.1742
31.0451
29.9799
28.9812
28.0509
27.1891
26.3956
25.6689
25.0069
24.407
23.8662
23.381
22.9478
22.563
22.2227
21.9232
21.6608
21.432
21.2334
21.0618
20.9142
20.788
20.6805
20.5895
20.5129
20.4488
20.3955
20.3517
20.3159
20.287
20.2641
20.2462
20.2327
20.2229
20.2163
20.2123
20.2107
20.211
20.213
20.2164
20.2211
20.2268
20.2334
20.2407
20.2486
20.2571
20.2659
20.2751
20.2844
20.2939
20.3034
20.3128
20.322
20.3311
20.3399
20.3482
20.3562
20.3637
20.3707
20.3768
20.3788
20.361
20.3019
20.6824
4614.63
-548.962
-381.442
-122.601
-22.7591
10.8259
23.3296
29.4221
33.4415
36.6457
39.396
41.7926
43.8611
45.6079
47.0367
48.1528
48.9648
49.4847
49.7274
49.7107
49.4547
48.9811
48.3131
47.4745
46.4893
45.3815
44.1746
42.8911
41.5523
40.1783
38.7873
37.396
36.0192
34.6698
33.3589
32.0957
30.8876
29.7406
28.6587
27.645
26.7008
25.8266
25.0217
24.2848
23.6137
23.0057
22.4576
21.966
21.5272
21.1373
20.7927
20.4893
20.2236
19.9919
19.7908
19.617
19.4676
19.3398
19.2309
19.1387
19.0611
18.9961
18.9421
18.8976
18.8612
18.8318
18.8085
18.7902
18.7764
18.7663
18.7594
18.7552
18.7534
18.7535
18.7554
18.7587
18.7634
18.769
18.7757
18.7831
18.7912
18.7999
18.8091
18.8186
18.8285
18.8385
18.8488
18.859
18.8693
18.8795
18.8896
18.8995
18.9091
18.9184
18.9274
18.9358
18.9408
18.9298
18.887
19.2225
4614.61
-549.018
-381.536
-122.732
-22.9275
10.6196
23.085
29.1387
33.1191
36.2839
38.9944
41.3508
43.3788
45.085
46.473
47.5483
48.3196
48.799
49.0014
48.945
48.6498
48.1378
47.4322
46.5569
45.5361
44.394
43.1539
41.8387
40.4696
39.0667
37.6484
36.2313
34.8302
33.4581
32.1261
30.8432
29.617
28.4532
27.3561
26.3283
25.3714
24.4856
23.6704
22.9241
22.2446
21.6291
21.0743
20.5768
20.1328
19.7384
19.3897
19.0829
18.8141
18.5798
18.3764
18.2006
18.0495
17.9202
17.8101
17.7168
17.6382
17.5724
17.5177
17.4726
17.4356
17.4058
17.382
17.3634
17.3492
17.3388
17.3316
17.3272
17.3251
17.3251
17.3268
17.33
17.3345
17.3401
17.3467
17.3542
17.3624
17.3712
17.3806
17.3904
17.4006
17.4112
17.422
17.433
17.4441
17.4552
17.4664
17.4775
17.4885
17.4994
17.5101
17.5204
17.5281
17.5229
17.4936
17.7888
4614.59
-549.076
-381.632
-122.867
-23.1012
10.407
22.8332
28.8476
32.7884
35.9134
38.5839
40.9002
42.888
44.554
45.9018
46.9372
47.6687
48.1087
48.2723
48.1775
47.8447
47.2959
46.5544
45.6443
44.5898
43.4151
42.1439
40.7988
39.4012
37.9713
36.5274
35.0863
33.6627
32.2695
30.9178
29.6168
28.3738
27.1946
26.0833
25.0426
24.074
23.1776
22.3528
21.5979
20.9107
20.2883
19.7275
19.2246
18.7758
18.3773
18.0249
17.7149
17.4433
17.2065
17.001
16.8235
16.6708
16.5402
16.4289
16.3346
16.2551
16.1886
16.1332
16.0875
16.0501
16.0198
15.9956
15.9766
15.9621
15.9514
15.9439
15.9392
15.9369
15.9366
15.9381
15.9411
15.9455
15.951
15.9575
15.9649
15.9731
15.9819
15.9914
16.0014
16.0119
16.0228
16.034
16.0455
16.0572
16.0691
16.0812
16.0933
16.1054
16.1176
16.1297
16.1416
16.1515
16.1511
16.1331
16.3925
4614.57
-549.135
-381.73
-123.004
-23.2772
10.1918
22.5787
28.5536
32.4549
35.5403
38.1712
40.4478
42.3961
44.0227
45.3314
46.3278
47.0209
47.4229
47.5491
47.4177
47.049
46.4652
45.6897
44.7466
43.6603
42.4551
41.1545
39.7814
38.3573
36.9022
35.4346
33.9711
32.5266
31.1139
29.744
28.4262
27.1678
25.9744
24.8501
23.7975
22.8181
21.912
21.0784
20.3157
19.6215
18.9929
18.4265
17.9187
17.4656
17.0632
16.7075
16.3946
16.1205
15.8815
15.6741
15.4949
15.3408
15.2089
15.0965
15.0013
14.9211
14.8538
14.7978
14.7516
14.7137
14.6829
14.6584
14.639
14.6242
14.6131
14.6054
14.6004
14.5978
14.5973
14.5986
14.6014
14.6055
14.6108
14.6172
14.6245
14.6326
14.6414
14.6509
14.6609
14.6715
14.6826
14.6941
14.7059
14.7181
14.7306
14.7433
14.7561
14.7692
14.7824
14.7957
14.8089
14.8205
14.8241
14.8151
15.0429
4614.56
-549.194
-381.827
-123.141
-23.4528
9.97717
22.325
28.261
32.1232
35.1697
37.7617
39.9996
41.9094
43.4978
44.7686
45.7276
46.3837
46.7493
46.8399
46.6736
46.2708
45.6539
44.8463
43.8723
42.7561
41.5223
40.1944
38.7952
37.3464
35.8679
34.3782
32.8941
31.4302
29.9995
28.613
27.2798
26.0071
24.8006
23.6644
22.6011
21.6118
20.6969
19.8553
19.0854
18.3848
17.7504
17.179
16.6667
16.2097
15.8038
15.4451
15.1295
14.8531
14.6122
14.403
14.2223
14.067
13.9339
13.8206
13.7246
13.6436
13.5757
13.5191
13.4724
13.434
13.4029
13.3779
13.3582
13.343
13.3317
13.3236
13.3183
13.3155
13.3147
13.3157
13.3182
13.3221
13.3272
13.3334
13.3405
13.3484
13.3571
13.3665
13.3765
13.3871
13.3983
13.4099
13.4219
13.4344
13.4472
13.4603
13.4738
13.4875
13.5014
13.5156
13.5298
13.5428
13.5496
13.5477
13.7477
4614.54
-549.252
-381.924
-123.275
-23.6257
9.76592
22.0755
27.9733
31.7975
34.806
37.3603
39.5608
41.4335
42.985
44.2195
45.1427
45.7636
46.0946
46.1514
45.952
45.5172
44.8692
44.0315
43.0284
41.8844
40.6238
39.2705
37.8472
36.3754
34.8753
33.3653
31.8621
30.3805
28.9332
27.5314
26.184
24.8983
23.68
22.5329
21.4597
20.4615
19.5384
18.6896
17.9131
17.2067
16.5672
15.9912
15.4748
15.0142