/*--------------------------------*- C++ -*----------------------------------*\
| =========                 |                                                 |
| \\      /  F ield         | OpenFOAM: The Open Source CFD Toolbox           |
|  \\    /   O peration     | Version:  2406                                  |
|   \\  /    A nd           | Website:  www.openfoam.com                      |
|    \\/     M anipulation  |                                                 |
\*---------------------------------------------------------------------------*/
FoamFile
{
    version     2.0;
    format      ascii;
    arch        "LSB;label=32;scalar=64";
    class       volScalarField;
    location    "8.5";
    object      p;
}
// * * * * * * * * * * * * * * * * * * * * * * * * * * * * * * * * * * * * * //

dimensions      [0 2 -2 0 0 0 0];

internalField   nonuniform List<scalar> 
34560
(
-6.7565436
-6.7497226
-6.7420697
-6.7331065
-6.7203704
-6.7013299
-6.6769588
-6.6513026
-6.6306639
-6.8004892
-6.7931329
-6.7848498
-6.7740052
-6.7571377
-6.7319674
-6.7013911
-6.673243
-6.6537419
-6.8195016
-6.8124088
-6.8052216
-6.7959807
-6.7798723
-6.7536729
-6.7215816
-6.6924248
-6.6720811
-6.8315976
-6.8251242
-6.8192634
-6.811692
-6.7969252
-6.7710812
-6.7384468
-6.7079901
-6.6864272
-6.8356767
-6.8301015
-6.8262103
-6.8211249
-6.8083588
-6.7834808
-6.7506737
-6.7196047
-6.696942
-6.8285408
-6.8244611
-6.8233239
-6.8219665
-6.8127918
-6.7901886
-6.7581125
-6.7269853
-6.7032149
-6.8149685
-6.8124976
-6.8142421
-6.8167792
-6.8116005
-6.7918392
-6.7609198
-6.7300722
-6.7049228
-6.7958516
-6.7951538
-6.79998
-6.8066863
-6.8058542
-6.7892552
-6.759455
-6.7290765
-6.7023495
-6.7736639
-6.7747868
-6.7826492
-6.7934522
-6.7969355
-6.7832678
-6.7549423
-6.7250369
-6.696559
-6.7513112
-6.7541898
-6.7648379
-6.7793078
-6.7865785
-6.7755304
-6.7494658
-6.7193707
-6.689102
-6.7327857
-6.7371986
-6.7500991
-6.7673448
-6.7774162
-6.7685642
-6.7444427
-6.7136182
-6.6818427
-6.7226434
-6.7278095
-6.7418226
-6.7604457
-6.7719606
-6.7643445
-6.7410593
-6.7096639
-6.6769514
-6.7226428
-6.727809
-6.7418223
-6.7604455
-6.7719605
-6.7643444
-6.7410592
-6.7096638
-6.6769515
-6.7327845
-6.7371975
-6.7500982
-6.767344
-6.7774156
-6.7685637
-6.7444423
-6.713618
-6.6818428
-6.7513095
-6.7541881
-6.7648362
-6.7793062
-6.7865772
-6.7755294
-6.7494652
-6.7193703
-6.6891016
-6.7736605
-6.7747835
-6.7826462
-6.7934496
-6.7969333
-6.7832662
-6.7549414
-6.7250362
-6.696558
-6.7958465
-6.795149
-6.7999758
-6.8066827
-6.8058512
-6.789253
-6.7594535
-6.7290753
-6.7023481
-6.8149629
-6.8124923
-6.8142371
-6.8167747
-6.8115966
-6.7918361
-6.7609175
-6.7300704
-6.7049211
-6.8285343
-6.824455
-6.8233183
-6.8219615
-6.8127873
-6.7901849
-6.7581094
-6.7269827
-6.703213
-6.8356695
-6.8300948
-6.8262043
-6.8211195
-6.8083539
-6.7834764
-6.7506698
-6.7196014
-6.6969395
-6.8315909
-6.8251179
-6.8192577
-6.8116868
-6.7969202
-6.7710764
-6.7384426
-6.7079865
-6.6864241
-6.8194951
-6.8124027
-6.805216
-6.7959756
-6.7798673
-6.753668
-6.7215774
-6.6924215
-6.6720791
-6.8004835
-6.7931274
-6.7848446
-6.7740004
-6.7571333
-6.7319634
-6.7013879
-6.6732417
-6.6537423
-6.7565394
-6.7497183
-6.7420654
-6.7331025
-6.7203671
-6.7013275
-6.6769574
-6.6513029
-6.6306667
-6.3369179
-6.3364547
-6.3363714
-6.3366612
-6.3367018
-6.3357646
-6.3338776
-6.3319401
-6.3301437
-6.3417854
-6.3411329
-6.340976
-6.3412918
-6.3411918
-6.3396642
-6.3366692
-6.3330638
-6.3292003
-6.3416772
-6.3408866
-6.3408145
-6.3414139
-6.3414672
-6.3396341
-6.3358683
-6.3311812
-6.3260558
-6.3357731
-6.3348428
-6.3349193
-6.3359754
-6.3364479
-6.3346209
-6.3304328
-6.3249027
-6.3186348
-6.32422
-6.3231435
-6.3233942
-6.3249846
-6.3260057
-6.3243194
-6.3197216
-6.313415
-6.3061048
-6.3080864
-6.3067326
-6.3070214
-6.3090485
-6.3105344
-6.308878
-6.3037923
-6.2967414
-6.2885199
-6.287705
-6.2860405
-6.2862982
-6.2886699
-6.2905211
-6.2887947
-6.2831083
-6.2753058
-6.2663658
-6.2646791
-6.2626487
-6.2627509
-6.2652841
-6.2672938
-6.2653055
-6.2588864
-6.2502736
-6.2408057
-6.2410775
-6.2386478
-6.2384787
-6.2409718
-6.2428973
-6.2404293
-6.2331909
-6.223707
-6.2138736
-6.2196297
-6.2167862
-6.216248
-6.2185103
-6.2201275
-6.2170173
-6.2089744
-6.1986135
-6.1885511
-6.203145
-6.1999496
-6.1990487
-6.2010103
-6.2022456
-6.1985115
-6.1897734
-6.1786764
-6.1684854
-6.1939101
-6.1905661
-6.1894942
-6.1912966
-6.1923123
-6.1882174
-6.1790809
-6.1675638
-6.1573163
-6.19391
-6.190566
-6.1894941
-6.1912965
-6.1923122
-6.1882173
-6.1790809
-6.1675638
-6.1573164
-6.2031446
-6.1999492
-6.1990483
-6.2010099
-6.2022452
-6.1985111
-6.1897731
-6.1786764
-6.1684857
-6.2196289
-6.2167854
-6.2162472
-6.2185095
-6.2201267
-6.2170166
-6.2089739
-6.1986134
-6.1885514
-6.2410761
-6.2386464
-6.2384773
-6.2409704
-6.2428959
-6.2404281
-6.23319
-6.2237066
-6.2138738
-6.264677
-6.2626465
-6.2627489
-6.2652821
-6.2672919
-6.2653037
-6.258885
-6.2502729
-6.2408057
-6.2877023
-6.2860379
-6.2862956
-6.2886674
-6.2905187
-6.2887924
-6.2831064
-6.2753047
-6.2663656
-6.3080836
-6.3067298
-6.3070186
-6.3090456
-6.3105315
-6.3088753
-6.3037899
-6.2967398
-6.2885195
-6.3242173
-6.3231406
-6.3233913
-6.3249816
-6.3260026
-6.3243163
-6.3197188
-6.313413
-6.3061041
-6.3357705
-6.33484
-6.3349164
-6.3359724
-6.3364446
-6.3346175
-6.3304296
-6.3249003
-6.3186336
-6.3416746
-6.3408839
-6.3408117
-6.3414109
-6.341464
-6.3396306
-6.3358648
-6.3311783
-6.3260544
-6.341783
-6.3411304
-6.3409734
-6.341289
-6.3411887
-6.3396608
-6.3366655
-6.3330607
-6.3291994
-6.3369156
-6.3364523
-6.3363688
-6.3366585
-6.3366989
-6.3357616
-6.3338746
-6.3319379
-6.3301432
-6.1693306
-6.1693507
-6.169375
-6.1693654
-6.1693101
-6.1691933
-6.1690039
-6.1687266
-6.1681286
-6.1727258
-6.1727658
-6.1727717
-6.1726507
-6.1723668
-6.1718974
-6.171231
-6.1704036
-6.1693797
-6.1752661
-6.1753312
-6.1753686
-6.1752676
-6.1749606
-6.1743809
-6.1734876
-6.1723386
-6.1710537
-6.177416
-6.177501
-6.1775601
-6.1774729
-6.1771648
-6.176542
-6.175525
-6.1741548
-6.1726188
-6.1790649
-6.1791656
-6.1792475
-6.1791871
-6.1789064
-6.1782868
-6.1772109
-6.1756915
-6.1739541
-6.180167
-6.1802862
-6.1803972
-6.1803778
-6.1801517
-6.1795811
-6.1785062
-6.1769116
-6.1750372
-6.1808337
-6.1809598
-6.1810875
-6.1811008
-6.1809324
-6.1804322
-6.1794018
-6.1777912
-6.1758405
-6.1811142
-6.1812407
-6.1813777
-6.1814179
-6.1813052
-6.1808852
-6.1799252
-6.1783408
-6.1763605
-6.1811113
-6.181233
-6.181372
-6.1814309
-6.1813623
-6.1810192
-6.1801369
-6.1785997
-6.1766142
-6.1809417
-6.1810563
-6.1811917
-6.1812587
-6.1812286
-6.180946
-6.1801314
-6.1786416
-6.1766643
-6.1807363
-6.1808442
-6.1809741
-6.1810425
-6.181033
-6.1807907
-6.180023
-6.1785662
-6.1766099
-6.1805926
-6.1806969
-6.1808237
-6.1808921
-6.1808919
-6.18067
-6.1799263
-6.1784857
-6.1765455
-6.1805925
-6.1806968
-6.1808235
-6.180892
-6.1808917
-6.1806699
-6.1799261
-6.1784856
-6.1765455
-6.1807358
-6.1808438
-6.1809736
-6.181042
-6.1810324
-6.1807902
-6.1800225
-6.1785659
-6.1766099
-6.1809409
-6.1810554
-6.1811908
-6.1812578
-6.1812276
-6.1809451
-6.1801306
-6.1786412
-6.1766643
-6.18111
-6.1812317
-6.1813706
-6.1814295
-6.1813608
-6.1810178
-6.1801357
-6.178599
-6.1766142
-6.1811123
-6.1812388
-6.1813758
-6.1814159
-6.1813031
-6.1808832
-6.1799235
-6.1783398
-6.1763604
-6.1808312
-6.1809573
-6.181085
-6.1810981
-6.1809297
-6.1804296
-6.1793995
-6.1777897
-6.1758402
-6.1801639
-6.180283
-6.1803939
-6.1803743
-6.1801482
-6.1795777
-6.1785032
-6.1769095
-6.1750366
-6.1790609
-6.1791616
-6.1792434
-6.1791829
-6.1789021
-6.1782826
-6.177207
-6.1756887
-6.1739531
-6.1774114
-6.1774963
-6.1775553
-6.177468
-6.1771597
-6.176537
-6.1755203
-6.1741514
-6.1726177
-6.1752608
-6.1753258
-6.1753631
-6.175262
-6.1749548
-6.1743751
-6.1734823
-6.1723349
-6.1710526
-6.1727201
-6.17276
-6.1727658
-6.1726446
-6.1723607
-6.1718913
-6.1712256
-6.1704
-6.1693788
-6.1693246
-6.1693446
-6.1693689
-6.1693592
-6.1693041
-6.1691877
-6.168999
-6.1687234
-6.1681274
-5.7320937
-5.7321679
-5.7322618
-5.7323874
-5.7325152
-5.7325574
-5.7324229
-5.7320872
-5.7315832
-5.7319009
-5.7319744
-5.7320638
-5.7321816
-5.7322866
-5.7322724
-5.7320297
-5.7315042
-5.730752
-5.7316998
-5.7317689
-5.7318513
-5.7319607
-5.7320503
-5.7320045
-5.7317069
-5.7311019
-5.7302819
-5.7312865
-5.7313492
-5.7314251
-5.7315318
-5.731618
-5.7315597
-5.7312328
-5.7305845
-5.7297003
-5.730683
-5.730739
-5.7308068
-5.7309082
-5.7309893
-5.7309196
-5.730568
-5.7298867
-5.72896
-5.7299495
-5.729992
-5.7300448
-5.7301357
-5.7302084
-5.7301283
-5.7297597
-5.7290572
-5.7281069
-5.7290929
-5.7291212
-5.7291585
-5.7292401
-5.7293075
-5.7292223
-5.7288474
-5.7281444
-5.7272066
-5.7281919
-5.7282039
-5.728223
-5.7282939
-5.7283569
-5.728269
-5.7278943
-5.7272066
-5.7263105
-5.7273256
-5.7273211
-5.7273226
-5.7273788
-5.7274364
-5.7273473
-5.7269749
-5.7262927
-5.7253643
-5.7265813
-5.7265607
-5.7265446
-5.7265882
-5.7266363
-5.7265459
-5.7261734
-5.7254836
-5.7244625
-5.7260315
-5.725998
-5.725968
-5.7260015
-5.7260426
-5.72595
-5.7255719
-5.7248515
-5.7238093
-5.7257322
-5.7256935
-5.7256577
-5.7256868
-5.7257252
-5.7256298
-5.7252423
-5.7244847
-5.7234683
-5.7257321
-5.7256933
-5.7256576
-5.7256867
-5.725725
-5.7256296
-5.7252421
-5.7244846
-5.7234683
-5.7260312
-5.7259976
-5.7259676
-5.726001
-5.7260421
-5.7259495
-5.7255715
-5.7248512
-5.7238093
-5.7265807
-5.7265601
-5.7265439
-5.7265875
-5.7266355
-5.726545
-5.7261726
-5.7254831
-5.7244623
-5.7273246
-5.72732
-5.7273215
-5.7273776
-5.7274352
-5.727346
-5.7269737
-5.7262918
-5.725364
-5.7281905
-5.7282024
-5.7282214
-5.7282922
-5.728355
-5.7282671
-5.7278926
-5.7272053
-5.7263098
-5.7290909
-5.7291191
-5.7291563
-5.7292377
-5.729305
-5.7292199
-5.7288451
-5.7281425
-5.7272055
-5.7299468
-5.7299893
-5.730042
-5.7301327
-5.7302053
-5.7301251
-5.7297567
-5.7290547
-5.7281051
-5.7306796
-5.7307355
-5.7308032
-5.7309045
-5.7309855
-5.7309158
-5.7305643
-5.7298835
-5.7289576
-5.7312824
-5.7313451
-5.7314209
-5.7315275
-5.7316136
-5.7315552
-5.7312285
-5.7305806
-5.7296971
-5.7316952
-5.7317643
-5.7318466
-5.731956
-5.7320455
-5.7319996
-5.731702
-5.7310973
-5.7302779
-5.731896
-5.7319695
-5.7320589
-5.7321766
-5.7322815
-5.7322674
-5.7320247
-5.7314992
-5.730747
-5.7320886
-5.7321628
-5.7322567
-5.7323823
-5.7325101
-5.7325525
-5.7324178
-5.7320818
-5.7315775
-5.5501023
-5.5501419
-5.5501905
-5.550229
-5.5502646
-5.5503198
-5.5504153
-5.5505515
-5.5505776
-5.550317
-5.5503622
-5.5504082
-5.5504243
-5.5504136
-5.5503982
-5.5504011
-5.5504294
-5.5504157
-5.550545
-5.5505914
-5.5506352
-5.5506391
-5.5506046
-5.5505563
-5.5505235
-5.5505244
-5.5505431
-5.5507345
-5.5507781
-5.5508169
-5.5508103
-5.5507604
-5.5506961
-5.5506512
-5.5506465
-5.5506782
-5.5508856
-5.5509257
-5.5509585
-5.5509406
-5.5508756
-5.5507976
-5.5507454
-5.5507399
-5.5507813
-5.5510064
-5.5510417
-5.5510679
-5.5510387
-5.5509596
-5.5508713
-5.5508162
-5.5508152
-5.5508649
-5.5510912
-5.5511218
-5.5511421
-5.5511029
-5.5510128
-5.5509178
-5.550865
-5.5508698
-5.5509144
-5.5511485
-5.5511748
-5.5511894
-5.5511401
-5.5510423
-5.5509443
-5.5508973
-5.550904
-5.5509297
-5.5511826
-5.5512048
-5.5512135
-5.5511587
-5.5510552
-5.5509583
-5.5509216
-5.5509478
-5.5510555
-5.5512028
-5.5512211
-5.551225
-5.5511657
-5.5510594
-5.5509668
-5.5509439
-5.551013
-5.5512747
-5.551215
-5.5512305
-5.5512309
-5.5511682
-5.5510608
-5.5509731
-5.5509685
-5.5511058
-5.5514299
-5.551217
-5.5512314
-5.5512306
-5.551167
-5.55106
-5.5509767
-5.5509906
-5.5511887
-5.5515076
-5.551217
-5.5512314
-5.5512305
-5.5511669
-5.5510599
-5.5509766
-5.5509905
-5.5511886
-5.5515077
-5.5512148
-5.5512303
-5.5512306
-5.5511678
-5.5510604
-5.5509727
-5.5509681
-5.5511056
-5.55143
-5.5512024
-5.5512207
-5.5512245
-5.5511651
-5.5510587
-5.5509661
-5.5509432
-5.5510125
-5.5512747
-5.551182
-5.5512041
-5.5512126
-5.5511577
-5.5510541
-5.5509572
-5.5509205
-5.5509471
-5.5510553
-5.5511475
-5.5511737
-5.5511881
-5.5511388
-5.5510408
-5.5509427
-5.5508958
-5.5509029
-5.5509292
-5.5510898
-5.5511203
-5.5511404
-5.551101
-5.5510108
-5.5509156
-5.550863
-5.5508681
-5.5509132
-5.5510044
-5.5510396
-5.5510656
-5.5510363
-5.550957
-5.5508685
-5.5508136
-5.5508129
-5.550863
-5.5508829
-5.5509229
-5.5509556
-5.5509374
-5.5508723
-5.5507943
-5.5507422
-5.550737
-5.5507783
-5.550731
-5.5507745
-5.5508132
-5.5508064
-5.5507564
-5.5506922
-5.5506473
-5.5506426
-5.5506738
-5.5505407
-5.550587
-5.5506307
-5.5506346
-5.5506
-5.5505517
-5.5505187
-5.5505191
-5.5505368
-5.5503119
-5.5503571
-5.5504031
-5.5504191
-5.5504083
-5.5503928
-5.5503951
-5.550422
-5.550407
-5.5500967
-5.5501363
-5.5501848
-5.5502232
-5.5502585
-5.5503131
-5.5504074
-5.5505418
-5.550567
-5.2045551
-5.2045642
-5.2045848
-5.2046327
-5.2047023
-5.204766
-5.20479
-5.2047611
-5.2046864
-5.2046075
-5.2046155
-5.204634
-5.2046793
-5.2047411
-5.204784
-5.2047661
-5.2046668
-5.204511
-5.2047091
-5.2047137
-5.2047286
-5.2047713
-5.2048296
-5.2048643
-5.2048298
-5.2047066
-5.2045332
-5.2048004
-5.2048011
-5.2048118
-5.2048518
-5.2049079
-5.2049379
-5.2048935
-5.2047554
-5.2045573
-5.2048801
-5.2048771
-5.2048833
-5.2049192
-5.2049707
-5.2049938
-5.2049383
-5.2047867
-5.2045698
-5.2049469
-5.2049404
-5.2049422
-5.2049738
-5.2050201
-5.2050358
-5.2049713
-5.2048118
-5.2045826
-5.2049938
-5.2049844
-5.2049823
-5.2050103
-5.2050516
-5.2050607
-5.2049898
-5.2048272
-5.2045803
-5.2050234
-5.2050117
-5.2050063
-5.2050309
-5.2050671
-5.2050688
-5.2049879
-5.2048027
-5.2044923
-5.2050378
-5.2050247
-5.2050169
-5.2050374
-5.205069
-5.2050617
-5.2049655
-5.2047191
-5.2043399
-5.2050411
-5.205027
-5.2050173
-5.2050345
-5.2050609
-5.205041
-5.2049136
-5.2046174
-5.2042128
-5.2050383
-5.2050235
-5.2050126
-5.2050276
-5.2050478
-5.2050141
-5.2048542
-5.2045421
-5.2041249
-5.2050346
-5.2050198
-5.2050086
-5.2050224
-5.2050393
-5.2049987
-5.2048245
-5.204503
-5.2040807
-5.2050346
-5.2050198
-5.2050086
-5.2050224
-5.2050392
-5.2049986
-5.2048245
-5.204503
-5.2040808
-5.2050383
-5.2050235
-5.2050125
-5.2050275
-5.2050476
-5.2050139
-5.204854
-5.2045421
-5.2041252
-5.2050411
-5.2050269
-5.205017
-5.2050341
-5.2050604
-5.2050405
-5.2049132
-5.2046174
-5.2042134
-5.2050375
-5.2050243
-5.2050164
-5.2050367
-5.2050682
-5.2050609
-5.2049649
-5.204719
-5.2043405
-5.2050229
-5.205011
-5.2050054
-5.2050298
-5.2050658
-5.2050674
-5.2049869
-5.2048023
-5.2044929
-5.2049927
-5.2049831
-5.2049808
-5.2050085
-5.2050497
-5.2050587
-5.2049882
-5.2048265
-5.2045806
-5.2049451
-5.2049384
-5.2049399
-5.2049712
-5.2050173
-5.2050331
-5.204969
-5.2048105
-5.2045825
-5.2048771
-5.204874
-5.2048799
-5.2049156
-5.2049669
-5.2049901
-5.2049352
-5.2047847
-5.204569
-5.2047961
-5.2047966
-5.2048071
-5.2048469
-5.2049029
-5.2049331
-5.2048893
-5.2047524
-5.2045557
-5.2047032
-5.2047077
-5.2047225
-5.204765
-5.2048233
-5.2048581
-5.2048243
-5.2047021
-5.2045302
-5.2046001
-5.204608
-5.2046265
-5.2046716
-5.2047333
-5.2047763
-5.2047587
-5.2046605
-5.2045062
-5.2045466
-5.2045558
-5.2045763
-5.2046241
-5.2046935
-5.204757
-5.204781
-5.2047525
-5.2046797
-4.9576368
-4.9576521
-4.9576694
-4.9576811
-4.9576892
-4.9577012
-4.9577242
-4.9577585
-4.9577584
-4.9575899
-4.9576069
-4.9576242
-4.9576317
-4.9576306
-4.9576279
-4.9576298
-4.9576367
-4.9576264
-4.957575
-4.9575914
-4.9576069
-4.9576095
-4.957601
-4.9575904
-4.9575869
-4.9575943
-4.9576046
-4.9575589
-4.9575734
-4.9575862
-4.9575845
-4.9575709
-4.9575567
-4.9575541
-4.9575683
-4.9575926
-4.9575455
-4.9575578
-4.9575671
-4.9575603
-4.9575409
-4.9575228
-4.9575212
-4.957541
-4.9575751
-4.95754
-4.9575493
-4.9575547
-4.9575424
-4.9575165
-4.9574949
-4.9574934
-4.9575147
-4.9575555
-4.9575395
-4.9575459
-4.9575475
-4.9575296
-4.9574992
-4.9574748
-4.9574727
-4.9574938
-4.9575531
-4.9575464
-4.9575498
-4.9575472
-4.9575251
-4.9574909
-4.9574655
-4.9574683
-4.9575149
-4.9576435
-4.9575599
-4.9575602
-4.9575539
-4.9575282
-4.9574919
-4.9574686
-4.9574849
-4.9576012
-4.9577976
-4.9575768
-4.9575743
-4.957565
-4.9575368
-4.9575003
-4.9574847
-4.9575341
-4.9577034
-4.9579205
-4.9575925
-4.9575879
-4.9575765
-4.9575469
-4.9575118
-4.9575072
-4.9575915
-4.9577755
-4.9580029
-4.957601
-4.9575954
-4.9575829
-4.9575527
-4.9575187
-4.9575198
-4.9576193
-4.9578109
-4.9580448
-4.9576011
-4.9575955
-4.9575829
-4.9575527
-4.9575187
-4.9575198
-4.9576194
-4.957811
-4.9580451
-4.9575927
-4.9575881
-4.9575766
-4.9575469
-4.9575117
-4.9575071
-4.9575916
-4.9577758
-4.9580036
-4.9575771
-4.9575745
-4.957565
-4.9575367
-4.9575001
-4.9574845
-4.957534
-4.9577039
-4.9579217
-4.9575601
-4.9575602
-4.9575538
-4.9575279
-4.9574914
-4.9574681
-4.9574847
-4.9576017
-4.9577991
-4.9575463
-4.9575494
-4.9575467
-4.9575243
-4.9574899
-4.9574646
-4.9574678
-4.9575153
-4.9576452
-4.9575388
-4.957545
-4.9575463
-4.9575281
-4.9574975
-4.9574732
-4.9574717
-4.957494
-4.9575548
-4.9575383
-4.9575474
-4.9575524
-4.9575398
-4.9575137
-4.9574924
-4.9574917
-4.9575145
-4.9575572
-4.9575424
-4.9575545
-4.9575635
-4.9575564
-4.9575368
-4.957519
-4.9575184
-4.95754
-4.9575765
-4.9575542
-4.9575684
-4.9575808
-4.9575788
-4.9575652
-4.9575513
-4.9575498
-4.9575662
-4.9575933
-4.9575682
-4.9575845
-4.9575997
-4.957602
-4.9575935
-4.9575832
-4.9575809
-4.9575905
-4.9576041
-4.9575813
-4.9575981
-4.9576152
-4.9576225
-4.9576214
-4.9576189
-4.9576217
-4.9576307
-4.9576241
-4.9576268
-4.9576421
-4.9576594
-4.957671
-4.9576791
-4.9576912
-4.9577146
-4.9577501
-4.9577533
-4.6556008
-4.6556007
-4.6556041
-4.6556169
-4.6556378
-4.6556588
-4.6556699
-4.6556678
-4.6556523
-4.6556477
-4.6556471
-4.6556498
-4.6556613
-4.655679
-4.6556923
-4.6556888
-4.6556622
-4.655619
-4.6557059
-4.6557044
-4.655706
-4.6557167
-4.655733
-4.6557432
-4.6557335
-4.655698
-4.6556461
-4.6557596
-4.6557569
-4.6557573
-4.6557671
-4.6557825
-4.6557907
-4.6557772
-4.6557357
-4.6556733
-4.6558078
-4.655804
-4.655803
-4.6558116
-4.6558253
-4.6558312
-4.6558142
-4.6557678
-4.6556971
-4.6558489
-4.6558442
-4.6558421
-4.6558492
-4.6558613
-4.6558649
-4.6558455
-4.6557965
-4.6557188
-4.6558805
-4.6558752
-4.6558722
-4.655878
-4.6558881
-4.6558892
-4.6558673
-4.655808
-4.6557115
-4.6559025
-4.6558969
-4.6558932
-4.6558977
-4.6559053
-4.6559019
-4.6558705
-4.6557909
-4.6556712
-4.6559161
-4.6559104
-4.6559062
-4.6559093
-4.655914
-4.6559048
-4.6558575
-4.6557603
-4.6556296
-4.6559234
-4.6559176
-4.6559129
-4.6559146
-4.6559161
-4.6559002
-4.6558415
-4.6557352
-4.6555984
-4.6559266
-4.6559207
-4.6559156
-4.6559162
-4.6559148
-4.655893
-4.6558291
-4.6557181
-4.6555787
-4.6559276
-4.6559217
-4.6559165
-4.6559164
-4.6559136
-4.6558891
-4.6558225
-4.6557093
-4.6555693
-4.6559278
-4.6559219
-4.6559166
-4.6559165
-4.6559137
-4.6558892
-4.6558226
-4.6557095
-4.6555697
-4.655927
-4.6559211
-4.6559159
-4.6559164
-4.6559149
-4.6558931
-4.6558293
-4.6557186
-4.6555798
-4.655924
-4.6559181
-4.6559133
-4.6559148
-4.6559162
-4.6559002
-4.6558417
-4.655736
-4.6556001
-4.6559167
-4.6559108
-4.6559064
-4.6559093
-4.6559138
-4.6559046
-4.6558577
-4.6557613
-4.6556318
-4.6559029
-4.6558971
-4.6558931
-4.6558973
-4.6559047
-4.6559013
-4.6558704
-4.6557919
-4.6556737
-4.6558803
-4.6558747
-4.6558714
-4.6558769
-4.6558868
-4.655888
-4.6558667
-4.6558088
-4.655714
-4.6558478
-4.6558428
-4.6558403
-4.655847
-4.6558589
-4.6558627
-4.6558441
-4.6557968
-4.6557211
-4.6558053
-4.6558011
-4.6557998
-4.655808
-4.6558215
-4.6558276
-4.6558117
-4.6557672
-4.6556987
-4.6557553
-4.6557522
-4.6557523
-4.6557617
-4.655777
-4.6557855
-4.6557732
-4.6557336
-4.6556735
-4.6556994
-4.6556976
-4.655699
-4.6557094
-4.6557256
-4.6557361
-4.6557274
-4.6556937
-4.6556443
-4.6556391
-4.6556384
-4.6556409
-4.6556522
-4.6556698
-4.6556833
-4.6556803
-4.6556549
-4.6556143
-4.6555908
-4.6555907
-4.6555942
-4.6556068
-4.6556275
-4.6556482
-4.655659
-4.655657
-4.6556441
-4.3829443
-4.3829484
-4.3829529
-4.3829554
-4.3829568
-4.3829595
-4.3829663
-4.3829794
-4.3829861
-4.382927
-4.3829316
-4.382936
-4.3829374
-4.3829365
-4.3829357
-4.382938
-4.3829445
-4.3829477
-4.3829171
-4.3829215
-4.3829252
-4.3829252
-4.3829223
-4.3829198
-4.3829215
-4.382929
-4.3829387
-4.382907
-4.3829108
-4.3829137
-4.3829123
-4.3829079
-4.3829045
-4.3829067
-4.3829163
-4.3829302
-4.3828987
-4.3829019
-4.3829037
-4.3829008
-4.3828946
-4.3828899
-4.3828917
-4.3829017
-4.3829185
-4.3828945
-4.3828968
-4.3828974
-4.3828927
-4.3828846
-4.3828783
-4.3828788
-4.382888
-4.3829078
-4.3828939
-4.3828953
-4.3828948
-4.3828885
-4.3828789
-4.3828719
-4.3828724
-4.3828902
-4.3829256
-4.3828979
-4.3828983
-4.3828965
-4.3828892
-4.3828791
-4.3828738
-4.3828825
-4.382919
-4.3829727
-4.3829047
-4.3829042
-4.3829015
-4.3828934
-4.3828837
-4.3828821
-4.3829057
-4.382956
-4.3830175
-4.3829128
-4.3829116
-4.3829081
-4.3828998
-4.3828914
-4.3828948
-4.3829277
-4.3829843
-4.3830483
-4.38292
-4.3829183
-4.3829145
-4.3829062
-4.3828993
-4.3829075
-4.3829435
-4.3830025
-4.383066
-4.3829239
-4.382922
-4.3829179
-4.3829096
-4.3829035
-4.3829139
-4.3829514
-4.3830114
-4.383074
-4.3829241
-4.3829221
-4.382918
-4.3829097
-4.3829036
-4.3829139
-4.3829514
-4.3830116
-4.3830744
-4.3829205
-4.3829188
-4.3829148
-4.3829064
-4.3828994
-4.3829076
-4.3829437
-4.383003
-4.3830671
-4.3829135
-4.3829122
-4.3829086
-4.3829001
-4.3828915
-4.3828948
-4.382928
-4.3829851
-4.3830501
-4.3829055
-4.3829048
-4.3829019
-4.3828935
-4.3828836
-4.3828819
-4.3829059
-4.3829571
-4.3830197
-4.3828984
-4.3828986
-4.3828966
-4.3828889
-4.3828786
-4.3828732
-4.3828824
-4.38292
-4.3829752
-4.3828939
-4.382895
-4.3828942
-4.3828876
-4.3828777
-4.3828706
-4.3828718
-4.3828909
-4.3829281
-4.3828936
-4.3828956
-4.3828958
-4.3828907
-4.3828823
-4.3828761
-4.3828774
-4.3828882
-4.3829101
-4.3828965
-4.3828993
-4.3829008
-4.3828974
-4.382891
-4.3828865
-4.3828892
-4.3829009
-4.3829199
-4.382903
-4.3829065
-4.3829091
-4.3829073
-4.3829028
-4.3828997
-4.3829028
-4.3829141
-4.3829303
-4.3829112
-4.3829153
-4.3829188
-4.3829185
-4.3829155
-4.3829133
-4.3829159
-4.3829249
-4.3829368
-4.3829192
-4.3829237
-4.3829279
-4.3829292
-4.3829282
-4.3829276
-4.3829304
-4.3829379
-4.3829432
-4.3829354
-4.3829395
-4.3829439
-4.3829464
-4.3829476
-4.3829501
-4.3829567
-4.38297
-4.3829787
-4.0956608
-4.0956605
-4.0956611
-4.0956641
-4.0956692
-4.0956747
-4.0956778
-4.0956761
-4.0956656
-4.0956689
-4.0956684
-4.0956688
-4.0956715
-4.0956755
-4.0956782
-4.095676
-4.095666
-4.0956473
-4.0956805
-4.0956797
-4.0956798
-4.095682
-4.0956854
-4.0956866
-4.0956817
-4.0956681
-4.0956466
-4.0956916
-4.0956904
-4.09569
-4.0956919
-4.0956947
-4.0956949
-4.0956882
-4.0956719
-4.0956466
-4.0957016
-4.0957
-4.0956992
-4.0957006
-4.0957028
-4.0957021
-4.0956937
-4.0956745
-4.0956455
-4.0957102
-4.0957083
-4.0957071
-4.095708
-4.0957096
-4.0957081
-4.095698
-4.0956756
-4.0956429
-4.0957166
-4.0957146
-4.095713
-4.0957133
-4.0957142
-4.0957117
-4.0956993
-4.0956736
-4.0956379
-4.095721
-4.0957188
-4.0957168
-4.0957167
-4.0957166
-4.0957123
-4.0956975
-4.0956692
-4.0956317
-4.0957237
-4.0957213
-4.0957191
-4.0957184
-4.0957175
-4.0957116
-4.0956948
-4.0956647
-4.0956261
-4.0957255
-4.0957229
-4.0957204
-4.0957193
-4.0957178
-4.095711
-4.0956925
-4.095661
-4.0956219
-4.0957264
-4.0957237
-4.0957211
-4.0957198
-4.0957179
-4.0957104
-4.0956907
-4.0956583
-4.0956192
-4.0957269
-4.0957242
-4.0957214
-4.09572
-4.0957179
-4.09571
-4.0956898
-4.0956569
-4.095618
-4.0957271
-4.0957243
-4.0957216
-4.0957201
-4.095718
-4.09571
-4.0956898
-4.095657
-4.0956184
-4.0957269
-4.0957242
-4.0957214
-4.09572
-4.095718
-4.0957105
-4.0956909
-4.0956588
-4.0956203
-4.0957262
-4.0957235
-4.0957209
-4.0957196
-4.0957179
-4.095711
-4.0956928
-4.0956618
-4.0956236
-4.0957244
-4.0957219
-4.0957194
-4.0957185
-4.0957174
-4.0957114
-4.095695
-4.0956657
-4.0956282
-4.0957215
-4.095719
-4.0957168
-4.0957164
-4.095716
-4.0957117
-4.0956973
-4.0956701
-4.0956341
-4.0957165
-4.0957142
-4.0957123
-4.0957123
-4.0957129
-4.0957104
-4.0956986
-4.0956742
-4.0956403
-4.0957091
-4.095707
-4.0957054
-4.0957059
-4.0957072
-4.0957059
-4.0956965
-4.0956756
-4.0956451
-4.0956992
-4.0956974
-4.0956962
-4.0956972
-4.0956991
-4.0956986
-4.0956911
-4.0956737
-4.095647
-4.0956875
-4.095686
-4.0956853
-4.0956868
-4.0956895
-4.09569
-4.0956842
-4.0956697
-4.095647
-4.0956745
-4.0956735
-4.0956733
-4.0956753
-4.0956786
-4.0956801
-4.0956761
-4.0956641
-4.0956451
-4.0956612
-4.0956606
-4.0956608
-4.0956633
-4.0956673
-4.0956701
-4.0956685
-4.0956597
-4.0956435
-4.0956521
-4.0956517
-4.0956523
-4.0956552
-4.0956602
-4.0956656
-4.0956686
-4.0956673
-4.0956589
-3.8151755
-3.8151765
-3.8151777
-3.8151784
-3.815179
-3.8151799
-3.8151817
-3.8151848
-3.8151856
-3.8151672
-3.8151685
-3.8151697
-3.8151702
-3.8151703
-3.8151702
-3.8151707
-3.8151715
-3.8151707
-3.8151605
-3.8151616
-3.8151627
-3.8151629
-3.8151625
-3.8151621
-3.8151625
-3.8151638
-3.8151649
-3.8151535
-3.8151546
-3.8151554
-3.8151553
-3.8151545
-3.8151539
-3.8151547
-3.8151569
-3.8151598
-3.8151471
-3.8151479
-3.8151484
-3.8151479
-3.8151466
-3.8151457
-3.8151466
-3.8151499
-3.8151547
-3.8151418
-3.8151424
-3.8151426
-3.8151415
-3.8151397
-3.8151382
-3.8151392
-3.815144
-3.8151505
-3.8151378
-3.8151382
-3.815138
-3.8151366
-3.8151343
-3.8151326
-3.8151343
-3.81514
-3.8151475
-3.8151352
-3.8151353
-3.8151349
-3.8151331
-3.8151307
-3.8151295
-3.8151315
-3.8151373
-3.8151452
-3.8151336
-3.8151336
-3.815133
-3.815131
-3.8151284
-3.8151273
-3.815129
-3.8151348
-3.8151435
-3.8151327
-3.8151325
-3.8151317
-3.8151296
-3.8151268
-3.8151251
-3.8151266
-3.8151326
-3.8151422
-3.8151322
-3.815132
-3.815131
-3.8151286
-3.8151255
-3.8151234
-3.8151248
-3.8151312
-3.8151414
-3.815132
-3.8151317
-3.8151307
-3.8151282
-3.8151248
-3.8151225
-3.8151239
-3.8151305
-3.8151412
-3.8151322
-3.8151319
-3.8151308
-3.8151283
-3.8151249
-3.8151225
-3.815124
-3.8151307
-3.8151415
-3.8151327
-3.8151323
-3.8151313
-3.8151288
-3.8151256
-3.8151234
-3.815125
-3.8151317
-3.8151424
-3.8151333
-3.815133
-3.815132
-3.8151298
-3.8151268
-3.8151251
-3.8151268
-3.8151334
-3.8151437
-3.8151343
-3.8151341
-3.8151332
-3.8151311
-3.8151283
-3.8151271
-3.8151291
-3.8151357
-3.8151455
-3.8151356
-3.8151355
-3.8151348
-3.8151328
-3.8151301
-3.8151289
-3.8151314
-3.8151381
-3.8151475
-3.8151377
-3.8151378
-3.8151374
-3.8151356
-3.8151331
-3.8151314
-3.8151337
-3.8151406
-3.8151498
-3.8151408
-3.8151411
-3.815141
-3.8151395
-3.8151375
-3.8151361
-3.8151379
-3.8151441
-3.8151526
-3.8151448
-3.8151454
-3.8151455
-3.8151446
-3.8151431
-3.8151425
-3.8151442
-3.8151492
-3.8151561
-3.8151496
-3.8151504
-3.8151508
-3.8151504
-3.8151495
-3.8151492
-3.8151509
-3.8151549
-3.81516
-3.8151546
-3.8151556
-3.8151564
-3.8151564
-3.8151559
-3.8151558
-3.815157
-3.8151599
-3.8151633
-3.8151597
-3.8151607
-3.8151618
-3.8151622
-3.8151621
-3.8151622
-3.8151631
-3.815165
-3.8151667
-3.8151668
-3.8151678
-3.8151689
-3.8151696
-3.81517
-3.8151706
-3.8151722
-3.8151754
-3.8151786
-3.5319264
-3.5319264
-3.5319266
-3.5319272
-3.5319283
-3.5319292
-3.5319295
-3.5319289
-3.5319265
-3.5319271
-3.5319271
-3.5319273
-3.5319279
-3.5319288
-3.5319292
-3.5319285
-3.5319262
-3.5319221
-3.5319286
-3.5319285
-3.5319287
-3.5319293
-3.53193
-3.5319303
-3.5319295
-3.5319269
-3.5319226
-3.5319302
-3.53193
-3.53193
-3.5319305
-3.5319312
-3.5319315
-3.5319307
-3.5319281
-3.5319236
-3.5319317
-3.5319314
-3.5319313
-3.5319316
-3.5319322
-3.5319325
-3.5319316
-3.531929
-3.5319244
-3.5319331
-3.5319327
-3.5319325
-3.5319327
-3.5319331
-3.5319333
-3.5319323
-3.5319298
-3.5319253
-3.5319343
-3.5319338
-3.5319335
-3.5319335
-3.5319338
-3.5319338
-3.5319328
-3.5319304
-3.5319262
-3.5319353
-3.5319347
-3.5319343
-3.5319342
-3.5319343
-3.5319341
-3.5319333
-3.5319311
-3.531927
-3.531936
-3.5319354
-3.5319349
-3.5319347
-3.5319346
-3.5319344
-3.5319337
-3.5319317
-3.5319278
-3.5319366
-3.531936
-3.5319354
-3.5319351
-3.5319349
-3.5319347
-3.5319341
-3.5319323
-3.5319286
-3.5319371
-3.5319364
-3.5319357
-3.5319353
-3.5319351
-3.531935
-3.5319345
-3.5319327
-3.5319291
-3.5319373
-3.5319366
-3.5319359
-3.5319355
-3.5319352
-3.5319351
-3.5319347
-3.531933
-3.5319296
-3.5319374
-3.5319367
-3.531936
-3.5319355
-3.5319352
-3.5319351
-3.5319347
-3.5319331
-3.5319298
-3.5319374
-3.5319366
-3.5319359
-3.5319354
-3.5319351
-3.531935
-3.5319346
-3.5319331
-3.5319299
-3.5319371
-3.5319363
-3.5319356
-3.5319351
-3.5319349
-3.5319347
-3.5319343
-3.5319329
-3.5319298
-3.5319364
-3.5319357
-3.531935
-3.5319346
-3.5319344
-3.5319342
-3.5319337
-3.5319324
-3.5319294
-3.5319355
-3.5319348
-3.5319341
-3.5319338
-3.5319337
-3.5319335
-3.531933
-3.5319317
-3.5319288
-3.531934
-3.5319334
-3.5319328
-3.5319326
-3.5319326
-3.5319326
-3.5319322
-3.5319308
-3.531928
-3.5319321
-3.5319315
-3.531931
-3.5319309
-3.5319311
-3.5319313
-3.5319311
-3.5319297
-3.5319269
-3.5319296
-3.5319291
-3.5319287
-3.5319287
-3.5319291
-3.5319296
-3.5319295
-3.5319283
-3.5319255
-3.5319267
-3.5319263
-3.531926
-3.5319262
-3.5319268
-3.5319273
-3.5319274
-3.5319263
-3.5319236
-3.5319235
-3.5319232
-3.5319232
-3.5319235
-3.5319242
-3.5319248
-3.5319246
-3.5319234
-3.531921
-3.5319204
-3.5319203
-3.5319204
-3.5319209
-3.5319217
-3.5319222
-3.5319218
-3.5319204
-3.5319183
-3.5319187
-3.5319187
-3.5319189
-3.5319194
-3.5319203
-3.531921
-3.5319211
-3.5319206
-3.5319203
-3.2496668
-3.2496669
-3.2496671
-3.2496673
-3.2496675
-3.2496677
-3.249668
-3.2496685
-3.2496677
-3.2496659
-3.2496661
-3.2496663
-3.2496664
-3.2496664
-3.2496664
-3.2496664
-3.2496659
-3.2496645
-3.2496651
-3.2496653
-3.2496655
-3.2496655
-3.2496655
-3.2496654
-3.2496651
-3.2496645
-3.2496634
-3.2496641
-3.2496643
-3.2496644
-3.2496645
-3.2496644
-3.2496643
-3.2496639
-3.2496634
-3.2496624
-3.2496631
-3.2496632
-3.2496633
-3.2496633
-3.2496631
-3.2496629
-3.2496626
-3.2496622
-3.2496616
-3.249662
-3.249662
-3.2496621
-3.2496619
-3.2496617
-3.2496614
-3.2496613
-3.2496611
-3.2496608
-3.249661
-3.249661
-3.2496609
-3.2496607
-3.2496603
-3.24966
-3.24966
-3.2496602
-3.2496602
-3.2496602
-3.2496602
-3.24966
-3.2496597
-3.2496592
-3.2496589
-3.249659
-3.2496594
-3.2496598
-3.2496597
-3.2496596
-3.2496594
-3.2496589
-3.2496584
-3.2496581
-3.2496582
-3.2496588
-3.2496595