/*--------------------------------*- C++ -*----------------------------------*\
| =========                 |                                                 |
| \\      /  F ield         | OpenFOAM: The Open Source CFD Toolbox           |
|  \\    /   O peration     | Version:  2406                                  |
|   \\  /    A nd           | Website:  www.openfoam.com                      |
|    \\/     M anipulation  |                                                 |
\*---------------------------------------------------------------------------*/
FoamFile
{
    version     2.0;
    format      ascii;
    arch        "LSB;label=32;scalar=64";
    class       surfaceScalarField;
    location    "8.5";
    object      phi;
}
// * * * * * * * * * * * * * * * * * * * * * * * * * * * * * * * * * * * * * //

dimensions      [0 3 -1 0 0 0 0];

oriented        oriented;

internalField   nonuniform List<scalar> 
101088
(
-0.00017517842
3.7624581e-05
-1.3755126e-05
-3.1614817e-05
-0.00039358274
0.00017213947
-6.4291699e-05
-0.00014542561
-0.00064136054
0.00043325972
-0.00016607449
-0.00036757069
-0.00088294828
0.00084420183
-0.00033579208
-0.00072170836
-0.0010673612
0.0013575622
-0.00056133949
-0.0011744402
-0.0011657251
0.0018634009
-0.00078353572
-0.0016296433
-0.0012082556
0.002255012
-0.00091789772
-0.0019795393
-0.0012615231
0.0024642569
-0.00091436773
-0.0021540452
0.0024500339
-0.00079051714
-0.0021395755
-0.0013538223
-0.00021257302
4.1705558e-05
-1.5901455e-05
-0.00047098183
0.00019201077
-7.5062689e-05
-0.00075145396
0.00048327159
-0.00019551447
-0.0010018158
0.00093577202
-0.00039730457
-0.0011596663
0.0014919664
-0.00066471633
-0.001201649
0.0020364736
-0.00092626801
-0.001173289
0.0024649702
-0.0010846151
-0.0011508027
0.0027052627
-0.0010859243
0.002698256
-0.00095245397
-0.0011759988
-0.00025104525
4.3975434e-05
-1.7471878e-05
-0.00055080261
0.00020384993
-8.3554363e-05
-0.00086555405
0.0005143433
-0.0002199214
-0.0011290143
0.0009926556
-0.00044955313
-0.0012677795
0.0015721564
-0.00075214672
-0.0012613403
0.0021373221
-0.0010438318
-0.0011692246
0.0025911459
-0.0012169542
-0.0010806204
0.0028590314
-0.0012176708
0.0028684056
-0.001074069
-0.0010489303
-0.00028896998
4.4316253e-05
-1.8468924e-05
-0.00063017547
0.00020698323
-8.9654087e-05
-0.00097963951
0.00052397676
-0.00023878813
-0.0012567875
0.0010092066
-0.00049143204
-0.0013808232
0.0015915861
-0.0008223609
-0.0013368793
0.00216048
-0.0011359283
-0.0011981301
0.0026304507
-0.0013170323
-0.0010605773
0.0029203376
-0.001312503
0.0029506838
-0.0011589294
-0.00098317601
-0.00032495103
4.2193852e-05
-1.8780507e-05
-0.00070567658
0.00019968414
-9.2891132e-05
-0.0010891782
0.00050943623
-0.00025116872
-0.0013830866
0.00098307871
-0.0005216345
-0.0015014249
0.0015497959
-0.0008745242
-0.0014346084
0.0021072545
-0.0012035485
-0.0012639311
0.0025802672
-0.0013861744
-0.0010918669
0.0028855661
-0.0013739271
0.0029381714
-0.0012111079
-0.00097863473
-0.00035960763
3.8486638e-05
-1.8466036e-05
-0.00078112022
0.00018455269
-9.3433872e-05
-0.0012034512
0.00047487736
-0.00025729335
-0.0015227559
0.00091929079
-0.00054059317
-0.0016464463
0.0014503542
-0.00090924517
-0.0015691972
0.0019783001
-0.0012470083
-0.0013793193
0.0024391318
-0.0014266796
-0.0011825885
0.0027501361
-0.0014052493
0.0028222766
-0.0012341936
-0.0010383116
-0.00039083252
3.3219606e-05
-1.7606077e-05
-0.00085033544
0.00016186677
-9.1468156e-05
-0.0013109184
0.0004211317
-0.00025724679
-0.0016593073
0.00081981
-0.00054790636
-0.0017985595
0.0012977676
-0.00092586044
-0.0017256166
0.001779162
-0.0012666356
-0.0015296476
0.0022090594
-0.0014399227
-0.0013193701
0.0025139681
-0.0014087647
0.0025998634
-0.0012312088
-0.0011511476
-0.00041843512
2.6809471e-05
-1.6277442e-05
-0.00091348208
0.00013319886
-8.7295024e-05
-0.0014127336
0.00035142133
-0.00025166603
-0.0017950833
0.00068973962
-0.00054472443
-0.0019592052
0.0010982696
-0.00092630915
-0.0019030245
0.0015164691
-0.0012654062
-0.0017109768
0.0018929899
-0.0014299962
-0.001494989
0.0021776101
-0.001388966
0.0022685434
-0.0012067638
-0.0013070487
-0.00044193538
1.9817411e-05
-1.4665518e-05
-0.00096938603
0.00010071577
-8.164208e-05
-0.0015066441
0.00027006124
-0.00024206009
-0.001925967
0.00053544916
-0.00053347684
-0.002121234
0.00085912961
-0.00091404594
-0.0020902568
0.0011976648
-0.0012477878
-0.0019118766
0.0014991713
-0.0014025084
-0.0016948401
0.0017438534
-0.00135175
0.0018289568
-0.0011666361
-0.001489503
-0.00046078792
1.2880577e-05
-1.3038085e-05
-0.0010163158
6.6953988e-05
-7.5612818e-05
-0.0015889368
0.00018229046
-0.00023079708
-0.0020453853
0.00036486026
-0.00051800533
-0.0022743636
0.00058971976
-0.00089437601
-0.0022697104
0.00082976962
-0.0012203663
-0.0021114357
0.001040795
-0.0013657092
-0.0018958744
0.0012216423
-0.0013057527
0.0012886965
-0.0011191086
-0.0016747604
-0.00047402852
6.3694505e-06
-1.1748055e-05
-0.0010504753
3.3493965e-05
-7.063916e-05
-0.0016508182
9.1918308e-05
-0.00022090828
-0.002137993
0.00018484954
-0.00050322718
-0.0023963723
0.00030001238
-0.00087422017
-0.0024142851
0.00042456171
-0.0011923717
-0.002275295
0.00053382139
-0.0013294803
-0.0020630904
0.00063022288
-0.0012620791
0.00066746894
-0.0010748897
-0.0018296495
-0.00048078026
-1.0787946e-10
-1.0959912e-05
-0.0010681691
-4.2043178e-10
-6.7561832e-05
-0.0016835416
-8.4070668e-10
-0.00021464404
-0.0021882552
-1.4972801e-09
-0.0004936409
-0.0024643746
-2.250526e-09
-0.00086105308
-0.0024969352
-2.8381815e-09
-0.0011744008
-0.002369793
-2.7128767e-09
-0.0013066659
-0.0021603613
-9.3678928e-10
-0.0012349616
1.4573508e-09
-0.0010476213
-0.0019201345
-0.00048078031
-6.3696283e-06
-1.0959911e-05
-0.001068169
-3.3494712e-05
-6.7561831e-05
-0.0016835416
-9.1919871e-05
-0.00021464404
-0.0021882553
-0.00018485246
-0.00049364089
-0.0024643746
-0.00030001686
-0.00086105308
-0.002496935
-0.00042456728
-0.0011744008
-0.0023697926
-0.00053382653
-0.0013066659
-0.0021603606
-0.00063022459
-0.0012349616
-0.00066746617
-0.0010476213
-0.0019201337
-0.00047402867
-1.2880683e-05
-1.174806e-05
-0.0010504752
-6.6954488e-05
-7.0639182e-05
-0.0016508184
-0.00018229167
-0.00022090834
-0.0021379933
-0.00036486293
-0.00050322731
-0.0023963726
-0.00058972419
-0.00087422037
-0.0024142849
-0.00082977517
-0.0011923719
-0.0022752943
-0.0010408002
-0.0013294804
-0.002063089
-0.0012216442
-0.0012620792
-0.0012886942
-0.0010748897
-0.0018296476
-0.00046078793
-1.981752e-05
-1.3038088e-05
-0.0010163155
-0.00010071616
-7.5612834e-05
-0.0015889367
-0.00027006233
-0.00023079711
-0.002045385
-0.00053545168
-0.00051800538
-0.002274363
-0.00085913376
-0.00089437605
-0.0022697096
-0.0011976701
-0.0012203663
-0.0021114347
-0.0014991767
-0.0013657092
-0.0018958728
-0.0017438557
-0.0013057528
-0.0018289547
-0.0011191085
-0.0016747584
-0.00044193557
-2.6809572e-05
-1.4665522e-05
-0.00096938578
-0.00013319918
-8.1642099e-05
-0.0015066438
-0.00035142239
-0.00024206014
-0.0019259668
-0.00068974213
-0.00053347691
-0.0021212333
-0.0010982736
-0.00091404599
-0.002090256
-0.0015164743
-0.0012477879
-0.0019118757
-0.0018929953
-0.0014025085
-0.0016948387
-0.0021776128
-0.0013517502
-0.0022685417
-0.0011666361
-0.0014895015
-0.00041843523
-3.3219685e-05
-1.6277446e-05
-0.00091348189
-0.00016186708
-8.7295048e-05
-0.0014127335
-0.00042113282
-0.0002516661
-0.0017950833
-0.00081981257
-0.00054472457
-0.0019592051
-0.0012977717
-0.00092630932
-0.0019030245
-0.0017791674
-0.0012654064
-0.0017109765
-0.0022090649
-0.0014299964
-0.0014949882
-0.0025139712
-0.0013889661
-0.0025998618
-0.0012067638
-0.0013070482
-0.00039083242
-3.8486716e-05
-1.7606082e-05
-0.00085033536
-0.00018455296
-9.1468186e-05
-0.0013109183
-0.00047487829
-0.00025724688
-0.0016593074
-0.000919293
-0.00054790655
-0.0017985597
-0.001450358
-0.00092586074
-0.0017256172
-0.0019783051
-0.0012666359
-0.0015296481
-0.0024391372
-0.001439923
-0.0013193701
-0.0027501398
-0.0014087648
-0.0028222751
-0.0012312088
-0.0011511476
-0.00035960767
-4.2193936e-05
-1.8466042e-05
-0.00078112044
-0.00019968446
-9.3433905e-05
-0.0012034517
-0.00050943709
-0.00025729344
-0.0015227569
-0.00098308063
-0.0005405934
-0.0016464477
-0.0015497995
-0.00090924557
-0.0015691989
-0.0021072592
-0.0012470087
-0.001379321
-0.0025802724
-0.0014266799
-0.0011825895
-0.0028855701
-0.0014052495
-0.0029381704
-0.0012341936
-0.0010383118
-0.00032495105
-4.4316283e-05
-1.8780505e-05
-0.00070567668
-0.00020698343
-9.2891129e-05
-0.0010891787
-0.00052397718
-0.00025116873
-0.0013830874
-0.0010092078
-0.00052163456
-0.0015014262
-0.0015915889
-0.00087452431
-0.0014346103
-0.0021604842
-0.0012035486
-0.0012639332
-0.0026304554
-0.0013861744
-0.0010918686
-0.0029203414
-0.0013739272
-0.0029506845
-0.0012111078
-0.00097863477
-0.00028896998
-4.3975432e-05
-1.8468918e-05
-0.00063017561
-0.00020384996
-8.9654064e-05
-0.00097963999
-0.00051434338
-0.00023878808
-0.0012567885
-0.00099265637
-0.00049143195
-0.0013808248
-0.0015721587
-0.00082236078
-0.0013368812
-0.0021373261
-0.0011359281
-0.0011981326
-0.0025911499
-0.0013170322
-0.0010605802
-0.0028590352
-0.001312503
-0.0028684082
-0.0011589294
-0.00098317632
-0.00025104527
-4.1705486e-05
-1.7471868e-05
-0.00055080275
-0.00019201057
-8.3554322e-05
-0.00086555426
-0.00048327139
-0.0002199213
-0.0011290149
-0.00093577241
-0.00044955296
-0.0012677807
-0.0014919682
-0.00075214648
-0.0012613421
-0.0020364767
-0.0010438316
-0.0011692274
-0.0024649729
-0.0012169539
-0.0010806237
-0.0027052655
-0.0012176707
-0.0026982604
-0.001074069
-0.0010489317
-0.000212573
-3.7624501e-05
-1.5901451e-05
-0.00047098181
-0.00017213925
-7.5062672e-05
-0.00075145393
-0.00043325948
-0.00019551443
-0.0010018161
-0.00084420201
-0.0003973045
-0.0011596673
-0.0013575636
-0.00066471624
-0.0012016509
-0.0018634033
-0.00092626798
-0.0011732916
-0.002255014
-0.0010846151
-0.0011508052
-0.0024642598
-0.0010859243
-0.0024500393
-0.00095245408
-0.0011760002
-0.00017517838
-1.3755125e-05
-3.1614791e-05
-0.00039358255
-6.4291697e-05
-0.00014542556
-0.00064136017
-0.00016607448
-0.0003675707
-0.00088294779
-0.00033579207
-0.00072170862
-0.0010673614
-0.00056133951
-0.001174441
-0.0011657265
-0.0007835358
-0.0016296445
-0.0012082577
-0.00091789785
-0.0019795406
-0.0012615259
-0.00091436791
-0.0021540469
-0.00079051725
-0.0021395791
-0.0013538262
1.3621047e-06
-1.1254533e-06
-1.37472e-05
-2.4457772e-07
5.7241424e-06
-5.8729074e-06
-6.2757337e-05
-2.3493518e-08
1.2503377e-05
-1.7387273e-05
-0.00015848706
3.0205762e-06
1.8969054e-05
-4.2327193e-05
-0.00031401319
1.4082537e-05
2.324014e-05
-8.8649093e-05
-0.00051821564
4.1254025e-05
2.8687406e-05
-0.00015793377
-0.00072014959
8.9100286e-05
4.2524556e-05
-0.000238691
-0.0008441886
0.00015114468
6.9542379e-05
-0.00030963758
-0.00084263402
0.00021088589
-0.0003484476
-0.00072893508
0.0002514521
0.00010495579
2.2184666e-06
-2.9682149e-06
-1.6277145e-05
9.4007199e-06
-1.3771419e-05
-7.4346364e-05
2.0529175e-05
-3.6208395e-05
-0.00018782168
3.0528629e-05
-7.7850665e-05
-0.00037178038
3.4883216e-05
-0.00014552718
-0.00061219262
3.6240459e-05
-0.00023689482
-0.00084866406
4.273162e-05
-0.00033534711
-0.00099445015
6.0316406e-05
-0.00041549103
-0.00099765562
-0.0004541198
-0.000876227
8.9761703e-05
3.3081811e-06
-5.2040165e-06
-1.8544255e-05
1.3865822e-05
-2.3129724e-05
-8.4753727e-05
2.9788465e-05
-5.793964e-05
-0.00021411287
4.3018532e-05
-0.00011758884
-0.00042304505
4.6169173e-05
-0.00020688655
-0.000693938
4.1616747e-05
-0.00031917898
-0.00095699544
3.8951647e-05
-0.00043339931
-0.001116237
4.5860588e-05
-0.00052110406
-0.0011189668
-0.00055786311
-0.00098966254
6.5197532e-05
4.528512e-06
-7.6298531e-06
-2.0571576e-05
1.8836593e-05
-3.307141e-05
-9.402039e-05
3.9906557e-05
-8.0437029e-05
-0.00023736053
5.6150793e-05
-0.00015744976
-0.00046781523
5.7206277e-05
-0.00026636851
-0.00076393449
4.5826282e-05
-0.00039659647
-0.0010471308
3.3416784e-05
-0.00052403241
-0.0012139898
2.9913862e-05
-0.00061705697
-0.0012130472
-0.00064974121
-0.0010757691
3.8631553e-05
5.7499122e-06
-9.9089278e-06
-2.2251362e-05
2.3839068e-05
-4.2285002e-05
-0.00010176669
4.9974756e-05
-0.00010086155
-0.00025687988
6.8864525e-05
-0.00019264009
-0.00050533411
6.7272151e-05
-0.00031729663
-0.00082200389
4.8684087e-05
-0.00046114476
-0.0011204121
2.7374497e-05
-0.00059772126
-0.001291176
1.4700838e-05
-0.00069329093
-0.0012850195
-0.00072039677
-0.001140101
1.4349464e-05
7.0660922e-06
-1.1815041e-05
-2.3626024e-05
2.9248961e-05
-4.9761653e-05
-0.00010814
6.0921773e-05
-0.00011685845
-0.00027296926
8.2831774e-05
-0.00021898841
-0.00053615492
7.8899469e-05
-0.0003533965
-0.00086921308
5.3880459e-05
-0.00050428694
-0.001178847
2.4865527e-05
-0.00064436266
-0.0013510232
4.4026476e-06
-0.00073901065
-0.0013390669
-0.00075964054
-0.0011870734
-3.47397e-06
8.2332468e-06
-1.2934532e-05
-2.4719851e-05
3.4138433e-05
-5.3930888e-05
-0.00011320414
7.0881792e-05
-0.00012514112
-0.00028570753
9.5521866e-05
-0.00023116448
-0.00056037032
8.9535226e-05
-0.0003674486
-0.00090582161
5.9229197e-05
-0.00051738534
-0.001223231
2.4386463e-05
-0.000654239
-0.0013952036
-1.6014154e-06
-0.00074404307
-0.0013777446
-0.00075817821
-0.0012197984
-1.4474343e-05
9.2205241e-06
-1.2919058e-05
-2.5513378e-05
3.8383519e-05
-5.3454027e-05
-0.00011693505
7.9687485e-05
-0.00012292634
-0.00029518471
0.000106942
-0.00022469463
-0.00057844869
9.9528456e-05
-0.00035331521
-0.00093302896
6.5362263e-05
-0.00049289293
-0.0012557323
2.64878e-05
-0.00061862446
-0.0014267363
-2.7858743e-06
-0.00069923497
-0.0014045004
-0.00070765431
-0.001241779
-1.8294611e-05
9.9803672e-06
-1.1522439e-05
-2.6042436e-05
4.1791697e-05
-4.7418688e-05
-0.00011948884
8.6969507e-05
-0.00010837086
-0.00030179335
0.00011666375
-0.00019667172
-0.00059119392
0.00010857563
-0.00030703525
-0.00095223781
7.2074569e-05
-0.00042575802
-0.0012784216
3.0656235e-05
-0.00053150656
-0.0014482079
6.6023284e-08
-0.00059828911
-0.0014221056
-0.00060239532
-0.0012557753
-1.6053767e-05
1.0531139e-05
-8.7228759e-06
-2.6368746e-05
4.438049e-05
-3.5757165e-05
-0.0001211238
9.270976e-05
-8.1372887e-05
-0.00030612433
0.00012464994
-0.0001469679
-0.00059964936
0.00011658517
-0.00022836037
-0.00096498613
7.9150979e-05
-0.00031541026
-0.0012932798
3.6262769e-05
-0.00039247883
-0.0014618486
5.6632584e-06
-0.00044062647
-0.0014328159
-0.00044208356
-0.0012639361
-9.8210469e-06
1.0881905e-05
-4.7426101e-06
-2.6610203e-05
4.6086194e-05
-1.9358421e-05
-0.0001222423
9.6609413e-05
-4.388466e-05
-0.00030891976
0.00013024093
-7.8972941e-05
-0.00060485372
0.00012248134
-0.00012230845
-0.00097251241
8.4861575e-05
-0.00016850205
-0.0013016601
4.1284067e-05
-0.00020929292
-0.0014690887
1.1273954e-05
-0.00023461714
-0.0014380784
-0.00023490843
-0.0012676762
-3.1147728e-06
1.0960629e-05
7.3494635e-12
-2.6663152e-05
4.6617257e-05
2.7909922e-11
-0.00012257701
9.8010226e-05
6.7879328e-11
-0.00030992179
0.0001323469
8.440616e-11
-0.00060695065
0.00012475002
4.8269726e-11
-0.00097576466
8.7246458e-05
-1.0303869e-10
-0.0013053992
4.3606035e-05
-2.5013159e-10
-0.0014723182
1.4388554e-05
-9.1943546e-11
-0.0014403612
3.4178968e-10
-0.0012692423
1.100775e-06
1.096063e-05
4.7426182e-06
-2.6663149e-05
4.6617292e-05
1.9358462e-05
-0.00012257699
9.8010246e-05
4.388477e-05
-0.00030992176
0.00013234693
7.8973033e-05
-0.0006069506
0.00012474996
0.00012230838
-0.00097576459
8.7246393e-05
0.00016850171
-0.0013053991
4.3606019e-05
0.00020929239
-0.0014723182
1.4388611e-05
0.00023461694
-0.0014403611
0.00023490898
-0.0012692423
1.1009931e-06
1.0881891e-05
8.7228808e-06
-2.6610204e-05
4.6086229e-05
3.5757204e-05
-0.0001222423
9.6609422e-05
8.1372983e-05
-0.00030891977
0.00013024098
0.0001469679
-0.00060485375
0.00012248126
0.00022836011
-0.00097251246
8.4861467e-05
0.00031540971
-0.0013016602
4.1284e-05
0.00039247818
-0.0014690887
1.1274013e-05
0.00044062619
-0.0014380784
0.00044208384
-0.0012676762
-3.1143835e-06
1.0531109e-05
1.1522432e-05
-2.6368742e-05
4.4380502e-05
4.7418696e-05
-0.00012112378
9.2709721e-05
0.00010837086
-0.00030612428
0.00012464991
0.00019667152
-0.00059964929
0.00011658518
0.00030703479
-0.00096498601
7.9150956e-05
0.00042575724
-0.0012932796
3.6262714e-05
0.0005315056
-0.0014618484
5.6632274e-06
0.00059828863
-0.0014328159
0.00060239554
-0.0012639362
-9.8209255e-06
9.9803189e-06
1.2919036e-05
-2.6042435e-05
4.1791717e-05
5.3454004e-05
-0.00011948884
8.6969494e-05
0.00012292624
-0.00030179334
0.00011666367
0.00022469422
-0.00059119391
0.00010857564
0.00035331455
-0.00095223775
7.2074547e-05
0.0004928919
-0.0012784215
3.0656192e-05
0.00061862323
-0.0014482078
6.5915096e-08
0.00069923431
-0.0014221056
0.00070765478
-0.0012557753
-1.6054093e-05
9.2204512e-06
1.2934512e-05
-2.5513381e-05
3.8383565e-05
5.3930869e-05
-0.00011693505
7.9687457e-05
0.00012514096
-0.00029518473
0.00010694188
0.00023116395
-0.00057844873
9.9528392e-05
0.00036744771
-0.00093302899
6.5362181e-05
0.00051738403
-0.0012557323
2.6487762e-05
0.00065423753
-0.0014267363
-2.7858525e-06
0.00074404228
-0.0014045004
0.00075817908
-0.0012417791
-1.8294889e-05
8.2332479e-06
1.1815023e-05
-2.4719855e-05
3.413847e-05
4.9761611e-05
-0.00011320415
7.0881846e-05
0.00011685826
-0.00028570758
9.5521829e-05
0.00021898785
-0.0005603704
8.9535134e-05
0.00035339543
-0.00090582174
5.9229061e-05
0.00050428539
-0.0012232311
2.4386366e-05
0.00064436093
-0.0013952037
-1.6012642e-06
0.00073900977
-0.0013777446
0.00075964171
-0.0012197984
-1.4474174e-05
7.0661018e-06
9.9089104e-06
-2.3626032e-05
2.9248937e-05
4.228494e-05
-0.00010814004
6.0921723e-05
0.00010086138
-0.00027296935
8.2831659e-05
0.0001926396
-0.00053615508
7.8899314e-05
0.0003172955
-0.00086921332
5.3880197e-05
0.00046114306
-0.0011788472
2.4865351e-05
0.00059771937
-0.0013510234
4.4028177e-06
0.00069328995
-0.001339067
0.00072039788
-0.0011870734
-3.4733903e-06
5.7499299e-06
7.6298439e-06
-2.2251363e-05
2.3839069e-05
3.3071364e-05
-0.00010176669
4.9974622e-05
8.0436914e-05
-0.00025687987
6.8864307e-05
0.00015744936
-0.00050533412
6.7271861e-05
0.00026636747
-0.00082200391
4.868372e-05
0.00039659479
-0.0011204121
2.737423e-05
0.00052403052
-0.001291176
1.4700924e-05
0.0006170558
-0.0012850196
0.00064974165
-0.001140101
1.4350292e-05
4.5284881e-06
5.2040068e-06
-2.0571574e-05
1.8836442e-05
2.3129683e-05
-9.4020375e-05
3.990617e-05
5.7939541e-05
-0.00023736049
5.6150216e-05
0.0001175885
-0.00046781515
5.7205642e-05
0.00020688572
-0.00076393439
4.5825621e-05
0.00031917747
-0.0010471307
3.3416305e-05
0.00043339747
-0.0012139898
2.9913848e-05
0.00052110254
-0.0012130472
0.00055786297
-0.0010757691
3.8632332e-05
3.3081414e-06
2.9682271e-06
-1.8544251e-05
1.3865677e-05
1.3771453e-05
-8.4753704e-05
2.9788194e-05
3.6208412e-05
-0.0002141128
4.3018059e-05
7.7850496e-05
-0.00042304494
4.6168441e-05
0.00014552655
-0.00069393783
4.1615909e-05
0.00023689352
-0.00095699527
3.8950869e-05
0.00033534542
-0.0011162369
4.5860311e-05
0.00041548931
-0.0011189667
0.0004541191
-0.00098966254
6.5197684e-05
2.2184448e-06
1.1254647e-06
-1.6277145e-05
9.4006572e-06
5.8729296e-06
-7.434636e-05
2.0529078e-05
1.7387235e-05
-0.00018782167
3.0528464e-05
4.2326971e-05
-0.00037178035
3.4882875e-05
8.8648504e-05
-0.00061219257
3.6239894e-05
0.00015793274
-0.00084866403
4.2730755e-05
0.0002386897
-0.00099445013
6.0315299e-05
0.00030963602
-0.00099765564
0.00034844661
-0.00087622707
8.9760766e-05
1.3621197e-06
-1.3747203e-05
-2.4459706e-07
5.7242146e-06
-6.2757345e-05
-2.3576646e-08
1.2503487e-05
-0.00015848707
3.0203765e-06
1.8969256e-05
-0.00031401321
1.4082115e-05
2.324053e-05
-0.00051821567
4.1253283e-05
2.868786e-05
-0.00072014966
8.9099104e-05
4.2524931e-05
-0.00084418866
0.00015114344
6.9541614e-05
-0.00084263412
0.00021088561
-0.00072893516
0.00025145196
0.00010495434
-2.7813271e-07
1.5894034e-06
-1.3554983e-05
-1.5034874e-06
-1.6065198e-06
6.9483155e-06
-6.1768377e-05
-6.6088932e-06
-4.6880396e-06
1.6662314e-05
-0.00015614079
-1.5927092e-05
-9.5747865e-06
3.0676137e-05
-0.00031022138
-2.9581261e-05
-1.5187983e-05
4.57469e-05
-0.00051345531
-4.4894119e-05
-1.9662143e-05
5.5822701e-05
-0.0007150326
-5.6465615e-05
-2.1581304e-05
5.6014601e-05
-0.00083890043
-5.9383689e-05
-2.1012305e-05
4.6830173e-05
-0.00083705951
-5.2973756e-05
3.3097535e-05
-0.00072326361
-4.0102436e-05
-1.9678871e-05
-2.9055773e-07
1.6016145e-06
-1.5998796e-05
-1.6949108e-06
6.9652462e-06
-7.2958929e-05
-4.798151e-06
1.6558994e-05
-0.00018461511
-9.1898147e-06
3.0070496e-05
-0.00036678305
-1.3309477e-05
4.3948948e-05
-0.00060627497
-1.52699e-05
5.1976085e-05
-0.000842857
-1.4201126e-05
4.9540885e-05
-0.00098904523
-1.0838653e-05
3.8035933e-05
-0.00099222386
2.3516585e-05
-0.00087042369
-7.0609982e-06
-2.6489684e-07
1.5197669e-06
-1.8197514e-05
-1.6065109e-06
6.5850392e-06
-8.3031934e-05
-4.5568232e-06
1.5572205e-05
-0.00021017583
-8.4615062e-06
2.7981659e-05
-0.0004170516
-1.1411458e-05
4.0112615e-05
-0.00068715178
-1.1441006e-05
4.5855091e-05
-0.000950845
-8.1496797e-06
4.1097539e-05
-0.001111085
-3.0799238e-06
2.8045955e-05
-0.0011140466
1.3631902e-05
-0.00098414763
1.2899139e-06
-2.2670386e-07
1.3538343e-06
-2.0178935e-05
-1.4637558e-06
5.8585389e-06
-9.2056824e-05
-4.1670549e-06
1.3819073e-05
-0.00023290406
-7.4512893e-06
2.4639197e-05
-0.00046118849
-9.2057554e-06
3.4699931e-05
-0.00075676735
-7.5662684e-06
3.8235957e-05
-0.0010411511
-2.6866952e-06
3.1736118e-05
-0.001209508
3.1607688e-06
1.8082497e-05
-0.0012089312
4.609066e-06
-0.0010707622
7.1767454e-06
-1.6969298e-07
1.1180842e-06
-2.1845931e-05
-1.2460844e-06
4.8604866e-06
-9.9692275e-05
-3.625544e-06
1.1504482e-05
-0.00025218587
-6.2453704e-06
2.0454755e-05
-0.00049852993
-6.8702064e-06
2.8361659e-05
-0.00081504086
-3.817416e-06
2.9977424e-05
-0.0011152064
2.1903828e-06
2.2396854e-05
-0.0012878445
8.2717436e-06
8.9862232e-06
-0.0012820046
-3.021831e-06
-0.0011357704
1.1572063e-05
-1.2005195e-07
8.5744482e-07
-2.3245336e-05
-1.0543304e-06
3.7583288e-06
-0.00010610354
-3.1368003e-06
8.9700765e-06
-0.00026835239
-5.1359376e-06
1.596237e-05
-0.00052966341
-4.7164373e-06
2.178376e-05
-0.00086305474
-4.1369484e-07
2.1839163e-05
-0.0011750114
6.4644825e-06
1.3828694e-05
-0.0013493332
1.2520268e-05
1.3306822e-06
-0.0013374671
-8.8992091e-06
-0.0011836205
1.4944785e-05
-6.3451737e-08
5.9710788e-07
-2.4396073e-05
-8.3492928e-07
2.6621945e-06
-0.00011133655
-2.5904292e-06
6.4646455e-06
-0.00028144661
-3.9639924e-06
1.158364e-05
-0.00055461804
-2.5843749e-06
1.5553824e-05
-0.00090097131
2.7671701e-06
1.4509171e-05
-0.0012212526
1.0257904e-05
6.6976049e-06
-0.0013955633
1.6099307e-05
-4.3866818e-06
-0.0013778687
-1.2713037e-05
-0.0012174633
1.7577988e-05
-9.0569913e-09
3.6707338e-07
-2.5274269e-05
-6.2413625e-07
1.6902309e-06
-0.00011534805
-2.0681344e-06
4.2351548e-06
-0.00029151119
-2.8684427e-06
7.7082433e-06
-0.000573773
-6.4219874e-07
1.0157907e-05
-0.00092985931
5.5816222e-06
8.4984942e-06
-0.0012559455
1.3524429e-05
1.4413256e-06
-0.0014294229
1.9086618e-05
-7.8518335e-06
-0.0014065975
-1.4279985e-05
-0.001240802
1.9676542e-05
3.8848805e-08
1.9024706e-07
-2.5904443e-05
-4.3901973e-07
9.3093437e-07
-0.00011825171
-1.6089663e-06
2.4615986e-06
-0.00029884984
-1.9045346e-06
4.599407e-06
-0.00058778952
1.0230142e-06
5.9310442e-06
-0.0009509385
7.947181e-06
4.1267417e-06
-0.001280974
1.6215351e-05
-1.6890795e-06
-0.0014533457
2.1501586e-05
-8.9090079e-06
-0.0014263347
-1.3553523e-05
-0.001256366
2.1365828e-05
7.6069352e-08
7.7390476e-08
-2.6331946e-05
-2.9685959e-07
4.2487708e-07
-0.00012024484
-1.2559826e-06
1.2257535e-06
-0.00030392937
-1.1666435e-06
2.3813375e-06
-0.00059752064
2.3238703e-06
2.9692021e-06
-0.0009655148
9.7861311e-06
1.4542355e-06
-0.0012980695
1.8293539e-05
-2.7048355e-06
-0.0014693402
2.3375017e-05
-7.6412563e-06
-0.0014391651
-1.0639398e-05
-0.001266186
2.2710699e-05
9.9433842e-08
2.0538696e-08
-2.6652771e-05
-2.066629e-07
1.4111088e-07
-0.00012165246
-1.0206502e-06
4.6145264e-07
-0.00030734147
-6.501056e-07
9.396259e-07
-0.00060378255
3.2336106e-06
1.1248028e-06
-0.0009745517
1.1066027e-05
2.5671612e-07
-0.001308295
1.9738348e-05
-1.9171546e-06
-0.0014785486
2.4716527e-05
-4.4195973e-06
-0.0014462783
-5.8833802e-06
-0.0012714052
2.3689423e-05
1.1104826e-07
-8.0512797e-12
-2.6753646e-05
-1.6210616e-07
-2.8771881e-11
-0.00012216275
-9.0310163e-07
-6.3172333e-11
-0.0003087193
-3.916571e-07
-1.4377146e-10
-0.00060652236
3.6891835e-06
-2.6136855e-10
-0.00097872045
1.1704009e-05
-3.9399297e-10
-0.001313157
2.0462062e-05
-3.814539e-10
-0.0014829931
2.5414245e-05
-3.3973585e-11
-0.0014497329
5.9851775e-10
-0.0012739244
2.4212385e-05
1.1104728e-07
-2.0558086e-08
-2.6753642e-05
-1.6209347e-07
-1.4117784e-07
-0.00012216273
-9.0308801e-07
-4.6159855e-07
-0.00030871926
-3.9163964e-07
-9.399478e-07
-0.00060652229
3.6891833e-06
-1.125385e-06
-0.00097872035
1.1704024e-05
-2.5755997e-07
-0.0013131568
2.0462099e-05
1.9163516e-06
-0.001482993
2.5414299e-05
4.4195104e-06
-0.0014497329
5.8845532e-06
-0.0012739244
2.4212464e-05
9.9421953e-08
-7.7414993e-08
-2.6652771e-05
-2.0666694e-07
-4.2496182e-07
-0.00012165246
-1.0206718e-06
-1.2259396e-06
-0.00030734147
-6.5012833e-07
-2.3817307e-06
-0.00060378256
3.2335752e-06
-2.9698996e-06
-0.0009745517
1.1066031e-05
-1.4552157e-06
-0.001308295
1.9738419e-05
2.703906e-06
-0.0014785486
2.4716654e-05
7.6411131e-06
-0.0014462783
1.0640519e-05
-0.0012714052
2.3689615e-05
7.6057411e-08
-1.9027862e-07
-2.6331941e-05
-2.9686595e-07
-9.3103904e-07
-0.00012024482
-1.2560147e-06
-2.4618273e-06
-0.00030392931
-1.1666851e-06
-4.599889e-06
-0.00059752053
2.3238682e-06
-5.9318766e-06
-0.00096551464
9.7861911e-06
-4.127914e-06
-0.0012980693
1.8293701e-05
1.6879584e-06
-0.00146934
2.3375252e-05
8.9087582e-06
-0.001439165
1.3554555e-05
-0.0012661859
2.2711021e-05
3.883257e-08
-3.6711189e-07
-2.5904441e-05
-4.3902824e-07
-1.6903489e-06
-0.0001182517
-1.6090079e-06
-4.235424e-06
-0.00029884981
-1.9045907e-06
-7.7088237e-06
-0.00058778947
1.0230343e-06
-1.0158893e-05
-0.0009509384
7.9473048e-06
-8.4998578e-06
-0.0012809738
1.6215629e-05
-1.4426196e-06
-0.0014533456
2.1501968e-05
7.8514489e-06
-0.0014263346
1.4280835e-05
-0.001256366
2.1366391e-05
-9.0875842e-09
-5.9714602e-07
-2.5274269e-05
-6.2415903e-07
-2.6623044e-06
-0.00011534805
-2.0682232e-06
-6.4649378e-06
-0.00029151119
-2.8685178e-06
-1.1584297e-05
-0.000573773
-6.4217193e-07
-1.5554942e-05
-0.0009298593
5.5818045e-06
-1.451069e-05
-0.0012559455
1.3524793e-05
-6.6990386e-06
-0.0014294228
1.908716e-05
4.3861791e-06
-0.0014065975
1.2713635e-05
-0.001240802
1.9677384e-05
-6.3453647e-08
-8.5748133e-07
-2.4396076e-05
-8.3493111e-07
-3.758429e-06
-0.00011133657
-2.5904538e-06
-8.970377e-06
-0.00028144664
-3.9639893e-06
-1.5963063e-05
-0.0005546181
-2.5842872e-06
-2.1784972e-05
-0.00090097138
2.767386e-06
-2.1840797e-05
-0.0012212527
1.0258296e-05
-1.3830278e-05
-0.0013955633
1.6099959e-05
-1.331333e-06
-0.0013778687
8.8996377e-06
-0.0012174633
1.7578919e-05
-1.2005096e-07
-1.1181246e-06
-2.3245343e-05
-1.0543433e-06
-4.8605961e-06
-0.00010610358
-3.1368202e-06
-1.1504784e-05
-0.00026835247
-5.1359562e-06
-2.0455446e-05
-0.00052966355
-4.716386e-06
-2.8362915e-05
-0.00086305494
-4.135589e-07
-2.9979155e-05
-0.0011750117
6.4648377e-06
-2.2398627e-05
-0.0013493334
1.2520938e-05
-8.9871351e-06
-0.0013374673
3.0222964e-06
-0.0011836206
1.4945502e-05
-1.6969047e-07
-1.3538666e-06
-2.1845931e-05
-1.2460647e-06
-5.8586303e-06
-9.9692276e-05
-3.6255418e-06
-1.3819308e-05
-0.00025218587
-6.2454049e-06
-2.4639774e-05
-0.00049852994
-6.8702615e-06
-3.4701085e-05
-0.00081504087
-3.8174245e-06
-3.8237688e-05
-0.0011152064
2.1906003e-06
-3.1738091e-05
-0.0012878445
8.2723131e-06
-1.8083797e-05
-0.0012820046
-4.6084611e-06
-0.0011357704
1.1572476e-05
-2.2671743e-07
-1.5197935e-06
-2.0178931e-05
-1.4638029e-06
-6.5851188e-06
-9.2056808e-05
-4.1671907e-06
-1.557241e-05
-0.00023290402
-7.4515407e-06
-2.7982166e-05
-0.00046118842
-9.20609e-06
-4.0113652e-05
-0.00075676725
-7.5666314e-06
-4.5856776e-05
-0.001041151
-2.6869505e-06
-4.1099631e-05
-0.0012095079
3.1608066e-06
-2.8047606e-05
-0.0012089311
-1.3631314e-05
-0.0010707622
7.1767698e-06
-2.6492292e-07
-1.6016157e-06
-1.8197509e-05
-1.6065936e-06
-6.9652465e-06
-8.3031911e-05
-4.5570058e-06
-1.655903e-05
-0.00021017577
-8.4618601e-06
-3.0070723e-05
-0.00041705149
-1.141208e-05
-4.3949625e-05
-0.00068715162
-1.1441965e-05
-5.1977358e-05
-0.00095084481
-8.150854e-06
-4.9542711e-05
-0.0011110849
-3.0808581e-06
-3.8037786e-05
-0.0011140465
-2.3516432e-05
-0.00098414764
1.2892885e-06
-2.9057655e-07
-1.5893933e-06
-1.5998795e-05
-1.6949801e-06
-6.9482819e-06
-7.2958924e-05
-4.7983093e-06
-1.6662281e-05
-0.0001846151
-9.1901925e-06
-3.0676187e-05
-0.00036678303
-1.3310307e-05
-4.5747186e-05
-0.00060627493
-1.5271272e-05
-5.5823453e-05
-0.00084285697
-1.4202831e-05
-5.6016113e-05
-0.0009890452
-1.0840693e-05
-4.6831768e-05
-0.00099222387
-3.3097912e-05
-0.00087042376
-7.0625523e-06
-2.7814317e-07
-1.3554985e-05
-1.5034676e-06
-1.6065441e-06
-6.1768386e-05
-6.60883e-06
-4.6880937e-06
-0.00015614081
-1.5926988e-05
-9.5748887e-06
-0.00031022142
-2.9581188e-05
-1.5188051e-05
-0.00051345537
-4.4894297e-05
-1.9662193e-05
-0.00071503268
-5.6466338e-05
-2.1581531e-05
-0.00083890051
-5.9384963e-05
-2.1013381e-05
-0.0008370596
-5.2974472e-05
-0.00072326368
-4.0102406e-05
-1.9680397e-05
-1.1445671e-07
-2.1302895e-07
-1.3395763e-05
1.6826561e-07
-4.693561e-07
-1.0317585e-06
-6.1216036e-05
8.3431064e-07
-1.2158032e-06
-2.8836068e-06
-0.00015485689
2.3461277e-06
-2.636198e-06
-6.705307e-06
-0.00030752685
5.4311204e-06
-4.5919936e-06
-1.3777645e-05
-0.00050878939
1.1067453e-05
-5.8156688e-06
-2.5067357e-05
-0.00070872068
1.9979033e-05
-4.0219935e-06
-3.9969098e-05
-0.00083239377
3.1668691e-05
2.5887784e-06
-5.5416367e-05
-0.00083207352
4.3819547e-05
-6.6642629e-05
-0.00072042804
5.3278261e-05
1.3117549e-05
-1.4374666e-07
-2.697085e-07
-1.5798373e-05
-5.6330881e-07
-1.2884051e-06
-7.2282737e-05
-1.4302211e-06
-3.5571306e-06
-0.00018307471
-3.1339904e-06
-8.2003042e-06
-0.00036358434
-5.6186033e-06
-1.678568e-05
-0.00060078239
-7.5807789e-06
-3.0503977e-05
-0.00083545829
-6.6192311e-06