/*--------------------------------*- C++ -*----------------------------------*\
| =========                 |                                                 |
| \\      /  F ield         | OpenFOAM: The Open Source CFD Toolbox           |
|  \\    /   O peration     | Version:  2406                                  |
|   \\  /    A nd           | Website:  www.openfoam.com                      |
|    \\/     M anipulation  |                                                 |
\*---------------------------------------------------------------------------*/
FoamFile
{
    version     2.0;
    format      ascii;
    arch        "LSB;label=32;scalar=64";
    class       volVectorField;
    location    "8.5";
    object      U;
}
// * * * * * * * * * * * * * * * * * * * * * * * * * * * * * * * * * * * * * //

dimensions      [0 1 -1 0 0 0 0];

internalField   nonuniform List<vector> 
34560
(
(-0.073776068 0.014107565 0.030477539)
(-0.26029776 0.04634368 0.099852887)
(-0.5231005 0.088548062 0.18192868)
(-0.85949289 0.1366566 0.26572989)
(-1.2340417 0.18513689 0.33302727)
(-1.5859703 0.23193264 0.36966278)
(-1.8600668 0.28009868 0.37477714)
(-2.0340882 0.33100439 0.35829881)
(-2.1150716 0.37844694 0.33400032)
(-0.074435905 0.016908698 0.034111766)
(-0.26868635 0.055137877 0.11135244)
(-0.54850986 0.10383162 0.20082219)
(-0.90770597 0.1568161 0.28855436)
(-1.299266 0.20731517 0.35397434)
(-1.6506105 0.25427601 0.38428351)
(-1.9055486 0.30252248 0.38203257)
(-2.0516226 0.35317916 0.36007255)
(-2.1078281 0.40074764 0.33082914)
(-0.07149923 0.017610852 0.035402246)
(-0.26698336 0.058341689 0.1163028)
(-0.55808381 0.11066162 0.20975797)
(-0.93514024 0.16672581 0.29995498)
(-1.3382369 0.21842167 0.36435008)
(-1.6836507 0.26534877 0.39067657)
(-1.917027 0.31322527 0.38390109)
(-2.0371027 0.36528221 0.35833822)
(-2.0710245 0.41222514 0.32691308)
(-0.065402248 0.018086841 0.036512403)
(-0.25603201 0.060369312 0.12019869)
(-0.55248607 0.11452051 0.21612871)
(-0.94229721 0.17142896 0.3071789)
(-1.3525642 0.2224025 0.36973686)
(-1.6888658 0.26827198 0.39298963)
(-1.9012378 0.3162887 0.38370234)
(-1.9942018 0.36711866 0.356735)
(-2.0073522 0.41309171 0.32561962)
(-0.055959604 0.017459902 0.036934642)
(-0.23509508 0.059246312 0.12202156)
(-0.53072614 0.11331957 0.21925971)
(-0.92832063 0.16953712 0.31045436)
(-1.3428755 0.21894491 0.37183188)
(-1.6696823 0.26285863 0.39355053)
(-1.8579613 0.30923597 0.38327897)
(-1.9247222 0.35848674 0.35688438)
(-1.9179372 0.40330115 0.32743957)
(-0.043708801 0.016040559 0.036807558)
(-0.20541607 0.055542763 0.12207336)
(-0.49428672 0.1074048 0.21963542)
(-0.89517439 0.16104517 0.31105136)
(-1.3105143 0.20743581 0.37204658)
(-1.6243389 0.24862887 0.39367912)
(-1.7881763 0.29279734 0.38425376)
(-1.8296052 0.33958307 0.36009813)
(-1.8033069 0.38282372 0.33305779)
(-0.02924257 0.01406469 0.036594806)
(-0.16819464 0.049747902 0.12163649)
(-0.44410584 0.097387144 0.21908752)
(-0.84246452 0.1465466 0.31066354)
(-1.2545129 0.18867823 0.37214889)
(-1.5536859 0.2261799 0.39527343)
(-1.693053 0.26689674 0.3883291)
(-1.7097364 0.31065652 0.36722108)
(-1.6645065 0.35137746 0.34299389)
(-0.013179336 0.011498168 0.036303256)
(-0.12505899 0.041833341 0.12090013)
(-0.38247062 0.083347986 0.21822469)
(-0.77284952 0.12638404 0.31048128)
(-1.1777503 0.16319238 0.37359189)
(-1.4607495 0.19611026 0.39962141)
(-1.5760328 0.23202172 0.39650072)
(-1.5682008 0.27183704 0.37885051)
(-1.5048114 0.30886218 0.35741195)
(0.0032684186 0.0086255405 0.036074277)
(-0.079442432 0.032514578 0.12030698)
(-0.31459349 0.066263807 0.21776596)
(-0.692564 0.10163475 0.31134155)
(-1.0869656 0.13209498 0.37704763)
(-1.352447 0.15997074 0.40676771)
(-1.4448442 0.18869543 0.40882193)
(-1.412733 0.22346 0.39469975)
(-1.3321952 0.25533852 0.37563103)
(0.018375116 0.0057857004 0.035966426)
(-0.036516268 0.022736125 0.1200588)
(-0.2487429 0.047523636 0.21800635)
(-0.61195271 0.073857134 0.31341828)
(-0.99368245 0.096804704 0.38225153)
(-1.2409339 0.11844618 0.41599392)
(-1.3138941 0.13906288 0.42333714)
(-1.2586057 0.16661054 0.4129015)
(-1.1626683 0.19159204 0.39551925)
(0.030030268 0.0032900848 0.03599898)
(-0.0027779364 0.013373229 0.12019512)
(-0.19557354 0.028480884 0.21880575)
(-0.54495769 0.044676097 0.316094)
(-0.91446702 0.058929537 0.38783627)
(-1.1459368 0.072638874 0.42531433)
(-1.2028594 0.085459862 0.43670228)
(-1.128514 0.10308032 0.42971507)
(-1.0202811 0.11918964 0.41335386)
(0.036662759 0.0010918783 0.036058956)
(0.016677021 0.0044792747 0.12041412)
(-0.16435337 0.0095872851 0.21947474)
(-0.50497498 0.01504367 0.31794029)
(-0.86674984 0.019854982 0.3914996)
(-1.0886927 0.024556047 0.43136495)
(-1.1360922 0.028962566 0.44515286)
(-1.0504867 0.035122602 0.44025649)
(-0.93518023 0.040777999 0.42437229)
(0.036662743 -0.0010919957 0.036058971)
(0.016676964 -0.0044796149 0.12041415)
(-0.16435348 -0.0095878111 0.21947476)
(-0.50497515 -0.015044401 0.31794035)
(-0.86675006 -0.019855851 0.39149967)
(-1.088693 -0.024556943 0.431365)
(-1.1360923 -0.028963301 0.44515286)
(-1.0504867 -0.035122826 0.44025641)
(-0.93518017 -0.040777577 0.42437215)
(0.030030225 -0.0032901772 0.035998998)
(-0.002778086 -0.0133735 0.12019517)
(-0.19557382 -0.028481332 0.2188058)
(-0.5449581 -0.04467678 0.31609412)
(-0.91446753 -0.058930411 0.38783641)
(-1.1459373 -0.072639792 0.42531443)
(-1.2028598 -0.085460612 0.43670227)
(-1.1285142 -0.10308056 0.42971489)
(-1.020281 -0.11918925 0.41335354)
(0.018375057 -0.0057857657 0.035966438)
(-0.036516476 -0.022736327 0.12005883)
(-0.2487433 -0.047524008 0.21800647)
(-0.61195323 -0.073857756 0.31341849)
(-0.99368298 -0.096805563 0.38225172)
(-1.2409344 -0.11844713 0.41599404)
(-1.3138946 -0.13906369 0.42333713)
(-1.2586061 -0.16661085 0.41290131)
(-1.1626683 -0.19159171 0.39551887)
(0.0032683601 -0.0086255899 0.036074344)
(-0.079442634 -0.032514755 0.1203071)
(-0.31459385 -0.066264168 0.21776613)
(-0.69256445 -0.10163534 0.3113418)
(-1.086966 -0.13209578 0.37704787)
(-1.3524475 -0.15997165 0.40676789)
(-1.4448447 -0.18869625 0.40882199)
(-1.4127335 -0.22346041 0.39469961)
(-1.3321952 -0.2553383 0.37563072)
(-0.013179396 -0.011498226 0.03630337)
(-0.12505919 -0.041833543 0.12090031)
(-0.382471 -0.083348383 0.21822491)
(-0.77285005 -0.12638462 0.31048158)
(-1.1777509 -0.16319314 0.3735922)
(-1.4607501 -0.19611111 0.39962169)
(-1.5760334 -0.23202253 0.39650092)
(-1.5682012 -0.27183752 0.37885049)
(-1.5048114 -0.30886205 0.35741182)
(-0.029242633 -0.014064748 0.036594879)
(-0.16819486 -0.049748096 0.12163659)
(-0.44410622 -0.097387513 0.21908768)
(-0.8424651 -0.14654714 0.3106638)
(-1.2545137 -0.18867891 0.3721492)
(-1.5536865 -0.22618068 0.39527377)
(-1.6930536 -0.26689752 0.38832945)
(-1.7097367 -0.31065704 0.36722124)
(-1.6645065 -0.35137734 0.34299392)
(-0.043708843 -0.016040597 0.036807595)
(-0.20541621 -0.055542891 0.12207342)
(-0.49428698 -0.10740507 0.21963553)
(-0.89517486 -0.16104561 0.31105154)
(-1.310515 -0.20743643 0.37204691)
(-1.6243395 -0.24862957 0.39367961)
(-1.7881768 -0.29279806 0.38425429)
(-1.8296055 -0.3395836 0.36009841)
(-1.803307 -0.38282363 0.33305795)
(-0.055959646 -0.017459921 0.03693469)
(-0.23509523 -0.059246425 0.12202159)
(-0.53072643 -0.11331978 0.21925979)
(-0.9283211 -0.16953746 0.31045454)
(-1.3428761 -0.21894547 0.37183227)
(-1.6696827 -0.26285928 0.3935511)
(-1.8579617 -0.30923654 0.3832796)
(-1.9247226 -0.3584871 0.35688474)
(-1.9179374 -0.40330117 0.32743979)
(-0.065402281 -0.018086844 0.036512417)
(-0.25603213 -0.060369397 0.12019864)
(-0.55248628 -0.11452063 0.21612874)
(-0.94229748 -0.1714292 0.3071791)
(-1.3525645 -0.22240292 0.36973728)
(-1.688866 -0.26827252 0.39299019)
(-1.901238 -0.31628911 0.38370287)
(-1.9942021 -0.36711881 0.35673548)
(-2.0073523 -0.41309144 0.32561971)
(-0.071499244 -0.017610812 0.035402243)
(-0.26698341 -0.058341651 0.11630277)
(-0.5580839 -0.11066159 0.20975801)
(-0.93514038 -0.16672592 0.29995514)
(-1.3382371 -0.21842193 0.36435044)
(-1.683651 -0.26534918 0.39067707)
(-1.9170272 -0.31322552 0.38390157)
(-2.037103 -0.36528214 0.35833851)
(-2.0710246 -0.41222467 0.32691311)
(-0.074435926 -0.01690864 0.034111739)
(-0.26868642 -0.055137784 0.11135237)
(-0.54851 -0.10383154 0.20082214)
(-0.90770617 -0.15681616 0.28855438)
(-1.2992663 -0.20731536 0.35397454)
(-1.6506108 -0.25427617 0.38428379)
(-1.9055489 -0.30252259 0.38203278)
(-2.0516228 -0.35317903 0.36007281)
(-2.1078284 -0.40074717 0.33082921)
(-0.073776078 -0.014107527 0.030477504)
(-0.26029779 -0.046343633 0.099852794)
(-0.52310055 -0.088548045 0.18192859)
(-0.85949297 -0.13665671 0.26572982)
(-1.2340418 -0.18513712 0.33302722)
(-1.5859706 -0.23193281 0.36966288)
(-1.8600671 -0.28009868 0.37477747)
(-2.0340885 -0.33100432 0.35829889)
(-2.1150717 -0.37844716 0.33400061)
(-0.08599475 -0.00014395207 -0.00025847986)
(-0.28558404 -0.00083296804 -0.0013589819)
(-0.54332306 -0.0023189488 -0.0037149766)
(-0.8498205 -0.0056251041 -0.0075858)
(-1.1765149 -0.012019148 -0.01264469)
(-1.479701 -0.02198036 -0.017834776)
(-1.7161762 -0.034700168 -0.022089722)
(-1.8662138 -0.048706485 -0.024945508)
(-1.9338079 -0.0621707 -0.026320035)
(-0.09362526 -0.0012041131 -0.0011739886)
(-0.30995224 -0.0040437833 -0.0041778353)
(-0.58697605 -0.0078632623 -0.0087432001)
(-0.91094268 -0.013601905 -0.014706295)
(-1.246578 -0.022414868 -0.021037738)
(-1.5446168 -0.034526923 -0.026176877)
(-1.7620375 -0.048877434 -0.029221788)
(-1.8865571 -0.063893964 -0.03038745)
(-1.934565 -0.077725266 -0.030548822)
(-0.09982537 -0.002442772 -0.0019970593)
(-0.32987572 -0.0077274811 -0.0067345878)
(-0.62264316 -0.014075077 -0.01330328)
(-0.96016385 -0.022218246 -0.021023236)
(-1.3009844 -0.033113596 -0.028120438)
(-1.5912277 -0.046790032 -0.032701669)
(-1.789269 -0.062119118 -0.034253063)
(-1.891207 -0.077558978 -0.033651395)
(-1.9244921 -0.091384761 -0.032385649)
(-0.10522579 -0.0038812405 -0.0027326113)
(-0.34709126 -0.011903131 -0.0090090049)
(-0.65314132 -0.020919383 -0.017349804)
(-1.001523 -0.031364023 -0.026515947)
(-1.3453985 -0.043980112 -0.033988957)
(-1.6273022 -0.058719947 -0.037683797)
(-1.8076541 -0.074571295 -0.037612456)
(-1.8903762 -0.090050339 -0.035314452)
(-1.9117143 -0.10350928 -0.032761589)
(-0.10943868 -0.0053196586 -0.0032576339)
(-0.36072065 -0.016029465 -0.01065809)
(-0.6775202 -0.027569088 -0.020348814)
(-1.0346295 -0.04003211 -0.030557548)
(-1.3805679 -0.053964235 -0.038065995)
(-1.6549363 -0.069334679 -0.04067726)
(-1.8202789 -0.085305 -0.039034864)
(-1.8872052 -0.10044489 -0.035278199)
(-1.8987438 -0.11308769 -0.031718032)
(-0.11268915 -0.0066287281 -0.0034840041)
(-0.371348 -0.019726249 -0.01142451)
(-0.69665781 -0.033390561 -0.021918991)
(-1.0606162 -0.047364373 -0.032720698)
(-1.4078944 -0.062034668 -0.039959013)
(-1.6757839 -0.077471395 -0.041405271)
(-1.8287773 -0.093041852 -0.038339689)
(-1.8830569 -0.10741646 -0.033428254)
(-1.8866157 -0.1188749 -0.029173299)
(-0.11526423 -0.0076119899 -0.0034260608)
(-0.37971476 -0.022426391 -0.011335533)
(-0.71163718 -0.037490827 -0.022060635)
(-1.0807686 -0.052243655 -0.032985109)
(-1.4287376 -0.066954014 -0.039684354)
(-1.6911192 -0.081827367 -0.039936589)
(-1.8341467 -0.096435698 -0.035649717)
(-1.878521 -0.1096238 -0.0298726)
(-1.8756897 -0.11961941 -0.025225847)
(-0.11700375 -0.0080097807 -0.0030725014)
(-0.38551469 -0.023427567 -0.010374228)
(-0.72223392 -0.038809417 -0.020774642)
(-1.0951911 -0.053385262 -0.03141239)
(-1.4436211 -0.067340313 -0.037405194)
(-1.7017189 -0.08099403 -0.036534616)
(-1.8370785 -0.094131513 -0.031253058)
(-1.8739332 -0.10572239 -0.024904793)
(-1.8660938 -0.11405238 -0.020138147)
(-0.11801745 -0.0076241584 -0.0024937177)
(-0.38907709 -0.022185022 -0.0087447647)
(-0.7290186 -0.036515558 -0.018385263)
(-1.1046856 -0.049774851 -0.02843164)
(-1.4534915 -0.062088904 -0.03364548)
(-1.7084686 -0.073853347 -0.031815252)
(-1.8382017 -0.084936371 -0.025731137)
(-1.8695179 -0.094551827 -0.019065535)
(-1.857875 -0.10110938 -0.014397604)
(-0.11852065 -0.0063533432 -0.0018126591)
(-0.39103819 -0.018424576 -0.0068048805)
(-0.73301058 -0.030198537 -0.015464803)
(-1.1104888 -0.040913944 -0.024783064)
(-1.4595588 -0.05065521 -0.029260943)
(-1.7123703 -0.059786005 -0.026668557)
(-1.8381602 -0.06825282 -0.020006682)
(-1.865532 -0.075511868 -0.013194963)
(-1.8511112 -0.080236874 -0.0087457369)
(-0.11902498 -0.0042547563 -0.0012117364)
(-0.39264756 -0.012298573 -0.0050819334)
(-0.73587453 -0.020089901 -0.012836721)
(-1.1142744 -0.027095341 -0.021490167)
(-1.4632096 -0.033364021 -0.025374718)
(-1.7143903 -0.039164579 -0.02224528)
(-1.8375215 -0.044503006 -0.015209887)
(-1.8622771 -0.049043473 -0.0083560869)
(-1.8460123 -0.05190071 -0.0041375102)
(-0.11898546 -0.0015044305 -0.00087333813)
(-0.39275135 -0.0043382191 -0.0041065238)
(-0.73638868 -0.0070664734 -0.011322999)
(-1.1152808 -0.0095098486 -0.019569815)
(-1.4643545 -0.011689826 -0.023110155)
(-1.7149565 -0.013696248 -0.019695742)
(-1.8369114 -0.015533293 -0.012467084)
(-1.8604038 -0.017083479 -0.0056060559)
(-1.8431956 -0.018038817 -0.0015281327)
(-0.11898546 0.001504437 -0.00087334054)
(-0.39275135 0.0043382395 -0.0041065217)
(-0.73638868 0.00706651 -0.011323005)
(-1.1152809 0.0095098762 -0.019569819)
(-1.4643546 0.011689821 -0.023110152)
(-1.7149566 0.013696194 -0.019695728)
(-1.8369115 0.01553321 -0.012467071)
(-1.8604038 0.017083443 -0.0056060515)
(-1.8431957 0.018038894 -0.0015281387)
(-0.11902497 0.0042547613 -0.0012117378)
(-0.39264756 0.012298594 -0.005081925)
(-0.73587453 0.020089936 -0.012836727)
(-1.1142744 0.027095355 -0.021490165)
(-1.4632097 0.033363986 -0.025374705)
(-1.7143904 0.0391645 -0.022245249)
(-1.8375216 0.044502916 -0.015209857)
(-1.8622772 0.049043435 -0.0083560706)
(-1.8460124 0.051900773 -0.0041375133)
(-0.11852064 0.0063533441 -0.0018126526)
(-0.39103819 0.018424589 -0.0068048705)
(-0.73301058 0.030198556 -0.015464796)
(-1.1104888 0.040913934 -0.02478304)
(-1.4595589 0.050655143 -0.029260909)
(-1.7123703 0.059785892 -0.026668516)
(-1.8381603 0.068252703 -0.020006641)
(-1.8655321 0.075511818 -0.01319493)
(-1.8511114 0.080236934 -0.0087457119)
(-0.11801745 0.0076241518 -0.0024937031)
(-0.38907709 0.022185011 -0.0087447494)
(-0.72901862 0.036515538 -0.018385238)
(-1.1046857 0.049774798 -0.028431595)
(-1.4534916 0.062088804 -0.033645419)
(-1.7084686 0.073853198 -0.03181519)
(-1.8382017 0.084936216 -0.025731083)
(-1.869518 0.094551752 -0.019065494)
(-1.8578751 0.10110946 -0.014397555)
(-0.11700375 0.0080097642 -0.0030724807)
(-0.38551468 0.023427526 -0.010374197)
(-0.72223392 0.038809345 -0.0207746)
(-1.0951911 0.053385156 -0.031412324)
(-1.4436211 0.067340172 -0.037405106)
(-1.7017189 0.080993843 -0.036534531)
(-1.8370784 0.094131324 -0.031252989)
(-1.8739332 0.10572228 -0.024904757)
(-1.8660939 0.11405249 -0.020138118)
(-0.11526421 0.0076119719 -0.0034260426)
(-0.37971472 0.022426346 -0.011335495)
(-0.71163714 0.037490736 -0.022060581)
(-1.0807686 0.052243519 -0.032985036)
(-1.4287376 0.066953833 -0.039684253)
(-1.6911191 0.081827143 -0.039936487)
(-1.8341466 0.09643547 -0.035649634)
(-1.8785209 0.10962367 -0.029872591)
(-1.8756896 0.11961954 -0.025225889)
(-0.11268914 0.0066287113 -0.0034839922)
(-0.37134796 0.019726205 -0.011424463)
(-0.69665773 0.033390475 -0.021918911)
(-1.0606161 0.047364233 -0.032720592)
(-1.4078943 0.06203446 -0.039958879)
(-1.6757838 0.077471135 -0.041405139)
(-1.8287772 0.093041589 -0.038339594)
(-1.8830569 0.10741631 -0.033428293)
(-1.8866156 0.11887499 -0.029173406)
(-0.10943865 0.00531965 -0.0032576287)
(-0.36072056 0.016029441 -0.010658049)
(-0.67752004 0.02756903 -0.020348741)
(-1.0346293 0.040032 -0.030557426)
(-1.3805678 0.053964039 -0.038065841)
(-1.6549361 0.069334403 -0.040677104)
(-1.8202788 0.085304723 -0.039034772)
(-1.8872052 0.10044472 -0.03527826)
(-1.8987437 0.11308768 -0.031718148)
(-0.10522576 0.0038812357 -0.0027326075)
(-0.34709118 0.01190312 -0.0090089643)
(-0.65314116 0.020919352 -0.017349719)
(-1.0015228 0.031363955 -0.026515799)
(-1.3453983 0.043979963 -0.033988772)
(-1.627302 0.058719694 -0.03768362)
(-1.807654 0.074571014 -0.037612371)
(-1.8903762 0.090050146 -0.035314469)
(-1.9117143 0.10350927 -0.032761705)
(-0.099825341 0.0024427746 -0.0019970569)
(-0.32987563 0.0077274823 -0.0067345671)
(-0.62264298 0.014075063 -0.013303231)
(-0.9601636 0.022218197 -0.021023142)
(-1.3009842 0.033113494 -0.028120286)
(-1.5912275 0.046789846 -0.032701502)
(-1.7892689 0.062118839 -0.034252943)
(-1.891207 0.077558728 -0.03365138)
(-1.9244922 0.091384868 -0.032385835)
(-0.093625237 0.0012041241 -0.0011739934)
(-0.30995216 0.004043804 -0.0041778393)
(-0.58697589 0.0078632736 -0.0087431887)
(-0.91094244 0.01360187 -0.014706248)
(-1.2465777 0.022414779 -0.021037618)
(-1.5446166 0.034526818 -0.026176691)
(-1.7620374 0.048877295 -0.02922166)
(-1.8865572 0.063893805 -0.030387661)
(-1.9345652 0.07772533 -0.030549146)
(-0.085994737 0.00014394905 -0.00025848268)
(-0.28558399 0.00083295133 -0.0013589839)
(-0.54332294 0.0023189057 -0.003714953)
(-0.8498203 0.0056250062 -0.0075857334)
(-1.1765146 0.012018989 -0.012644583)
(-1.4797009 0.02198014 -0.017834639)
(-1.7161761 0.034699964 -0.022089675)
(-1.866214 0.048706493 -0.024945872)
(-1.9338081 0.062170662 -0.026320332)
(-0.076501523 0.0010128893 0.00093723004)
(-0.25494736 0.0031660376 0.0029507906)
(-0.48808719 0.005573374 0.0052321779)
(-0.77047157 0.00781649 0.0074165665)
(-1.0785547 0.0093877607 0.0089370681)
(-1.3715786 0.0099347694 0.0093279195)
(-1.6046738 0.0094675486 0.0085491212)
(-1.7536665 0.0083025882 0.0070436344)
(-1.8185928 0.0067417946 0.0053545259)
(-0.082165712 0.001045033 0.00085950675)
(-0.27332929 0.0032212849 0.0026983914)
(-0.52178312 0.0055662075 0.0047695084)
(-0.8189662 0.0076109482 0.0066970276)
(-1.1355819 0.0088398136 0.0078850234)
(-1.4249694 0.0089462857 0.0078677)
(-1.6409924 0.0080218687 0.006655715)
(-1.7655656 0.0064808483 0.004783297)
(-1.8109174 0.0048011288 0.0028174792)
(-0.086681336 0.00098991193 0.00070855477)
(-0.2880654 0.0030391829 0.0022383833)
(-0.54877683 0.0052101491 0.003989434)
(-0.85718865 0.007025456 0.0056332657)
(-1.1785782 0.0079869674 0.0065862121)
(-1.4611314 0.0078336099 0.0063542078)
(-1.6587917 0.0067030914 0.0049249616)
(-1.760946 0.0050482704 0.0028531855)
(-1.7911714 0.0033838686 0.00087689075)
(-0.090515694 0.00090269119 0.00056144781)
(-0.30049274 0.0027584627 0.001783333)
(-0.57132385 0.0046951788 0.0032077779)
(-0.88852681 0.0062529015 0.0045554301)
(-1.2125515 0.0069704152 0.0052659123)
(-1.4872977 0.0066289785 0.0048391694)
(-1.6675211 0.0053896948 0.003258154)
(-1.7500024 0.0037106262 0.0011106021)
(-1.7675242 0.0020906847 -0.00076255778)
(-0.093359857 0.00076708053 0.0004124087)
(-0.30990896 0.0023483279 0.0013277865)
(-0.58865577 0.0039967922 0.0024338163)
(-0.91267007 0.0052917901 0.0035032316)
(-1.2382099 0.0058107975 0.0039967517)
(-1.505535 0.0053567212 0.0034078133)
(-1.6703864 0.0040906321 0.0017276086)
(-1.7361262 0.002462274 -0.00041600069)
(-1.7428294 0.00095343268 -0.0021218495)
(-0.095477418 0.00060911171 0.00027509758)
(-0.31700295 0.0018765392 0.0009075775)
(-0.60179977 0.0032099615 0.0017219756)
(-0.93089155 0.0042448647 0.0025410654)
(-1.2570296 0.0046030252 0.0028462109)
(-1.5175228 0.0040995915 0.0021276947)
(-1.6692388 0.0028787346 0.0003902782)
(-1.7210566 0.0013714446 -0.0016936056)
(-1.7186571 1.7953703e-05 -0.0032102922)
(-0.097090392 0.00044625837 0.00016544998)
(-0.32236925 0.0013910124 0.00056829914)
(-0.61165119 0.0024072345 0.0011383477)
(-0.94427867 0.0031958775 0.0017402641)
(-1.2702067 0.0034275854 0.00187769)
(-1.5245143 0.0029269183 0.00104847)
(-1.6652381 0.001811953 -0.00071999105)
(-1.7057962 0.00047441242 -0.0027222964)
(-1.6959575 -0.00069247909 -0.0040423452)
(-0.098082819 0.00029257555 8.4354186e-05)
(-0.32579901 0.0009338559 0.00031450996)
(-0.61809914 0.0016545226 0.00069442762)
(-0.95303305 0.0022236436 0.0011206074)
(-1.2783654 0.0023625777 0.0011172226)
(-1.5274621 0.001906836 0.00019636254)
(-1.6593763 0.00094346142 -0.0015864125)
(-1.6911584 -0.00019029647 -0.0035050332)
(-1.6754787 -0.0011534841 -0.0046439403)
(-0.098561174 0.00016545765 3.1936821e-05)
(-0.32761956 0.00055209813 0.00014629999)
(-0.62173309 0.0010196759 0.00039051165)
(-0.95802995 0.0014022996 0.00068300853)
(-1.2826264 0.0014766795 0.00056705997)
(-1.5275787 0.0010946237 -0.00042823652)
(-1.652752 0.00031407294 -0.0022172504)
(-1.6779516 -0.00058941825 -0.0040544169)
(-1.6579042 -0.0013322705 -0.005045307)
(-0.098720506 7.5898665e-05 3.5689787e-06)
(-0.32841828 0.0002757188 5.0976169e-05)
(-0.62353677 0.00054656888 0.00020870365)
(-0.96055832 0.00077976601 0.00040623324)
(-1.2844106 0.00081191611 0.00020577197)
(-1.5262212 0.00052279393 -0.00084388221)
(-1.6464887 -5.2042974e-05 -0.0026341932)
(-1.667009 -0.00070863594 -0.004408323)
(-1.643883 -0.0012421494 -0.0052920319)
(-0.098986029 2.4914995e-05 -8.0183849e-06)
(-0.32926223 0.00010748529 8.1892577e-06)
(-0.62500027 0.00023889998 0.00011911081)
(-0.96224696 0.00035876664 0.00025780431)
(-1.2852542 0.00036703927 -5.2716431e-07)
(-1.5247016 0.00018596846 -0.0010885171)
(-1.641624 -0.00016622244 -0.0028797505)
(-1.6591093 -0.00056225687 -0.0046164408)
(-1.6340279 -0.00088353283 -0.0054305315)
(-0.098876864 4.1778386e-06 -1.0956526e-05)
(-0.32910685 2.4430175e-05 -5.0207787e-06)
(-0.62498351 6.211768e-05 8.7129844e-05)
(-0.96236893 9.7847648e-05 0.00019916735)
(-1.2851108 9.8135828e-05 -8.7360404e-05)
(-1.5235523 3.606837e-05 -0.001194917)
(-1.6389274 -8.2809322e-05 -0.002987434)
(-1.6549654 -0.00021537633 -0.0047091929)
(-1.6289336 -0.00032127251 -0.0054913856)
(-0.098876864 -4.1883298e-06 -1.0954966e-05)
(-0.32910685 -2.445639e-05 -5.0163463e-06)
(-0.62498351 -6.2160131e-05 8.7133394e-05)
(-0.96236894 -9.7921253e-05 0.00019917262)
(-1.2851108 -9.8243199e-05 -8.7353147e-05)
(-1.5235523 -3.6201769e-05 -0.001194908)
(-1.6389274 8.2694164e-05 -0.0029874294)
(-1.6549654 0.00021536426 -0.0047091975)
(-1.6289336 0.00032144977 -0.0054913913)
(-0.098986033 -2.492854e-05 -8.0143319e-06)
(-0.32926224 -0.00010751813 8.1995687e-06)
(-0.62500028 -0.00023895346 0.00011912219)
(-0.96224699 -0.00035885511 0.00025782254)
(-1.2852542 -0.0003671671 -5.0354244e-07)
(-1.5247016 -0.00018612152 -0.0010884919)
(-1.641624 0.0001660917 -0.0028797389)
(-1.6591093 0.00056223656 -0.004616456)
(-1.6340279 0.0008837043 -0.0054305541)
(-0.098720511 -7.5916029e-05 3.575368e-06)
(-0.32841829 -0.00027576102 5.0990501e-05)
(-0.6235368 -0.00054663893 0.00020872484)
(-0.96055835 -0.0007798786 0.00040626868)
(-1.2844107 -0.00081207421 0.00020581681)
(-1.5262212 -0.0005229792 -0.00084384009)
(-1.6464887 5.1884359e-05 -0.0026341789)
(-1.667009 0.00070859802 -0.0044083545)
(-1.643883 0.0012423075 -0.0052920853)
(-0.098561182 -0.00016547873 3.1947884e-05)
(-0.32761958 -0.00055215036 0.00014632619)
(-0.62173313 -0.0010197637 0.00039055297)
(-0.95803 -0.0014024389 0.00068307105)
(-1.2826265 -0.0014768696 0.00056713164)
(-1.5275786 -0.001094843 -0.00042817689)
(-1.6527519 -0.00031426184 -0.0022172391)
(-1.6779516 0.00058935307 -0.0040544721)
(-1.6579042 0.0013323999 -0.0050454015)
(-0.098082828 -0.00029260066 8.4371953e-05)
(-0.32579903 -0.00093391888 0.00031455294)
(-0.61809919 -0.0016546306 0.00069449191)
(-0.95303312 -0.0022238072 0.0011207018)
(-1.2783654 -0.0023627949 0.0011173212)
(-1.5274621 -0.0019070823 0.00019643488)
(-1.6593763 -0.00094367665 -0.0015864078)
(-1.6911584 0.00019019874 -0.0035051134)
(-1.6754787 0.0011535713 -0.0046440709)
(-0.097090399 -0.00044628593 0.00016546866)
(-0.32236927 -0.0013910779 0.00056835442)
(-0.61165124 -0.0024073532 0.0011384313)
(-0.94427874 -0.0031960544 0.0017403806)
(-1.2702068 -0.0034278189 0.0018778058)
(-1.5245144 -0.0029271848 0.0010485485)
(-1.6652381 -0.0018121971 -0.00071999136)
(-1.7057962 -0.00047454701 -0.0027224002)
(-1.6959575 0.0006925382 -0.0040424992)
(-0.095477427 -0.00060914118 0.00027511116)
(-0.31700297 -0.0018766009 0.00090764226)
(-0.60179981 -0.0032100802 0.0017220694)
(-0.93089161 -0.0042450435 0.0025411937)
(-1.2570297 -0.0046032664 0.0028463414)
(-1.5175228 -0.0040998757 0.0021277858)
(-1.6692389 -0.0028790119 0.00039028026)
(-1.7210566 -0.0013716215 -0.0016937465)
(-1.7186571 -1.7893978e-05 -0.0032104603)
(-0.093359865 -0.00076710592 0.00041242513)
(-0.30990899 -0.0023483736 0.0013278624)
(-0.58865581 -0.0039968903 0.0024339127)
(-0.91267013 -0.0052919467 0.0035033659)
(-1.23821 -0.0058110278 0.0039968933)
(-1.505535 -0.0053570155 0.0034079191)
(-1.6703865 -0.0040909387 0.0017276119)
(-1.7361263 -0.0024624858 -0.00041620348)
(-1.7428295 -0.00095336796 -0.0021220627)
(-0.090515705 -0.00090271128 0.00056146229)
(-0.30049277 -0.0027584925 0.0017833983)
(-0.5713239 -0.0046952454 0.0032078673)
(-0.88852687 -0.0062530185 0.0045555649)
(-1.2125516 -0.0069706104 0.0052660646)
(-1.4872978 -0.0066292566 0.0048392886)
(-1.6675211 -0.0053899874 0.0032581286)
(-1.7500025 -0.0037108218 0.0011102975)
(-1.7675243 -0.0020906272 -0.00076287216)
(-0.086681347 -0.00098991903 0.00070856182)
(-0.28806543 -0.0030391813 0.0022384243)
(-0.54877689 -0.0052101691 0.0039894898)
(-0.85718873 -0.0070255168 0.0056333618)
(-1.1785783 -0.007987101 0.0065863314)
(-1.4611315 -0.0078338367 0.0063542731)
(-1.6587918 -0.0067033637 0.0049248578)
(-1.7609461 -0.0050484383 0.0028528035)
(-1.7911715 -0.0033838171 0.00087651354)
(-0.082165722 -0.0010450256 0.00085950406)
(-0.27332932 -0.003221254 0.0026983997)
(-0.52178318 -0.005566186 0.0047695204)
(-0.81896627 -0.0076109682 0.0066970612)
(-1.135582 -0.0088399023 0.0078850656)
(-1.4249695 -0.0089464228 0.0078676774)
(-1.6409925 -0.0080220322 0.0066554762)
(-1.7655658 -0.0064809898 0.0047828136)
(-1.8109176 -0.0048012097 0.0028172073)
(-0.076501533 -0.0010128778 0.00093721699)
(-0.25494738 -0.0031660085 0.0029507642)
(-0.48808723 -0.005573351 0.0052321425)
(-0.77047163 -0.0078165043 0.0074165324)
(-1.0785548 -0.0093878517 0.0089370194)
(-1.3715787 -0.0099349503 0.0093278068)
(-1.604674 -0.0094677271 0.0085488987)
(-1.7536667 -0.0083025707 0.0070432812)
(-1.818593 -0.0067417946 0.0053543049)
(-0.081298037 -0.00012424784 -0.00010269615)
(-0.2704133 -0.00045011349 -0.00034858718)
(-0.51602987 -0.00098105269 -0.00066653772)
(-0.81079239 -0.0018583283 -0.0010479552)
(-1.128761 -0.0032625018 -0.0014531948)
(-1.4279195 -0.0053256431 -0.0018316839)
(-1.6643471 -0.0080005221 -0.0021988977)
(-1.8160021 -0.011025196 -0.0026528404)
(-1.8840852 -0.014033312 -0.0032702394)
(-0.087590741 -0.00016248697 -0.00011906852)
(-0.29076714 -0.00056799424 -0.00039116906)
(-0.55310273 -0.0011991584 -0.00072996377)
(-0.86373592 -0.0022143622 -0.0011246446)
(-1.1906846 -0.0038171294 -0.0015331127)
(-1.4861639 -0.0061485491 -0.0019102638)
(-1.7054727 -0.0091418492 -0.0022958887)
(-1.8330649 -0.01247152 -0.0028321864)
(-1.8824105 -0.015666149 -0.0036694888)
(-0.092731906 -0.00019740893 -0.00012561536)
(-0.30745464 -0.00067606321 -0.00040855572)
(-0.58341018 -0.001394715 -0.00075656723)
(-0.90629804 -0.0025181642 -0.0011556807)
(-1.2385334 -0.0042581793 -0.0015575731)
(-1.5274392 -0.0067551673 -0.001916289)
(-1.7288251 -0.0099185991 -0.002282127)
(-1.834805 -0.013362964 -0.0028044479)
(-1.8700972 -0.016551979 -0.0035913376)
(-0.097278426 -0.00024927367 -0.00013878845)
(-0.32207308 -0.00082704321 -0.00044375065)
(-0.60965453 -0.0016462885 -0.00081094998)
(-0.94250031 -0.0028658158 -0.0012197124)
(-1.2780531 -0.0046958318 -0.0016109062)
(-1.559646 -0.007274176 -0.0019346979)
(-1.7443144 -0.010494698 -0.0022451284)
(-1.8315707 -0.013933048 -0.0026786942)
(-1.8551573 -0.017018368 -0.0033318123)
(-0.10090312 -0.00029981143 -0.00014478677)
(-0.33388148 -0.00097300476 -0.00045843169)
(-0.63102937 -0.0018832417 -0.00083152113)
(-0.97201561 -0.0031741364 -0.0012372083)
(-1.3099543 -0.0050436938 -0.0016043092)
(-1.58482 -0.007622487 -0.0018765326)
(-1.7549949 -0.010793545 -0.0021073588)
(-1.8264651 -0.014109104 -0.0024206033)
(-1.8400634 -0.016971369 -0.0029149125)
(-0.10386555 -0.00034247412 -0.00013918869)
(-0.3435465 -0.0010925999 -0.0004387528)
(-0.64850741 -0.0020659885 -0.00079552284)
(-0.99601593 -0.003384052 -0.0011775552)
(-1.3355633 -0.0052257563 -0.0015005384)
(-1.6044461 -0.0077104118 -0.001701035)
(-1.7624102 -0.010717371 -0.0018329833)
(-1.8208524 -0.013790839 -0.0020147633)
(-1.8259974 -0.016339744 -0.0023600408)
(-0.10638281 -0.00036781983 -0.00012326382)
(-0.35163099 -0.0011576995 -0.00038791371)
(-0.66290629 -0.0021483701 -0.00070697723)
(-1.0154545 -0.0034361088 -0.0010445542)
(-1.3558685 -0.0051753101 -0.0013043105)
(-1.6194711 -0.0074711543 -0.0014171138)
(-1.7673558 -0.010203987 -0.0014396897)
(-1.8153072 -0.012936476 -0.0014946328)
(-1.8134976 -0.015112501 -0.0017093689)
(-0.10827641 -0.00036519289 -9.7085745e-05)
(-0.35775444 -0.0011386404 -0.0003071787)
(-0.67384898 -0.0020842097 -0.00056992518)
(-1.0301985 -0.0032738012 -0.00084830095)
(-1.3711072 -0.0048337844 -0.00103369)
(-1.6303981 -0.0068532534 -0.001051873)
(-1.7703352 -0.0092209592 -0.0009664137)
(-1.8101379 -0.011537932 -0.00090687361)
(-1.8028193 -0.013308761 -0.0010194098)
(-0.10959314 -0.00033042301 -6.5135801e-05)
(-0.36207033 -0.0010235226 -0.00020962326)
(-0.68163898 -0.0018552179 -0.00040529726)
(-1.0407393 -0.0028754531 -0.00061692581)
(-1.3819368 -0.0041822091 -0.0007267426)
(-1.6379181 -0.0058454867 -0.00065281483)
(-1.7718625 -0.0077699009 -0.00046283957)
(-1.8055928 -0.0096114205 -0.00029233028)
(-1.7941288 -0.010864863 -0.00033203429)
(-0.11046367 -0.00026426939 -3.2922371e-05)
(-0.36498039 -0.0008149195 -0.00011198773)
(-0.68695352 -0.0014667028 -0.00024219427)
(-1.0479521 -0.0022510744 -0.00039033512)
(-1.3892771 -0.0032378629 -0.00043164033)
(-1.6428187 -0.0044772121 -0.0002774767)
(-1.7724562 -0.0058955062 5.2950829e-06)
(-1.8019068 -0.0072262099 0.00027051014)
(-1.7875394 -0.0081166959 0.00027019551)
(-0.11127679 -0.00017181458 -7.0868723e-06)
(-0.36742273 -0.00052757469 -3.3990104e-05)
(-0.69103754 -0.00094421076 -0.00011273735)
(-1.053099 -0.0014386065 -0.0002118779)
(-1.3941916 -0.0020524621 -0.0002010077)
(-1.645862 -0.0028172381 1.3950567e-05)
(-1.7725697 -0.0036838133 0.00036586162)