/*--------------------------------*- C++ -*----------------------------------*\
  =========                 |
  \\      /  F ield         | OpenFOAM: The Open Source CFD Toolbox
   \\    /   O peration     | Website:  https://openfoam.org
    \\  /    A nd           | Version:  10
     \\/     M anipulation  |
\*---------------------------------------------------------------------------*/
FoamFile
{
    format      ascii;
    class       volScalarField;
    location    "25";
    object      T;
}
// * * * * * * * * * * * * * * * * * * * * * * * * * * * * * * * * * * * * * //

dimensions      [0 0 -1 0 0 0 0];

internalField   nonuniform List<scalar> 
100
(
1.27213
3.80458
6.30325
8.74598
11.1111
13.3776
15.5253
17.5352
19.3895
21.0717
22.5669
23.8617
24.9448
25.8064
26.439
26.8369
26.9967
26.9167
26.5979
26.043
25.257
24.2467
23.0213
21.5915
19.97
18.1713
16.2114
14.1075
11.8784
9.54389
7.12466
4.6422
2.11853
-0.423936
-2.96264
-5.47505
-7.93885
-10.3322
-12.6338
-14.8233
-16.8812
-18.7893
-20.5306
-22.0897
-23.4526
-24.6075
-25.5439
-26.2535
-26.7302
-26.9696
-26.9696
-26.7302
-26.2535
-25.5439
-24.6075
-23.4526
-22.0896
-20.5306
-18.7893
-16.8812
-14.8233
-12.6338
-10.3321
-7.93881
-5.475
-2.96259
-0.423884
2.11859
4.64225
7.12472
9.54395
11.8785
14.1076
16.2114
18.1714
19.9701
21.5915
23.0213
24.2468
25.257
26.0431
26.598
26.9168
26.9967
26.837
26.4391
25.8065
24.9448
23.8618
22.5669
21.0717
19.3896
17.5353
15.5253
13.3776
11.1111
8.74599
6.30326
3.80458
1.27213
)
;

boundaryField
{
    xmin
    {
        type            fixedValue;
        value           uniform 0;
    }
    xmax
    {
        type            fixedValue;
        value           uniform 0;
    }
    frontAndBack
    {
        type            empty;
    }
}


// ************************************************************************* //
