/*--------------------------------*- C++ -*----------------------------------*\
  =========                 |
  \\      /  F ield         | OpenFOAM: The Open Source CFD Toolbox
   \\    /   O peration     | Website:  https://openfoam.org
    \\  /    A nd           | Version:  10
     \\/     M anipulation  |
\*---------------------------------------------------------------------------*/
FoamFile
{
    format      ascii;
    class       volScalarField;
    location    "32.5";
    object      ddt0(T);
}
// * * * * * * * * * * * * * * * * * * * * * * * * * * * * * * * * * * * * * //

dimensions      [0 0 -2 0 0 0 0];

internalField   nonuniform List<scalar> 
100
(
-0.0595542
-0.17811
-0.295084
-0.409439
-0.52016
-0.626264
-0.72681
-0.820904
-0.907712
-0.986462
-1.05646
-1.11708
-1.16778
-1.20812
-1.23773
-1.25636
-1.26383
-1.26009
-1.24517
-1.21919
-1.18239
-1.1351
-1.07773
-1.01079
-0.934883
-0.850678
-0.758922
-0.660429
-0.556075
-0.446785
-0.33353
-0.217314
-0.099169
0.019856
0.138705
0.256322
0.371665
0.483708
0.591459
0.693959
0.7903
0.879625
0.961144
1.03413
1.09794
1.152
1.19584
1.22906
1.25138
1.26258
1.26258
1.25138
1.22906
1.19584
1.152
1.09794
1.03413
0.961143
0.879624
0.790298
0.693958
0.591457
0.483707
0.371663
0.256321
0.138703
0.0198544
-0.0991707
-0.217316
-0.333532
-0.446787
-0.556077
-0.660431
-0.758923
-0.850679
-0.934885
-1.01079
-1.07773
-1.1351
-1.18239
-1.21919
-1.24517
-1.26009
-1.26384
-1.25636
-1.23773
-1.20812
-1.16778
-1.11708
-1.05646
-0.986463
-0.907712
-0.820904
-0.72681
-0.626265
-0.520161
-0.409439
-0.295084
-0.17811
-0.0595543
)
;

boundaryField
{
    xmin
    {
        type            calculated;
        value           uniform 0;
    }
    xmax
    {
        type            calculated;
        value           uniform 0;
    }
    frontAndBack
    {
        type            empty;
    }
}


// ************************************************************************* //
