/*--------------------------------*- C++ -*----------------------------------*\
  =========                 |
  \\      /  F ield         | OpenFOAM: The Open Source CFD Toolbox
   \\    /   O peration     | Website:  https://openfoam.org
    \\  /    A nd           | Version:  10
     \\/     M anipulation  |
\*---------------------------------------------------------------------------*/
FoamFile
{
    format      ascii;
    class       volScalarField;
    location    "32.5";
    object      T_0;
}
// * * * * * * * * * * * * * * * * * * * * * * * * * * * * * * * * * * * * * //

dimensions      [0 0 -1 0 0 0 0];

internalField   nonuniform List<scalar> 
100
(
0.618394
1.84944
3.06406
4.2515
5.40119
6.50294
7.54698
8.52403
9.42541
10.2431
10.97
11.5994
12.1259
12.5447
12.8522
13.0457
13.1233
13.0845
12.9295
12.6598
12.2777
11.7866
11.1909
10.4958
9.70766
8.8333
7.88055
6.85785
5.77427
4.63945
3.46345
2.25671
1.02994
-0.205966
-1.44005
-2.66134
-3.85901
-5.02243
-6.14126
-7.20559
-8.20595
-9.13348
-9.97993
-10.7378
-11.4004
-11.9617
-12.4169
-12.7619
-12.9936
-13.11
-13.11
-12.9936
-12.7619
-12.4169
-11.9617
-11.4003
-10.7378
-9.97991
-9.13345
-8.20593
-7.20556
-6.14124
-5.0224
-3.85898
-2.66131
-1.44001
-0.20593
1.02998
2.25675
3.46349
4.63949
5.77432
6.85789
7.88059
8.83335
9.7077
10.4959
11.1909
11.7866
12.2777
12.6598
12.9295
13.0845
13.1234
13.0457
12.8523
12.5448
12.1259
11.5994
10.97
10.2432
9.42543
8.52404
7.54699
6.50296
5.4012
4.2515
3.06407
1.84944
0.618395
)
;

boundaryField
{
    xmin
    {
        type            fixedValue;
        value           uniform 0;
    }
    xmax
    {
        type            fixedValue;
        value           uniform 0;
    }
    frontAndBack
    {
        type            empty;
    }
}


// ************************************************************************* //
