/*--------------------------------*- C++ -*----------------------------------*\
  =========                 |
  \\      /  F ield         | OpenFOAM: The Open Source CFD Toolbox
   \\    /   O peration     | Website:  https://openfoam.org
    \\  /    A nd           | Version:  10
     \\/     M anipulation  |
\*---------------------------------------------------------------------------*/
FoamFile
{
    format      ascii;
    class       volScalarField;
    location    "9.5";
    object      T_0;
}
// * * * * * * * * * * * * * * * * * * * * * * * * * * * * * * * * * * * * * //

dimensions      [0 0 -1 0 0 0 0];

internalField   nonuniform List<scalar> 
100
(
5.66545
16.9437
28.0716
38.9503
49.4833
59.5771
69.142
78.0933
86.3514
93.843
100.502
106.268
111.092
114.929
117.746
119.519
120.23
119.874
118.454
115.983
112.482
107.983
102.525
96.1576
88.9364
80.9259
72.1971
62.8274
52.9001
42.5033
31.7292
20.6734
9.4342
-1.88877
-13.195
-24.3841
-35.3567
-46.0155
-56.2659
-66.0169
-75.1819
-83.6795
-91.4345
-98.3778
-104.448
-109.591
-113.761
-116.922
-119.045
-120.111
-120.111
-119.045
-116.922
-113.761
-109.591
-104.448
-98.3777
-91.4344
-83.6795
-75.1818
-66.0168
-56.2658
-46.0154
-35.3566
-24.3839
-13.1948
-1.88864
9.43433
20.6736
31.7293
42.5034
52.9003
62.8276
72.1972
80.926
88.9365
96.1577
102.525
107.983
112.482
115.983
118.454
119.874
120.23
119.519
117.746
114.929
111.092
106.268
100.502
93.8431
86.3514
78.0933
69.142
59.5771
49.4833
38.9503
28.0716
16.9437
5.66545
)
;

boundaryField
{
    xmin
    {
        type            fixedValue;
        value           uniform 0;
    }
    xmax
    {
        type            fixedValue;
        value           uniform 0;
    }
    frontAndBack
    {
        type            empty;
    }
}


// ************************************************************************* //
