/*--------------------------------*- C++ -*----------------------------------*\
  =========                 |
  \\      /  F ield         | OpenFOAM: The Open Source CFD Toolbox
   \\    /   O peration     | Website:  https://openfoam.org
    \\  /    A nd           | Version:  10
     \\/     M anipulation  |
\*---------------------------------------------------------------------------*/
FoamFile
{
    format      ascii;
    class       volScalarField;
    location    "7.5";
    object      ddt0(T);
}
// * * * * * * * * * * * * * * * * * * * * * * * * * * * * * * * * * * * * * //

dimensions      [0 0 -1 1 0 0 0];

internalField   nonuniform List<scalar> 
10000
(
5141.28
2244.77
2289.16
2331.69
2339.81
2341.3
2341.71
2341.87
2341.93
2341.96
2341.98
2342
2342.02
2342.03
2342.05
2342.06
2342.08
2342.09
2342.1
2342.11
2342.13
2342.14
2342.15
2342.15
2342.16
2342.17
2342.18
2342.18
2342.19
2342.19
2342.2
2342.2
2342.21
2342.21
2342.21
2342.21
2342.22
2342.22
2342.22
2342.22
2342.22
2342.22
2342.22
2342.22
2342.22
2342.21
2342.21
2342.21
2342.21
2342.21
2342.2
2342.2
2342.2
2342.2
2342.19
2342.19
2342.19
2342.19
2342.18
2342.18
2342.18
2342.17
2342.17
2342.17
2342.17
2342.16
2342.16
2342.16
2342.16
2342.15
2342.15
2342.15
2342.15
2342.15
2342.14
2342.14
2342.14
2342.14
2342.14
2342.14
2342.13
2342.13
2342.13
2342.13
2342.13
2342.13
2342.13
2342.13
2342.13
2342.12
2342.12
2342.12
2342.12
2342.12
2342.09
2341.92
2340.79
2334.04
2313.85
2628.51
2619.8
-772.163
-552.349
-453.792
-435.808
-432.858
-432.14
-431.865
-431.734
-431.657
-431.599
-431.548
-431.5
-431.454
-431.41
-431.368
-431.327
-431.289
-431.252
-431.218
-431.185
-431.154
-431.126
-431.099
-431.074
-431.051
-431.03
-431.011
-430.993
-430.977
-430.963
-430.95
-430.939
-430.93
-430.922
-430.916
-430.91
-430.907
-430.904
-430.903
-430.902
-430.903
-430.905
-430.907
-430.911
-430.915
-430.92
-430.925
-430.931
-430.938
-430.945
-430.952
-430.959
-430.967
-430.975
-430.984
-430.992
-431
-431.009
-431.017
-431.026
-431.034
-431.042
-431.05
-431.058
-431.066
-431.073
-431.081
-431.088
-431.095
-431.102
-431.108
-431.114
-431.12
-431.126
-431.131
-431.136
-431.141
-431.146
-431.15
-431.155
-431.159
-431.163
-431.166
-431.17
-431.173
-431.176
-431.178
-431.181
-431.184
-431.186
-431.188
-431.191
-431.197
-431.22
-431.387
-432.575
-439.619
-466.021
-406.915
2635.56
-595.408
-290.09
-168.301
-145.474
-141.548
-140.578
-140.205
-140.019
-139.902
-139.809
-139.725
-139.646
-139.57
-139.496
-139.426
-139.358
-139.294
-139.233
-139.175
-139.12
-139.069
-139.021
-138.976
-138.934
-138.895
-138.86
-138.827
-138.798
-138.771
-138.747
-138.726
-138.708
-138.692
-138.678
-138.667
-138.659
-138.652
-138.648
-138.645
-138.644
-138.645
-138.648
-138.652
-138.658
-138.665
-138.673
-138.682
-138.692
-138.703
-138.714
-138.726
-138.739
-138.752
-138.766
-138.779
-138.793
-138.807
-138.821
-138.835
-138.849
-138.863
-138.877
-138.89
-138.903
-138.916
-138.929
-138.941
-138.953
-138.964
-138.975
-138.986
-138.996
-139.006
-139.016
-139.025
-139.033
-139.042
-139.05
-139.057
-139.064
-139.071
-139.077
-139.083
-139.089
-139.094
-139.099
-139.103
-139.108
-139.112
-139.115
-139.119
-139.124
-139.129
-139.135
-139.167
-139.572
-142.829
-157.548
-141.153
2668.3
-512.202
-184.629
-56.4793
-32.1116
-27.7858
-26.6773
-26.2349
-26.0037
-25.8493
-25.7229
-25.6073
-25.4973
-25.3915
-25.2896
-25.1915
-25.0975
-25.0078
-24.9225
-24.8417
-24.7654
-24.6936
-24.6263
-24.5635
-24.5052
-24.4512
-24.4015
-24.356
-24.3147
-24.2774
-24.244
-24.2145
-24.1887
-24.1665
-24.1477
-24.1324
-24.1202
-24.1111
-24.1049
-24.1014
-24.1005
-24.1021
-24.106
-24.1119
-24.1198
-24.1294
-24.1407
-24.1534
-24.1675
-24.1826
-24.1988
-24.2158
-24.2336
-24.252
-24.2708
-24.29
-24.3094
-24.329
-24.3487
-24.3683
-24.3878
-24.4072
-24.4263
-24.4451
-24.4635
-24.4815
-24.4991
-24.5162
-24.5328
-24.5489
-24.5644
-24.5794
-24.5937
-24.6076
-24.6208
-24.6334
-24.6455
-24.657
-24.668
-24.6784
-24.6882
-24.6976
-24.7064
-24.7147
-24.7225
-24.7299
-24.7368
-24.7433
-24.7493
-24.755
-24.7604
-24.766
-24.773
-24.7832
-24.796
-24.7944
-24.7744
-25.2913
-29.0953
-22.7615
2674.74
-496.954
-164.868
-35.2262
-10.4024
-5.91142
-4.72277
-4.22943
-3.95877
-3.76971
-3.61065
-3.46377
-3.32349
-3.18829
-3.05792
-2.93249
-2.81224
-2.69738
-2.58809
-2.48447
-2.3866
-2.29451
-2.20818
-2.12759
-2.05267
-1.98335
-1.91955
-1.86116
-1.80809
-1.76022
-1.71741
-1.67954
-1.64646
-1.61802
-1.59405
-1.57438
-1.55884
-1.54722
-1.53935
-1.53501
-1.534
-1.53611
-1.54113
-1.54885
-1.55906
-1.57154
-1.58608
-1.6025
-1.62057
-1.64011
-1.66094
-1.68287
-1.70573
-1.72935
-1.75358
-1.77828
-1.80329
-1.82849
-1.85377
-1.879
-1.9041
-1.92896
-1.9535
-1.97764
-2.00133
-2.02449
-2.04709
-2.06907
-2.09039
-2.11104
-2.13098
-2.1502
-2.16868
-2.18642
-2.20342
-2.21967
-2.23518
-2.24996
-2.26402
-2.27736
-2.29002
-2.302
-2.31332
-2.32399
-2.33405
-2.3435
-2.35236
-2.36067
-2.36843
-2.3757
-2.38262
-2.3896
-2.39799
-2.41117
-2.43432
-2.46362
-2.45679
-2.39107
-2.54349
0.102105
2675.94
-494.448
-161.469
-31.4493
-6.46397
-1.88898
-0.646202
-0.111355
0.195233
0.417621
0.60858
0.78635
0.95661
1.12088
1.27936
1.43187
1.57814
1.7179
1.85093
1.9771
2.09629
2.20849
2.31367
2.41189
2.5032
2.58768
2.66543
2.73656
2.80121
2.85952
2.91162
2.9577
2.99793
3.03249
3.06159
3.08544
3.10426
3.11828
3.12774
3.1329
3.13399
3.13128
3.12502
3.11547
3.1029
3.08756
3.0697
3.04958
3.02743
3.00349
2.97799
2.95115
2.92319
2.89429
2.86466
2.83447
2.8039
2.77309
2.7422
2.71137
2.68071
2.65034
2.62036
2.59086
2.56194
2.53365
2.50606
2.47922
2.45318
2.42797
2.40363
2.38017
2.35761
2.33595
2.31521
2.29538
2.27645
2.25842
2.24127
2.22499
2.20955
2.19494
2.18113
2.16811
2.15584
2.14432
2.13351
2.12338
2.11392
2.10509
2.09679
2.08876
2.08004
2.06774
2.04531
2.00528
1.96086
1.98673
2.30468
3.43354
2676.29
-493.83
-160.622
-30.4714
-5.40801
-0.779315
0.505688
1.07719
1.41765
1.67239
1.89467
2.10289
2.30273
2.49568
2.6819
2.86113
3.03306
3.19737
3.3538
3.50219
3.6424
3.7744
3.89817
4.01374
4.12118
4.22058
4.31205
4.39572
4.47174
4.54028
4.6015
4.65562
4.70283
4.74337
4.77746
4.80537
4.82734
4.84366
4.85461
4.86048
4.86157
4.85819
4.85062
4.8392
4.8242
4.80596
4.78475
4.76087
4.73461
4.70626
4.67607
4.6443
4.61122
4.57704
4.54201
4.50632
4.47018
4.43378
4.39728
4.36086
4.32464
4.28877
4.25337
4.21854
4.18439
4.15099
4.11842
4.08674
4.056
4.02625
3.99752
3.96984
3.94322
3.91767
3.8932
3.86981
3.84748
3.82622
3.80599
3.78679
3.76859
3.75136
3.73508
3.71973
3.70528
3.69169
3.67895
3.66702
3.65588
3.6455
3.63582
3.62673
3.61778
3.60738
3.59092
3.55941
3.50718
3.46692
3.63156
4.19622
2676.42
-493.587
-160.288
-30.0712
-4.95793
-0.287983
1.03363
1.63921
2.01228
2.29862
2.55166
2.78984
3.01881
3.24
3.45351
3.65904
3.85621
4.04466
4.2241
4.39432
4.55519
4.70664
4.84865
4.98127
5.10454
5.21857
5.32349
5.41944
5.50659
5.58513
5.65527
5.71722
5.77124
5.81757
5.85649
5.8883
5.91329
5.93178
5.9441
5.95058
5.95157
5.94742
5.93848
5.92509
5.90762
5.8864
5.86179
5.83412
5.80373
5.77092
5.73602
5.69931
5.66109
5.62163
5.58119
5.54
5.4983
5.4563
5.41421
5.3722
5.33044
5.28908
5.24827
5.20813
5.16876
5.13027
5.09274
5.05624
5.02083
4.98655
4.95346
4.92158
4.89092
4.8615
4.83332
4.80639
4.78069
4.75621
4.73293
4.71083
4.68989
4.67007
4.65134
4.63368
4.61706
4.60144
4.58678
4.57307
4.56026
4.54833
4.53724
4.52694
4.5173
4.50769
4.49575
4.4749
4.43318
4.36717
4.38256
4.80125
2676.48
-493.467
-160.116
-29.8542
-4.70186
0.00394318
1.35945
1.99765
2.40243
2.71971
3.00296
3.27057
3.52816
3.77708
4.01739
4.24872
4.47065
4.68277
4.88477
5.0764
5.25751
5.42802
5.58791
5.73719
5.87596
6.0043
6.12236
6.2303
6.32831
6.4166
6.4954
6.56497
6.62557
6.67749
6.72106
6.7566
6.78444
6.80496
6.81851
6.82548
6.82627
6.82125
6.81083
6.7954
6.77537
6.75113
6.72307
6.69156
6.65698
6.6197
6.58005
6.53839
6.49502
6.45026
6.4044
6.35771
6.31045
6.26287
6.21518
6.1676
6.1203
6.07348
6.02728
5.98183
5.93728
5.89372
5.85125
5.80995
5.76989
5.73112
5.69368
5.65762
5.62295
5.58968
5.55783
5.52738
5.49833
5.47066
5.44435
5.41938
5.39572
5.37333
5.35218
5.33224
5.31347
5.29583
5.27929
5.26381
5.24936
5.2359
5.2234
5.21182
5.20115
5.19122
5.18113
5.16693
5.1361
5.06267
4.98073
5.42473
2676.51
-493.393
-160.002
-29.7041
-4.517
0.222176
1.6101
2.27996
2.71572
3.06331
3.37616
3.67263
3.95826
4.23436
4.50091
4.7575
5.00366
5.23894
5.46299
5.67556
5.87645
6.06558
6.24291
6.40848
6.56235
6.70464
6.83551
6.95511
7.06367
7.16142
7.24861
7.32553
7.39248
7.44978
7.49779
7.53686
7.56738
7.58976
7.6044
7.61172
7.61217
7.60617
7.59417
7.57662
7.55396
7.52662
7.49504
7.45965
7.42084
7.37904
7.33463
7.28797
7.23944
7.18937
7.13809
7.0859
7.03308
6.97992
6.92665
6.87351
6.8207
6.76842
6.71685
6.66613
6.61641
6.5678
6.52042
6.47435
6.42966
6.38642
6.34467
6.30446
6.26581
6.22872
6.19321
6.15927
6.1269
6.09607
6.06676
6.03895
6.01259
5.98766
5.96412
5.94192
5.92103
5.9014
5.883
5.86578
5.84971
5.83475
5.82085
5.808
5.79618
5.78542
5.77552
5.76444
5.741
5.66561
5.51228
6.04153
2676.53
-493.335
-159.91
-29.5783
-4.35847
0.412741
1.83211
2.53284
2.99888
3.37612
3.71794
4.04262
4.35567
4.65832
4.9505
5.23176
5.50157
5.75945
6.00501
6.23798
6.45815
6.66541
6.85974
7.04114
7.20971
7.36555
7.50883
7.63975
7.75853
7.86542
7.9607
8.04469
8.11773
8.18016
8.23238
8.27478
8.30778
8.33184
8.34739
8.35492
8.35489
8.3478
8.33412
8.31434
8.28896
8.25845
8.22328
8.18394
8.14087
8.09451
8.04529
7.99363
7.93992
7.88453
7.82781
7.77012
7.71175
7.65302
7.59418
7.53549
7.47718
7.41947
7.36255
7.30658
7.25172
7.19809
7.14582
7.09501
7.04572
6.99804
6.95202
6.90769
6.86508
6.8242
6.78507
6.74768
6.71201
6.67805
6.64577
6.61514
6.58613
6.55869
6.53277
6.50835
6.48537
6.46378
6.44354
6.42461
6.40695
6.39051
6.37526
6.36115
6.34818
6.33642
6.32599
6.31607
6.29723
6.22174
6.01059
6.63643
2676.54
-493.284
-159.826
-29.4622
-4.21078
0.591527
2.04152
2.77237
3.26797
3.67415
4.04424
4.39645
4.73623
5.06476
5.38192
5.68719
5.98001
6.25988
6.52637
6.77917
7.01807
7.24295
7.45376
7.65053
7.83333
8.0023
8.1576
8.29944
8.42806
8.54375
8.6468
8.73757
8.8164
8.8837
8.93988
8.98538
9.02066
9.0462
9.0625
9.07006
9.06942
9.06108
9.0456
9.02349
8.99529
8.96153
8.92272
8.87936
8.83197
8.78101
8.72696
8.67027
8.61135
8.55063
8.48848
8.42528
8.36137
8.29707
8.23267
8.16846
8.10468
8.04156
7.9793
7.91811
7.85813
7.79952
7.7424
7.68687
7.63302
7.58094
7.53066
7.48225
7.43571
7.39109
7.34837
7.30755
7.26863
7.23157
7.19635
7.16294
7.1313
7.10138
7.07313
7.04651
7.02147
6.99796
6.97592
6.95531
6.93609
6.9182
6.9016
6.88627
6.87217
6.85939
6.84818
6.83847
6.82249
6.74786
6.49033
7.20387
2676.56
-493.236
-159.746
-29.3511
-4.06909
0.76346
2.24328
3.00347
3.52786
3.96222
4.35982
4.73882
5.1046
5.45828
5.79969
6.12829
6.44346
6.74466
7.03144
7.30347
7.56052
7.80245
8.02922
8.24084
8.43739
8.61901
8.78589
8.93823
9.07632
9.20043
9.31091
9.40812
9.49245
9.56433
9.62421
9.67256
9.70988
9.7367
9.75355
9.76098
9.75956
9.74986
9.73244
9.70789
9.67677
9.63967
9.59713
9.54971
9.49794
9.44234
9.38342
9.32167
9.25753
9.19146
9.12388
9.05518
8.98572
8.91587
8.84593
8.77621
8.70697
8.63846
8.57091
8.50452
8.43946
8.37589
8.31395
8.25374
8.19537
8.13891
8.08443
8.03196
7.98155
7.9332
7.88693
7.84273
7.80058
7.76046
7.72235
7.68619
7.65195
7.61959
7.58904
7.56026
7.5332
7.50779
7.48399
7.46173
7.44098
7.42167
7.40378
7.38724
7.37204
7.35825
7.34619
7.33623
7.32199
7.24875
6.95657
7.74131
2676.58
-493.189
-159.669
-29.2439
-3.93211
0.929834
2.43864
3.22734
3.7797
4.24144
4.66574
5.07073
5.46171
5.83977
6.20469
6.55587
6.89267
7.21451
7.52091
7.81152
8.0861
8.34449
8.58664
8.81257
9.02236
9.21615
9.39414
9.55655
9.70367
9.83582
9.95336
10.0567
10.1462
10.2223
10.2856
10.3366
10.3757
10.4036
10.4208
10.4279
10.4255
10.4143
10.3948
10.3677
10.3336
10.293
10.2467
10.1951
10.1389
10.0786
10.0148
9.94798
9.8786
9.80718
9.73415
9.65995
9.58496
9.50956
9.4341
9.35889
9.28422
9.21035
9.13754
9.06598
8.99587
8.92738
8.86065
8.79581
8.73295
8.67216
8.6135
8.55703
8.50277
8.45074
8.40096
8.35341
8.30808
8.26494
8.22396
8.18509
8.1483
8.11353
8.08072
8.04982
8.02077
7.9935
7.96797
7.94411
7.92186
7.90118
7.88201
7.8643
7.84804
7.83327
7.82034
7.8099
7.79662
7.72505
7.40977
8.24723
2676.59
-493.144
-159.595
-29.1402
-3.79964
1.09081
2.62771
3.44403
4.02349
4.51173
4.96188
5.39201
5.80737
6.20899
6.59662
6.9696
7.32728
7.66902
7.99434
8.30285
8.5943
8.86853
9.12547
9.36514
9.58762
9.79306
9.98166
10.1537
10.3094
10.4492
10.5734
10.6824
10.7768
10.8569
10.9233
10.9766
11.0172
11.0459
11.0633
11.0699
11.0664
11.0535
11.0318
11.002
10.9648
10.9207
10.8705
10.8147
10.754
10.689
10.6202
10.5483
10.4736
10.3969
10.3184
10.2387
10.1582
10.0772
9.99627
9.91559
9.83551
9.75632
9.67827
9.60158
9.52646
9.45309
9.38162
9.31217
9.24486
9.17978
9.11699
9.05655
8.99849
8.94283
8.88958
8.83872
8.79025
8.74413
8.70032
8.65879
8.61948
8.58234
8.54731
8.51432
8.48332
8.45424
8.42702
8.40158
8.37788
8.35586
8.33546
8.31663
8.29933
8.28362
8.26984
8.25879
8.24594
8.17618
7.84843
8.72064
2676.61
-493.101
-159.523
-29.0402
-3.6718
1.2462
2.81025
3.65327
4.25889
4.77271
5.24781
5.70218
6.14104
6.56537
6.97487
7.36885
7.7466
8.10749
8.45099
8.7767
9.08434
9.37375
9.64485
9.89766
10.1323
10.3488
10.5475
10.7287
10.8925
11.0395
11.1699
11.2843
11.3832
11.4669
11.5361
11.5914
11.6334
11.6627
11.68
11.6859
11.6811
11.6663
11.6423
11.6097
11.5692
11.5215
11.4673
11.4072
11.342
11.2722
11.1985
11.1214
11.0415
10.9593
10.8754
10.7902
10.7042
10.6177
10.5313
10.4452
10.3597
10.2752
10.192
10.1102
10.0301
9.95187
9.87569
9.80169
9.72998
9.66066
9.59378
9.52942
9.4676
9.40835
9.35167
9.29755
9.24598
9.19692
9.15033
9.10617
9.06439
9.02492
8.98771
8.95268
8.91977
8.88891
8.86003
8.83307
8.80796
8.78464
8.76304
8.74312
8.72484
8.70823
8.69362
8.6819
8.66911
8.60132
8.2703
9.16093
2676.62
-493.06
-159.454
-28.9441
-3.54881
1.39573
2.98594
3.85467
4.48548
5.02392
5.52301
6.0007
6.46215
6.9083
7.3388
7.75293
8.14995
8.52919
8.8901
9.23227
9.5554
9.8593
10.1439
10.4092
10.6554
10.8825
11.0908
11.2805
11.452
11.6057
11.742
11.8614
11.9643
12.0513
12.1231
12.1801
12.2231
12.2527
12.2697
12.2747
12.2684
12.2517
12.2251
12.1896
12.1457
12.0943
12.036
11.9717
11.9018
11.8272
11.7484
11.6662
11.581
11.4934
11.4041
11.3134
11.2218
11.1299
11.038
10.9465
10.8557
10.7659
10.6775
10.5907
10.5056
10.4226
10.3418
10.2633
10.1872
10.1137
10.0428
9.97453
9.90901
9.84621
9.78615
9.72881
9.67419
9.62223
9.57291
9.52617
9.48195
9.4402
9.40085
9.36382
9.32904
9.29644
9.26596
9.23751
9.21102
9.18644
9.1637
9.14274
9.12351
9.10604
9.09065
9.07822
9.06526
8.99962
8.67297
9.56778
2676.63
-493.02
-159.387
-28.852
-3.43088
1.53916
3.1545
4.04789
4.70289
5.26495
5.78706
6.2871
6.77019
7.23724
7.68784
8.12125
8.53669
8.93346
9.311
9.66886
10.0067
10.3244
10.6219
10.8991
11.1562
11.3932
11.6105
11.8084
11.9871
12.1471
12.2888
12.4127
12.5193
12.6093
12.6832
12.7417
12.7854
12.8151
12.8315
12.8354
12.8274
12.8085
12.7793
12.7407
12.6933
12.6381
12.5757
12.5069
12.4324
12.3529
12.2691
12.1816
12.0911
11.9982
11.9034
11.8072
11.7102
11.6128
11.5154
11.4185
11.3224
11.2274
11.1339
11.0421
10.9522
10.8644
10.7789
10.696
10.6156
10.5379
10.463
10.391
10.3218
10.2555
10.1921
10.1316
10.0739
10.0191
9.96712
9.91785
9.87125
9.82725
9.7858
9.74681
9.71021
9.67592
9.64386
9.61397
9.58616
9.56036
9.53651
9.51454
9.49441
9.47613
9.46
9.44688
9.43358
9.3703
9.05411
9.94109
2676.65
-492.982
-159.324
-28.7639
-3.31816
1.67629
3.31566
4.23268
4.9108
5.49545
6.03956
6.56096
7.06473
7.55172
8.0215
8.4733
8.90629
9.31975
9.7131
10.0859
10.4378
10.7685
11.0782
11.3666
11.6339
11.8804
12.1061
12.3115
12.4969
12.6627
12.8094
12.9374
13.0474
13.1399
13.2156
13.2753
13.3194
13.349
13.3646
13.3671
13.3573
13.336
13.304
13.2622
13.2113
13.1521
13.0855
13.0122
12.933
12.8485
12.7597
12.667
12.5712
12.4728
12.3726
12.2709
12.1684
12.0656
11.9628
11.8606
11.7592
11.659
11.5604
11.4636
11.3688
11.2764
11.1864
11.099
11.0143
10.9326
10.8537
10.7779
10.7051
10.6354
10.5687
10.5051
10.4445
10.3869
10.3322
10.2805
10.2315
10.1853
10.1418
10.1009
10.0625
10.0266
9.993
9.9617
9.9326
9.90563
9.88071
9.85779
9.8368
9.81776
9.80092
9.78711
9.77339
9.71269
9.41162
10.281
2676.66
-492.946
-159.264
-28.6801
-3.21079
1.80695
3.46926
4.4088
5.10898
5.71517
6.28024
6.82198
7.34544
7.85141
8.33943
8.80869
9.25834
9.68765
10.096
10.4829
10.848
11.1911
11.5122
11.8112
12.0882
12.3434
12.577
12.7894
12.981
13.1521
13.3032
13.435
13.5479
13.6426
13.7199
13.7803
13.8246
13.8537
13.8683
13.8693
13.8574
13.8336
13.7987
13.7534
13.6988
13.6356
13.5647
13.4868
13.4028
13.3135
13.2195
13.1215
13.0204
12.9167
12.811
12.7039
12.5959
12.4877
12.3795
12.2719
12.1653
12.06
11.9563
11.8546
11.7551
11.658
11.5635
11.4717
11.3829
11.2971
11.2143
11.1348
11.0584
10.9853
10.9154
10.8487
10.7852
10.7249
10.6676
10.6134
10.5622
10.5138
10.4683
10.4255
10.3854
10.3479
10.3128
10.2801
10.2498
10.2217
10.1958
10.1719
10.1501
10.1303
10.1128
10.0984
10.0842
10.0262
9.74364
10.5877
2676.67
-492.912
-159.207
-28.6006
-3.10884
1.93106
3.61519
4.57614
5.29728
5.92393
6.5089
7.06996
7.61208
8.13605
8.64136
9.12715
9.59257
10.0368
10.4593
10.8595
11.2371
11.5918
11.9236
12.2325
12.5185
12.7818
13.0228
13.2416
13.4388
13.6147
13.7699
13.905
14.0204
14.117
14.1954
14.2563
14.3005
14.3289
14.3422
14.3414
14.3273
14.3008
14.2627
14.214
14.1556
14.0882
14.0129
13.9304
13.8416
13.7472
13.6481
13.5449
13.4384
13.3293
13.2181
13.1056
12.9922
12.8786
12.7651
12.6522
12.5404
12.43
12.3213
12.2148
12.1105
12.0088
11.9098
11.8138
11.7208
11.631
11.5444
11.4612
11.3813
11.3049
11.2318
11.1621
11.0958
11.0327
10.9729
10.9163
10.8628
10.8124
10.7649
10.7203
10.6785
10.6394
10.6029
10.5689
10.5374
10.5082
10.4812
10.4565
10.4339
10.4135
10.3954
10.3803
10.3656
10.3105
10.0486
10.8616
2676.68
-492.88
-159.153
-28.5253
-3.01233
2.04857
3.75337
4.73461
5.4756
6.12161
6.72543
7.30475
7.86453
8.4055
8.92712
9.42851
9.90877
10.3671
10.8029
11.2156
11.6048
11.9704
12.3122
12.6303
12.9246
13.1955
13.4431
13.6679
13.8702
14.0504
14.2092
14.3471
14.4647
14.5627
14.6419
14.703
14.7468
14.7742
14.786
14.7832
14.7666
14.7372
14.6959
14.6436
14.5812
14.5096
14.4298
14.3426
14.2489
14.1495
14.0452
13.9367
13.8249
13.7103
13.5938
13.4758
13.3571
13.238
13.1192
13.0011
12.8842
12.7687
12.6551
12.5437
12.4348
12.3285
12.2252
12.1249
12.0278
11.9341
11.8437
11.7569
11.6736
11.5939
11.5177
11.445
11.3759
11.3102
11.2479
11.189
11.1333
11.0808
11.0314
10.985
10.9416
10.9009
10.863
10.8278
10.7951
10.7648
10.737
10.7114
10.6881
10.667
10.6483
10.6326
10.6174
10.5653
10.3252
11.1031
2676.69
-492.849
-159.102
-28.4543
-2.92126
2.15947
3.88378
4.88417
5.6439
6.30819
6.92976
7.5263
8.1027
8.65967
9.19662
9.71266
10.2069
10.6784
11.1266
11.551
11.9511
12.3268
12.6779
13.0044
13.3064
13.5842
13.838
14.0681
14.2749
14.459
14.6209
14.7611
14.8805
14.9796
15.0592
15.1201
15.1632
15.1894
15.1995
15.1945
15.1752
15.1428
15.098
15.0419
14.9755
14.8996
14.8153
14.7233
14.6246
14.5201
14.4106
14.2969
14.1797
14.0598
13.9378
13.8145
13.6903
13.5659
13.4419
13.3186
13.1965
13.0761
12.9576
12.8415
12.7279
12.6171
12.5094
12.405
12.3039
12.2063
12.1122
12.0219
11.9352
11.8522
11.773
11.6974
11.6255
11.5572
11.4925
11.4313
11.3735
11.319
11.2677
11.2196
11.1746
11.1325
11.0932
11.0567
11.0229
10.9916
10.9628
10.9365
10.9125
10.8908
10.8715
10.8553
10.8396
10.7904
10.5726
11.3128
2676.7
-492.821
-159.055
-28.3876
-2.83562
2.26377
4.00645
5.02485
5.80219
6.48365
7.12191
7.73461
8.3266
8.89855
9.44987
9.9796
10.4868
10.9707
11.4305
11.8656
12.2759
12.6609
13.0205
13.3548
13.6639
13.9479
14.2072
14.4421
14.653
14.8404
15.0049
15.1471
15.2678
15.3676
15.4473
15.5078
15.5499
15.5745
15.5827
15.5752
15.5531
15.5174
15.4691
15.4092
15.3386
15.2583
15.1693
15.0725
14.9688
14.8592
14.7445
14.6254
14.5029
14.3776
14.2503
14.1215
13.992
13.8624
13.7331
13.6046
13.4775
13.3521
13.2288
13.108
12.9898
12.8747
12.7627
12.6541
12.549
12.4476
12.35
12.2561
12.1661
12.08
11.9977
11.9193
11.8448
11.7739
11.7068
11.6434
11.5835
11.527
11.474
11.4242
11.3775
11.334
11.2934
11.2557
11.2208
11.1886
11.159
11.1318
11.1072
11.0849
11.0652
11.0484
11.0323
10.9859
10.79
11.4914
2676.71
-492.794
-159.01
-28.325
-2.75536
2.36153
4.12142
5.15669
5.95053
6.64806
7.30193
7.92972
8.53627
9.12221
9.68691
10.2294
10.7487
11.244
11.7145
12.1597
12.5792
12.9727
13.3402
13.6816
13.9971
14.2867
14.5509
14.79
15.0044
15.1947
15.3614
15.5051
15.6267
15.7268
15.8063
15.866
15.9068
15.9297
15.9356
15.9255
15.9004
15.8613
15.8093
15.7453
15.6704
15.5857
15.4919
15.3903
15.2816
15.1668
15.0469
14.9225
14.7946
14.664
14.5312
14.3972
14.2624
14.1275
13.993
13.8594
13.7273
13.597
13.469
13.3435
13.2208
13.1013
12.9851
12.8725
12.7635
12.6584
12.5571
12.4599
12.3666
12.2774
12.1922
12.111
12.0338
11.9605
11.8911
11.8254
11.7635
11.7051
11.6503
11.5989
11.5507
11.5058
11.464
11.4251
11.3892
11.356
11.3255
11.2977
11.2724
11.2496
11.2294
11.2121
11.1956
11.1519
10.9772
11.6395
2676.72
-492.769
-158.968
-28.2666
-2.68042
2.4528
4.22875
5.27978
6.08899
6.8015
7.4699
8.11174
8.73182
9.33075
9.90785
10.4621
10.9926
11.4984
11.9788
12.4332
12.8612
13.2625
13.6371
13.9849
14.3061
14.6008
14.8693
15.112
15.3294
15.522
15.6904
15.8353
15.9574
16.0575
16.1364
16.195
16.2343
16.2551
16.2586
16.2456
16.2173
16.1747
16.1188
16.0507
15.9714
15.882
15.7836
15.677
15.5632
15.4433
15.3181
15.1884
15.0552
14.9192
14.7811
14.6417
14.5016
14.3615
14.2219
14.0833
13.9463
13.8111
13.6784
13.5483
13.4212
13.2974
13.1771
13.0605
12.9477
12.8388
12.7341
12.6334
12.537
12.4447
12.3567
12.2727
12.193
12.1173
12.0456
11.9778
11.9138
11.8536
11.7971
11.7441
11.6945
11.6482
11.6051
11.5652
11.5282
11.4942
11.4629
11.4344
11.4085
11.3852
11.3646
11.3468
11.3299
11.2889
11.134
11.7577
2676.73
-492.746
-158.929
-28.2123
-2.61072
2.53768
4.32856
5.3942
6.2177
6.94409
7.62596
8.28081
8.91341
9.52433
10.1129
10.678
11.2188
11.7342
12.2236
12.6864
13.1221
13.5305
13.9115
14.265
14.5912
14.8903
15.1625
15.4084
15.6283
15.8227
15.9924
16.138
16.2602
16.3599
16.4379
16.4951
16.5325
16.5511
16.5518
16.5358
16.5041
16.4578
16.3979
16.3256
16.2419
16.1478
16.0445
15.9329
15.8141
15.6889
15.5584
15.4235
15.2849
15.1436
15.0002
14.8555
14.7102
14.5649
14.4202
14.2767
14.1347
13.9949
13.8574
13.7229
13.5914
13.4634
13.339
13.2184
13.1019
12.9894
12.8812
12.7773
12.6777
12.5825
12.4916
12.405
12.3227
12.2447
12.1707
12.1009
12.035
11.973
11.9148
11.8602
11.8092
11.7616
11.7174
11.6764
11.6385
11.6035
11.5715
11.5424
11.5159
11.4922
11.4711
11.453
11.4358
11.3971
11.2606
11.8469
2676.73
-492.725
-158.893
-28.162
-2.54619
2.61626
4.42094
5.50009
6.33677
7.07599
7.77027
8.4371
9.08121
9.70314
10.3022
10.8773
11.4274
11.9516
12.4492
12.9195
13.3622
13.7769
14.1636
14.5221
14.8527
15.1556
15.431
15.6794
15.9013
16.0971
16.2676
16.4135
16.5354
16.6344
16.7111
16.7667
16.8019
16.818
16.8159
16.7966
16.7613
16.7112
16.6472
16.5705
16.4822
16.3834
16.2752
16.1586
16.0346
15.9043
15.7685
15.6282
15.4844
15.3377
15.189
15.0391
14.8886
14.7382
14.5885
14.44
14.2933
14.1487
14.0067
13.8677
13.7319
13.5998
13.4713
13.3469
13.2267
13.1107
12.9991
12.892
12.7893
12.6912
12.5975
12.5084
12.4236
12.3433
12.2672
12.1953
12.1275
12.0638
12.004
11.9479
11.8955
11.8467
11.8013
11.7592
11.7204
11.6847
11.652
11.6222
11.5952
11.571
11.5497
11.5311
11.5136
11.4771
11.3575
11.9079
2676.74
-492.705
-158.86
-28.1156
-2.48674
2.68864
4.50602
5.5976
6.44639
7.19737
7.90303
8.58082
9.23545
9.86743
10.476
11.0601
11.6187
12.1509
12.6558
13.1329
13.5818
14.0021
14.3937
14.7567
15.0911
15.3971
15.6752
15.9256
16.1489
16.3457
16.5165
16.6623
16.7836
16.8814
16.9566
17.0102
17.0431
17.0564
17.0512
17.0285
16.9895
16.9353
16.8671
16.7859
16.693
16.5894
16.4762
16.3545
16.2254
16.0899
15.9488
15.8033
15.6541
15.5022
15.3483
15.1932
15.0375
14.8821
14.7274
14.574
14.4225
14.2733
14.1268
13.9834
13.8435
13.7072
13.5748
13.4467
13.3228
13.2033
13.0884
12.9781
12.8725
12.7715
12.6752
12.5835
12.4963
12.4137
12.3355
12.2617
12.1921
12.1267
12.0653
12.0077
11.954
11.904
11.8575
11.8145
11.7748
11.7383
11.7049
11.6745
11.6471
11.6225
11.6007
11.5819
11.5641
11.5297
11.4251
11.9415
2676.75
-492.687
-158.83
-28.0732
-2.43226
2.75496
4.58395
5.68688
6.54672
7.30843
8.02445
8.71221
9.37639
10.0175
10.6347
11.2269
11.7932
12.3324
12.8439
13.327
13.7813
14.2064
14.6024
14.9691
15.3066
15.6153
15.8954
16.1473
16.3716
16.5688
16.7397
16.8849
17.0052
17.1016
17.175
17.2263
17.2566
17.2669
17.2583
17.232
17.1892
17.1309
17.0583
16.9726
16.8749
16.7664
16.6483
16.5215
16.3872
16.2464
16.1002
15.9494
15.7949
15.6377
15.4786
15.3183
15.1576
14.9972
14.8376
14.6794
14.5232
14.3694
14.2185
14.0708
13.9267
13.7864
13.6502
13.5183
13.3909
13.2681
13.1499
13.0365
12.928
12.8242
12.7252
12.6311
12.5416
12.4568
12.3766
12.3008
12.2295
12.1624
12.0994
12.0405
11.9855
11.9343
11.8868
11.8428
11.8022
11.765
11.731
11.7
11.6721
11.6472
11.6252
11.6061
11.5881
11.5555
11.4643
11.9485
2676.75
-492.67
-158.802
-28.0345
-2.38264
2.81534
4.65488
5.76811
6.63798
7.4094
8.13479
8.83155
9.50432
10.1536
10.7785
11.378
11.951
12.4965
13.0138
13.5021
13.9611
14.3904
14.79
15.1598
15.5
15.8107
16.0923
16.3452
16.57
16.7672
16.9376
17.0819
17.201
17.2956
17.3668
17.4156
17.443
17.4501
17.4381
17.408
17.3611
17.2985
17.2215
17.1312
17.0287
16.9153
16.7921
16.6602
16.5208
16.3748
16.2232
16.0672
15.9075
15.7451
15.5808
15.4154
15.2497
15.0843
14.9199
14.757
14.5962
14.4379
14.2826
14.1307
13.9825
13.8383
13.6983
13.5628
13.4319
13.3057
13.1844
13.068
12.9566
12.8501
12.7486
12.652
12.5602
12.4733
12.3911
12.3135
12.2404
12.1717
12.1073
12.0471
11.9908
11.9385
11.89
11.8451
11.8037
11.7657
11.7311
11.6997
11.6713
11.646
11.6238
11.6044
11.5863
11.5554
11.4759
11.9301
2676.76
-492.655
-158.777
-27.9995
-2.33775
2.86993
4.71898
5.8415
6.72039
7.50052
8.23431
8.93911
9.61955
10.2761
10.9078
11.5138
12.0927
12.6437
13.1659
13.6588
14.1218
14.5546
14.9572
15.3295
15.6716
15.9838
16.2664
16.5198
16.7447
16.9415
17.1111
17.2541
17.3715
17.464
17.5328
17.5788
17.6031
17.6069
17.5911
17.5571
17.5061
17.4391
17.3575
17.2625
17.1552
17.0368
16.9086
16.7715
16.6269
16.4757
16.3189
16.1576
15.9927
15.8252
15.6558
15.4854
15.3147
15.1444
14.9752
14.8076
14.6423
14.4796
14.32
14.1639
14.0117
13.8637
13.72
13.5809
13.4466
13.3172
13.1928
13.0734
12.9592
12.8501
12.7461
12.6471
12.5532
12.4642
12.38
12.3006
12.2259
12.1557
12.0898
12.0283
11.9708
11.9174
11.8679
11.8221
11.78
11.7414
11.7062
11.6742
11.6455
11.6199
11.5974
11.5779
11.5596
11.5302
11.461
11.887
2676.76
-492.642
-158.755
-27.968
-2.29749
2.91889
4.77645
5.90726
6.79418
7.58207
8.32332
9.03524
9.72245
10.3854
11.0231
11.6346
12.2187
12.7744
13.3009
13.7975
14.2638
14.6995
15.1044
15.4786
15.8222
16.1353
16.4184
16.6719
16.8964
17.0924
17.2607
17.4022
17.5175
17.6077
17.6738
17.7168
17.7378
17.7379
17.7184
17.6803
17.6249
17.5535
17.4673
17.3674
17.2552
17.1319
16.9985
16.8564
16.7065
16.5501
16.3881
16.2216
16.0516
15.8789
15.7045
15.5291
15.3535
15.1784
15.0045
14.8323
14.6625
14.4955
14.3317
14.1716
14.0154
13.8636
13.7163
13.5737
13.4361
13.3035
13.1761
13.0539
12.9369
12.8252
12.7188
12.6175
12.5214
12.4304
12.3444
12.2633
12.1869
12.1152
12.048
11.9851
11.9266
11.8721
11.8217
11.7751
11.7322
11.6929
11.6572
11.6248
11.5957
11.5698
11.5471
11.5274
11.5091
11.4811
11.4207
11.8204
2676.76
-492.63
-158.735
-27.9401
-2.26169
2.96239
4.82748
5.96561
6.85962
7.65435
8.40213
9.12028
9.81338
10.4818
11.1247
11.741
12.3295
12.8891
13.4191
13.9189
14.3878
14.8257
15.2324
15.6079
15.9523
16.2659
16.5491
16.8022
17.0258
17.2207
17.3874
17.5269
17.6399
17.7275
17.7907
17.8304
17.8479
17.8442
17.8207
17.7784
17.7186
17.6426
17.5517
17.447
17.3298
17.2014
17.063
16.9157
16.7607
16.599
16.4319
16.2603
16.0851
15.9073
15.7279
15.5476
15.3671
15.1873
15.0088
14.8321
14.6579
14.4866
14.3187
14.1546
13.9946
13.8391
13.6882
13.5422
13.4014
13.2657
13.1353
13.0103
12.8907
12.7765
12.6677
12.5642
12.4661
12.3731
12.2853
12.2024
12.1245
12.0513
11.9828
11.9187
11.8591
11.8036
11.7523
11.7049
11.6613
11.6214
11.5852
11.5523
11.5229
11.4968
11.4739
11.454
11.4357
11.4089
11.3562
11.7314
2676.77
-492.619
-158.717
-27.9155
-2.23023
3.00061
4.87229
6.01681
6.91699
7.71764
8.47108
9.1946
9.89275
10.5659
11.2132
11.8335
12.4256
12.9884
13.5213
14.0234
14.4944
14.9339
15.3418
15.7181
16.0629
16.3764
16.6591
16.9114
17.1338
17.3271
17.4919
17.6291
17.7396
17.8243
17.8842
17.9205
17.9343
17.9267
17.899
17.8524
17.7881
17.7075
17.6117
17.5022
17.38
17.2465
17.103
16.9505
16.7904
16.6236
16.4513
16.2745
16.0943
15.9115
15.7272
15.542
15.3568
15.1723
14.9892
14.8081
14.6296
14.4541
14.2822
14.1141
13.9504
13.7912
13.6369
13.4876
13.3436
13.2049
13.0716
12.9439
12.8217
12.7051
12.594
12.4883
12.3881
12.2933
12.2037
12.1192
12.0398
11.9652
11.8954
11.8302
11.7694
11.713
11.6608
11.6126
11.5684
11.528
11.4912
11.458
11.4283
11.4019
11.3788
11.3589
11.3406
11.315
11.2687
11.6211
2676.77
-492.61
-158.702
-27.8942
-2.20293
3.03374
4.91109
6.06111
6.96659
7.7723
8.53054
9.2586
9.96098
10.6381
11.289
11.9125
12.5075
13.0729
13.6079
14.1119
14.5843
15.0248
15.4333
15.8098
16.1545
16.4675
16.7494
17.0004
17.2213
17.4126
17.5752
17.7098
17.8174
17.899
17.9555
17.9882
17.9981
17.9864
17.9544
17.9033
17.8345
17.7491
17.6485
17.534
17.4068
17.2683
17.1196
16.962
16.7967
16.6248
16.4474
16.2656
16.0804
15.8927
15.7034
15.5134
15.3235
15.1345
14.9469
14.7614
14.5787
14.3991
14.2232
14.0514
13.884
13.7213
13.5636
13.4111
13.2639
13.1223
12.9862
12.8558
12.7311
12.6121
12.4988
12.3911
12.2889
12.1922
12.1009
12.0148
11.9339
11.858
11.7869
11.7206
11.6588
11.6015
11.5485
11.4996
11.4547
11.4137
11.3765
11.343
11.3129
11.2864
11.2631
11.2431
11.2248
11.2003
11.1596
11.4907
2676.77
-492.602
-158.689
-27.8759
-2.17965
3.06197
4.94413
6.09879
7.00872
7.81866
8.5809
9.31268
10.0185
10.6988
11.3526
11.9787
12.5759
13.1432
13.6797
14.1848
14.6581
15.099
15.5077
15.884
16.228
16.5401
16.8207
17.0701
17.289
17.4781
17.6381
17.7699
17.8744
17.9526
18.0055
18.0344
18.0402
18.0243
17.9879
17.9323
17.8588
17.7686
17.6631
17.5436
17.4114
17.2678
17.1141
16.9514
16.7809