/*--------------------------------*- C++ -*----------------------------------*\
  =========                 |
  \\      /  F ield         | OpenFOAM: The Open Source CFD Toolbox
   \\    /   O peration     | Website:  https://openfoam.org
    \\  /    A nd           | Version:  10
     \\/     M anipulation  |
\*---------------------------------------------------------------------------*/
FoamFile
{
    format      ascii;
    class       volScalarField;
    location    "7.5";
    object      T;
}
// * * * * * * * * * * * * * * * * * * * * * * * * * * * * * * * * * * * * * //

dimensions      [0 0 0 1 0 0 0];

internalField   nonuniform List<scalar> 
10000
(
374.942
361.139
356.354
354.199
352.983
352.179
351.588
351.122
350.737
350.408
350.118
349.858
349.621
349.402
349.198
349.007
348.827
348.657
348.494
348.34
348.192
348.05
347.915
347.785
347.66
347.54
347.425
347.314
347.208
347.106
347.009
346.915
346.825
346.739
346.657
346.578
346.503
346.431
346.363
346.297
346.235
346.176
346.119
346.066
346.015
345.967
345.922
345.879
345.838
345.8
345.763
345.729
345.697
345.667
345.639
345.612
345.588
345.564
345.543
345.523
345.504
345.486
345.47
345.455
345.441
345.428
345.416
345.405
345.395
345.385
345.377
345.369
345.362
345.355
345.349
345.344
345.339
345.335
345.331
345.328
345.324
345.322
345.319
345.317
345.316
345.314
345.313
345.312
345.311
345.311
345.311
345.311
345.311
345.311
345.311
345.312
345.313
345.314
345.315
345.318
388.464
374.384
366.415
361.64
358.52
356.305
354.62
353.269
352.141
351.168
350.308
349.535
348.828
348.176
347.568
346.997
346.459
345.948
345.463
344.999
344.557
344.133
343.726
343.337
342.962
342.603
342.258
341.927
341.609
341.304
341.011
340.73
340.461
340.203
339.956
339.72
339.495
339.279
339.074
338.878
338.691
338.514
338.345
338.185
338.033
337.889
337.752
337.623
337.501
337.386
337.277
337.175
337.079
336.989
336.904
336.825
336.75
336.681
336.616
336.555
336.498
336.446
336.397
336.352
336.31
336.271
336.235
336.202
336.171
336.143
336.118
336.094
336.073
336.053
336.036
336.02
336.005
335.992
335.98
335.97
335.961
335.953
335.946
335.94
335.934
335.93
335.926
335.924
335.922
335.92
335.919
335.919
335.919
335.92
335.922
335.924
335.926
335.929
335.932
335.936
392.975
381.532
373.29
367.437
363.163
359.912
357.332
355.208
353.403
351.829
350.428
349.161
348
346.924
345.92
344.975
344.083
343.236
342.43
341.661
340.926
340.221
339.546
338.897
338.275
337.678
337.104
336.553
336.023
335.515
335.028
334.561
334.113
333.683
333.273
332.88
332.504
332.146
331.804
331.477
331.167
330.871
330.59
330.323
330.07
329.83
329.603
329.388
329.185
328.993
328.813
328.642
328.482
328.332
328.191
328.058
327.934
327.818
327.71
327.609
327.515
327.428
327.346
327.271
327.201
327.136
327.076
327.021
326.971
326.924
326.881
326.842
326.806
326.774
326.744
326.718
326.693
326.672
326.652
326.635
326.62
326.606
326.594
326.584
326.576
326.568
326.563
326.558
326.554
326.552
326.551
326.55
326.551
326.552
326.554
326.558
326.561
326.566
326.571
326.577
394.857
385.49
377.784
371.659
366.791
362.856
359.6
356.84
354.447
352.332
350.432
348.7
347.105
345.621
344.232
342.924
341.685
340.509
339.387
338.316
337.291
336.309
335.367
334.463
333.594
332.76
331.959
331.189
330.45
329.741
329.06
328.407
327.781
327.181
326.607
326.058
325.533
325.032
324.554
324.098
323.664
323.25
322.857
322.484
322.13
321.795
321.477
321.177
320.893
320.625
320.372
320.134
319.91
319.7
319.503
319.318
319.144
318.982
318.831
318.69
318.558
318.436
318.322
318.216
318.119
318.028
317.945
317.868
317.797
317.731
317.672
317.617
317.567
317.522
317.48
317.443
317.409
317.379
317.351
317.327
317.306
317.287
317.27
317.256
317.244
317.234
317.226
317.219
317.214
317.211
317.209
317.209
317.209
317.211
317.214
317.219
317.224
317.231
317.238
317.247
395.802
387.796
380.702
374.632
369.495
365.132
361.385
358.12
355.232
352.641
350.288
348.126
346.123
344.252
342.494
340.833
339.258
337.76
336.329
334.962
333.652
332.397
331.191
330.034
328.922
327.854
326.827
325.841
324.893
323.984
323.111
322.273
321.47
320.701
319.965
319.261
318.588
317.945
317.331
316.746
316.189
315.659
315.154
314.676
314.221
313.791
313.383
312.998
312.633
312.289
311.965
311.66
311.372
311.102
310.849
310.612
310.389
310.181
309.987
309.806
309.637
309.48
309.334
309.198
309.073
308.956
308.849
308.75
308.659
308.575
308.499
308.428
308.364
308.306
308.253
308.205
308.161
308.122
308.087
308.056
308.029
308.005
307.983
307.965
307.95
307.937
307.926
307.918
307.911
307.907
307.905
307.904
307.905
307.907
307.911
307.917
307.924
307.932
307.942
307.952
396.337
389.201
382.605
376.681
371.436
366.807
362.706
359.044
355.743
352.739
349.979
347.424
345.041
342.805
340.695
338.697
336.797
334.985
333.254
331.597
330.008
328.484
327.02
325.613
324.261
322.961
321.712
320.511
319.358
318.25
317.187
316.166
315.188
314.251
313.354
312.496
311.675
310.891
310.143
309.43
308.751
308.104
307.49
306.906
306.352
305.827
305.33
304.86
304.415
303.996
303.601
303.228
302.878
302.549
302.24
301.95
301.679
301.425
301.188
300.967
300.761
300.569
300.391
300.226
300.073
299.931
299.8
299.679
299.568
299.466
299.373
299.287
299.209
299.137
299.073
299.014
298.961
298.914
298.871
298.833
298.799
298.77
298.744
298.722
298.703
298.687
298.674
298.664
298.656
298.651
298.647
298.646
298.648
298.651
298.655
298.662
298.671
298.681
298.692
298.705
396.659
390.081
383.844
378.063
372.778
367.974
363.61
359.631
355.985
352.622
349.502
346.588
343.853
341.274
338.831
336.51
334.297
332.184
330.16
328.221
326.36
324.572
322.854
321.202
319.614
318.086
316.617
315.205
313.848
312.545
311.293
310.092
308.941
307.837
306.78
305.769
304.803
303.879
302.998
302.158
301.358
300.596
299.872
299.184
298.531
297.912
297.327
296.772
296.249
295.754
295.288
294.849
294.436
294.048
293.684
293.342
293.023
292.723
292.444
292.183
291.941
291.715
291.505
291.31
291.129
290.962
290.808
290.666
290.535
290.414
290.304
290.203
290.111
290.026
289.95
289.881
289.819
289.762
289.712
289.667
289.628
289.593
289.562
289.536
289.514
289.495
289.479
289.467
289.458
289.452
289.448
289.447
289.448
289.452
289.457
289.465
289.475
289.487
289.5
289.516
396.858
390.633
384.638
378.963
373.655
368.723
364.154
359.916
355.977
352.301
348.857
345.617
342.557
339.657
336.9
334.271
331.759
329.354
327.048
324.835
322.708
320.664
318.697
316.805
314.984
313.233
311.548
309.927
308.37
306.873
305.436
304.056
302.733
301.465
300.251
299.089
297.978
296.917
295.904
294.938
294.017
293.142
292.309
291.518
290.767
290.055
289.381
288.744
288.142
287.573
287.037
286.532
286.057
285.61
285.191
284.798
284.43
284.086
283.765
283.465
283.186
282.926
282.684
282.46
282.252
282.06
281.882
281.719
281.568
281.429
281.302
281.186
281.08
280.983
280.895
280.815
280.744
280.679
280.621
280.569
280.524
280.483
280.448
280.418
280.392
280.371
280.353
280.339
280.328
280.321
280.316
280.315
280.316
280.32
280.327
280.336
280.347
280.36
280.376
280.394
396.979
390.97
385.124
379.511
374.175
369.136
364.395
359.937
355.743
351.79
348.055
344.517
341.156
337.956
334.901
331.98
329.182
326.497
323.918
321.44
319.055
316.76
314.551
312.424
310.376
308.405
306.507
304.682
302.927
301.24
299.62
298.065
296.573
295.142
293.773
292.461
291.208
290.01
288.867
287.776
286.738
285.749
284.808
283.915
283.068
282.264
281.503
280.783
280.103
279.461
278.855
278.285
277.748
277.244
276.771
276.327
275.912
275.523
275.16
274.821
274.505
274.212
273.939
273.686
273.451
273.234
273.033
272.848
272.678
272.521
272.378
272.246
272.126
272.017
271.917
271.827
271.746
271.673
271.608
271.549
271.497
271.452
271.412
271.378
271.349
271.324
271.304
271.288
271.276
271.267
271.262
271.261
271.262
271.267
271.274
271.284
271.296
271.311
271.329
271.349
397.047
391.159
385.392
379.8
374.421
369.281
364.385
359.732
355.311
351.108
347.109
343.296
339.656
336.174
332.839
329.64
326.568
323.615
320.773
318.038
315.403
312.865
310.419
308.063
305.793
303.606
301.501
299.475
297.526
295.652
293.852
292.123
290.465
288.875
287.351
285.893
284.499
283.166
281.895
280.681
279.526
278.425
277.379
276.385
275.441
274.547
273.7
272.899
272.141
271.427
270.752
270.118
269.52
268.959
268.432
267.938
267.475
267.042
266.638
266.261
265.909
265.582
265.278
264.996
264.735
264.493
264.269
264.063
263.874
263.699
263.539
263.393
263.259
263.137
263.027
262.926
262.836
262.754
262.681
262.616
262.558
262.508
262.463
262.425
262.392
262.365
262.342
262.324
262.311
262.301
262.296
262.294
262.295
262.3
262.308
262.319
262.333
262.349
262.369
262.391
397.078
391.243
385.501
379.894
374.456
369.211
364.17
359.337
354.709
350.277
346.033
341.966
338.065
334.319
330.718
327.255
323.922
320.711
317.616
314.632
311.755
308.981
306.305
303.725
301.238
298.841
296.533
294.31
292.171
290.114
288.136
286.238
284.415
282.668
280.994
279.391
277.858
276.393
274.994
273.66
272.389
271.179
270.028
268.934
267.896
266.912
265.98
265.098
264.265
263.478
262.737
262.038
261.38
260.762
260.182
259.639
259.129
258.653
258.208
257.793
257.406
257.046
256.711
256.401
256.113
255.847
255.601
255.374
255.165
254.973
254.797
254.635
254.488
254.354
254.232
254.121
254.021
253.932
253.851
253.779
253.716
253.66
253.611
253.569
253.533
253.502
253.477
253.457
253.442
253.432
253.425
253.423
253.424
253.429
253.438
253.45
253.465
253.483
253.505
253.528
397.083
391.25
385.492
379.841
374.326
368.971
363.788
358.784
353.962
349.317
344.845
340.539
336.392
332.397
328.545
324.831
321.247
317.788
314.45
311.227
308.116
305.112
302.213
299.415
296.717
294.115
291.607
289.192
286.866
284.63
282.479
280.413
278.43
276.529
274.706
272.961
271.292
269.696
268.173
266.719
265.334
264.016
262.762
261.57
260.439
259.367
258.351
257.39
256.482
255.624
254.816
254.054
253.337
252.664
252.031
251.438
250.883
250.364
249.879
249.426
249.004
248.611
248.246
247.908
247.594
247.303
247.035
246.788
246.56
246.35
246.158
245.982
245.822
245.675
245.542
245.421
245.312
245.214
245.127
245.048
244.979
244.918
244.864
244.818
244.778
244.745
244.718
244.696
244.679
244.668
244.66
244.658
244.659
244.664
244.673
244.686
244.702
244.722
244.745
244.771
397.067
391.2
385.394
379.675
374.069
368.596
363.27
358.101
353.093
348.247
343.56
339.029
334.65
330.418
326.327
322.372
318.549
314.853
311.28
307.826
304.488
301.262
298.146
295.137
292.233
289.431
286.729
284.126
281.618
279.206
276.886
274.656
272.516
270.462
268.494
266.609
264.806
263.082
261.436
259.866
258.369
256.944
255.589
254.3
253.078
251.919
250.82
249.781
248.799
247.872
246.998
246.174
245.399
244.67
243.986
243.345
242.744
242.183
241.658
241.168
240.712
240.287
239.892
239.526
239.186
238.872
238.582
238.314
238.067
237.841
237.633
237.442
237.268
237.11
236.966
236.835
236.717
236.611
236.516
236.431
236.356
236.289
236.231
236.181
236.138
236.102
236.072
236.048
236.03
236.017
236.009
236.006
236.008
236.013
236.023
236.036
236.054
236.075
236.099
236.127
397.037
391.106
385.228
379.422
373.71
368.113
362.644
357.312
352.125
347.085
342.193
337.448
332.848
328.39
324.071
319.887
315.835
311.91
308.112
304.435
300.877
297.437
294.11
290.896
287.791
284.794
281.903
279.116
276.431
273.847
271.361
268.971
266.676
264.475
262.364
260.342
258.407
256.558
254.792
253.106
251.5
249.97
248.515
247.132
245.819
244.574
243.395
242.279
241.225
240.229
239.29
238.405
237.572
236.79
236.055
235.366
234.721
234.118
233.554
233.028
232.537
232.081
231.657
231.263
230.898
230.56
230.248
229.961
229.696
229.452
229.228
229.024
228.837
228.666
228.511
228.371
228.244
228.13
228.027
227.936
227.855
227.783
227.721
227.667
227.62
227.581
227.549
227.523
227.504
227.489
227.481
227.477
227.478
227.484
227.494
227.508
227.527
227.549
227.575
227.605
396.996
390.98
385.01
379.101
373.274
367.546
361.93
356.437
351.075
345.848
340.76
335.81
330.998
326.324
321.786
317.382
313.109
308.966
304.949
301.057
297.288
293.639
290.109
286.695
283.396
280.21
277.134
274.169
271.31
268.558
265.91
263.364
260.918
258.571
256.321
254.165
252.102
250.129
248.245
246.446
244.732
243.1
241.547
240.071
238.67
237.341
236.082
234.891
233.765
232.702
231.699
230.754
229.865
229.03
228.245
227.51
226.821
226.176
225.574
225.012
224.488
224
223.547
223.127
222.737
222.376
222.043
221.735
221.452
221.192
220.953
220.734
220.534
220.352
220.186
220.036
219.9
219.778
219.669
219.571
219.484
219.407
219.34
219.282
219.233
219.191
219.156
219.128
219.107
219.092
219.082
219.078
219.079
219.084
219.095
219.11
219.129
219.153
219.18
219.212
396.946
390.829
384.752
378.728
372.776
366.911
361.147
355.494
349.96
344.551
339.272
334.124
329.11
324.229
319.48
314.865
310.38
306.025
301.799
297.7
293.725
289.875
286.147
282.54
279.052
275.681
272.427
269.287
266.26
263.344
260.538
257.839
255.246
252.757
250.37
248.083
245.894
243.801
241.801
239.892
238.073
236.34
234.691
233.124
231.636
230.225
228.888
227.623
226.427
225.298
224.233
223.229
222.285
221.397
220.563
219.782
219.05
218.365
217.725
217.128
216.571
216.053
215.571
215.124
214.71
214.327
213.972
213.645
213.344
213.067
212.813
212.581
212.368
212.174
211.998
211.838
211.694
211.564
211.447
211.343
211.251
211.169
211.098
211.036
210.983
210.938
210.901
210.871
210.848
210.831
210.821
210.816
210.817
210.822
210.833
210.849
210.869
210.894
210.922
210.955
396.89
390.658
384.463
378.315
372.231
366.225
360.31
354.496
348.793
343.207
337.742
332.403
327.193
322.112
317.162
312.342
307.653
303.095
298.666
294.366
290.194
286.149
282.23
278.435
274.764
271.214
267.786
264.477
261.285
258.21
255.249
252.402
249.665
247.038
244.517
242.102
239.79
237.579
235.466
233.45
231.527
229.696
227.953
226.297
224.724
223.232
221.819
220.482
219.217
218.023
216.897
215.835
214.837
213.898
213.016
212.189
211.415
210.691
210.014
209.382
208.793
208.245
207.736
207.263
206.824
206.419
206.044
205.698
205.379
205.086
204.817
204.571
204.346
204.141
203.954
203.785
203.632
203.494
203.37
203.26
203.162
203.075
202.999
202.934
202.877
202.829
202.79
202.758
202.733
202.716
202.704
202.699
202.699
202.705
202.716
202.732
202.753
202.778
202.808
202.843
396.828
390.473
384.151
377.872
371.65
365.499
359.431
353.457
347.587
341.826
336.181
330.657
325.257
319.983
314.837
309.821
304.936
300.181
295.556
291.063
286.699
282.466
278.361
274.385
270.536
266.813
263.215
259.741
256.39
253.16
250.049
247.057
244.18
241.418
238.767
236.227
233.795
231.469
229.246
227.124
225.101
223.173
221.339
219.595
217.939
216.369
214.881
213.472
212.141
210.883
209.697
208.579
207.527
206.538
205.61
204.739
203.923
203.16
202.447
201.781
201.161
200.583
200.046
199.548
199.086
198.658
198.263
197.899
197.563
197.254
196.97
196.711
196.473
196.257
196.06
195.882
195.72
195.575
195.444
195.327
195.224
195.132
195.052
194.983
194.923
194.872
194.83
194.796
194.77
194.751
194.738
194.732
194.732
194.738
194.749
194.765
194.787
194.813
194.845
194.88
396.763
390.277
383.821
377.405
371.041
364.742
358.521
352.388
346.352
340.42
334.599
328.894
323.31
317.849
312.515
307.309
302.233
297.288
292.475
287.795
283.246
278.83
274.546
270.394
266.372
262.481
258.719
255.086
251.579
248.198
244.942
241.808
238.795
235.901
233.124
230.463
227.914
225.475
223.145
220.92
218.798
216.776
214.853
213.024
211.287
209.639
208.078
206.6
205.203
203.884
202.639
201.466
200.362
199.324
198.35
197.435
196.579
195.778
195.029
194.331
193.679
193.073
192.509
191.986
191.501
191.052
190.637
190.254
189.901
189.577
189.279
189.006
188.757
188.529
188.323
188.135
187.965
187.812
187.675
187.552
187.443
187.347
187.262
187.189
187.126
187.072
187.028
186.992
186.964
186.943
186.93
186.923
186.922
186.928
186.939
186.956
186.978
187.005
187.038
187.074
396.695
390.072
383.478
376.921
370.412
363.965
357.59
351.298
345.098
338.998
333.004
327.123
321.36
315.718
310.201
304.811
299.552
294.424
289.428
284.566
279.839
275.247
270.789
266.466
262.278
258.224
254.303
250.514
246.857
243.33
239.931
236.66
233.515
230.493
227.593
224.813
222.15
219.602
217.167
214.842
212.624
210.511
208.5
206.588
204.772
203.049
201.417
199.871
198.41
197.03
195.728
194.501
193.346
192.261
191.241
190.285
189.389
188.551
187.767
187.036
186.355
185.72
185.13
184.583
184.075
183.605
183.171
182.77
182.4
182.061
181.749
181.463
181.202
180.964
180.747
180.55
180.373
180.212
180.068
179.939
179.825
179.724
179.635
179.558
179.491
179.435
179.388
179.35
179.32
179.298
179.284
179.276
179.275
179.28
179.291
179.308
179.331
179.359
179.392
179.43
396.625
389.862
383.127
376.425
369.77
363.172
356.643
350.194
343.832
337.566
331.404
325.352
319.414
313.596
307.902
302.335
296.897
291.592
286.42
281.383
276.483
271.72
267.094
262.606
258.256
254.044
249.969
246.03
242.227
238.558
235.022
231.618
228.343
225.197
222.177
219.282
216.508
213.854
211.317
208.894
206.583
204.381
202.285
200.291
198.398
196.602
194.9
193.289
191.766
190.326
188.969
187.689
186.485
185.352
184.289
183.291
182.357
181.483
180.665
179.903
179.191
178.529
177.914
177.343
176.813
176.322
175.869
175.451
175.065
174.71
174.385
174.087
173.814
173.565
173.339
173.133
172.947
172.78
172.629
172.494
172.375
172.269
172.176
172.095
172.025
171.966
171.916
171.876
171.845
171.821
171.805
171.797
171.795
171.8
171.811
171.829
171.852
171.88
171.914
171.953
396.554
389.648
382.769
375.923
369.119
362.371
355.689
349.083
342.561
336.133
329.806
323.586
317.479
311.49
305.624
299.885
294.275
288.797
283.455
278.249
273.181
268.253
263.465
258.818
254.312
249.946
245.722
241.637
237.692
233.886
230.216
226.683
223.284
220.017
216.881
213.873
210.992
208.234
205.598
203.08
200.679
198.39
196.211
194.139
192.171
190.304
188.534
186.858
185.274
183.777
182.365
181.034
179.782
178.604
177.498
176.46
175.488
174.578
173.728
172.934
172.194
171.505
170.865
170.27
169.719
169.208
168.737
168.301
167.9
167.53
167.192
166.881
166.597
166.338
166.102
165.888
165.694
165.519
165.362
165.222
165.097
164.986
164.889
164.804
164.731
164.669
164.617
164.575
164.541
164.517
164.5
164.49
164.488
164.492
164.503
164.521
164.544
164.573
164.608
164.648
396.482
389.433
382.409
375.416
368.465
361.567
354.732
347.971
341.292
334.705
328.215
321.832
315.56
309.405
303.372
297.466
291.689
286.046
280.538
275.169
269.939
264.852
259.906
255.105
250.447
245.934
241.565
237.339
233.257
229.317
225.519
221.86
218.34
214.956
211.707
208.591
205.605
202.747
200.015
197.405
194.915
192.541
190.282
188.134
186.093
184.156
182.32
180.582
178.939
177.386
175.921
174.541
173.241
172.019
170.871
169.794
168.785
167.841
166.959
166.135
165.367
164.652
163.987
163.37
162.797
162.267
161.778
161.325
160.908
160.525
160.173
159.85
159.555
159.286
159.041
158.818
158.617
158.435
158.271
158.125
157.995
157.88
157.778
157.69
157.614
157.549
157.495
157.45
157.415
157.389
157.37
157.36
157.357
157.361
157.372
157.389
157.413
157.442
157.478
157.518
396.41
389.216
382.047
374.908
367.81
360.763
353.777
346.863
340.03
333.285
326.638
320.095
313.662
307.346
301.152
295.083
289.145
283.341
277.674
272.146
266.76
261.518
256.421
251.47
246.667
242.01
237.501
233.139
228.924
224.856
220.932
217.152
213.514
210.017
206.659
203.437
200.35
197.395
194.569
191.87
189.294
186.839
184.502
182.279
180.167
178.163
176.263
174.465
172.764
171.157
169.64
168.211
166.866
165.601
164.412
163.297
162.253
161.275
160.361
159.508
158.713
157.973
157.284
156.645
156.052
155.503
154.995
154.527
154.095
153.698
153.333
152.998
152.692
152.413
152.159
151.928
151.719
151.53
151.361
151.209
151.074
150.954
150.848
150.756
150.677
150.609
150.552
150.506
150.469
150.441
150.421
150.41
150.406
150.41
150.42
150.437
150.461
150.491
150.527
150.568
396.338
389
381.687
374.403
367.158
359.963
352.828
345.764
338.778
331.881
325.079
318.38
311.791
305.318
298.966
292.741
286.646
280.687
274.865
269.184
263.648
258.256
253.013
247.918
242.973
238.178
233.534
229.04
224.697
220.503
216.458
212.561
208.81
205.203
201.739
198.415
195.23
192.181
189.264
186.478
183.82
181.285
178.872
176.577
174.397
172.327
170.366
168.508
166.751
165.092
163.525
162.049
160.659
159.352
158.124
156.973
155.893
154.883
153.939
153.058
152.236
151.471
150.759
150.098
149.485
148.918
148.393
147.909
147.462
147.051
146.674
146.328
146.011
145.723
145.459
145.221
145.004
144.809
144.633
144.476
144.336
144.211
144.102
144.006
143.923
143.853
143.794
143.745
143.706
143.677
143.656
143.643
143.639
143.642
143.652
143.669
143.692
143.722
143.759
143.8
396.267
388.786
381.329
373.901
366.511
359.17
351.889
344.676
337.542
330.494
323.542
316.691
309.95
303.324
296.82
290.443
284.197
278.087
272.116
266.287
260.604
255.069
249.684
244.45
239.368
234.44
229.665
225.044
220.577
216.263
212.101
208.09
204.229
200.516
196.95
193.527
190.247
187.106
184.102
181.232
178.494
175.883
173.396
171.031
168.784
166.651
164.63
162.715
160.904
159.193
157.579
156.057
154.624
153.276
152.01
150.822
149.71
148.668
147.694
146.785
145.937
145.148
144.414
143.732
143.1
142.515
141.973
141.473
141.013
140.589
140.199
139.842
139.515
139.217
138.945
138.698
138.475
138.273
138.091
137.928
137.783
137.655
137.541
137.442
137.356
137.283
137.221
137.17
137.129
137.098
137.076
137.063
137.057
137.059
137.069
137.086
137.109
137.139
137.176
137.218
396.196
388.574
380.975
373.405
365.872
358.388
350.962
343.604
336.324
329.13
322.03
315.032
308.143
301.369
294.717
288.193
281.8
275.544
269.429
263.458
257.634
251.96
246.437
241.069
235.856
230.798
225.897
221.154
216.567
212.136
207.861
203.741
199.774
195.958
192.293
188.775
185.403
182.174
179.086
176.135
173.318
170.633
168.075
165.643
163.331
161.137
159.057
157.087
155.224
153.464
151.802
150.236
148.761
147.374
146.071
144.849
143.703
142.631
141.629
140.693
139.82
139.007
138.252
137.55
136.899
136.296
135.738
135.223
134.749
134.312
133.91
133.542
133.206
132.898
132.618
132.363
132.133
131.925
131.737
131.569
131.419
131.286
131.169
131.066
130.977
130.901
130.837
130.783
130.741
130.708
130.685
130.67
130.663
130.665
130.674
130.69
130.713
130.744
130.78
130.823
396.127
388.365
380.626
372.916
365.243
357.618
350.05
342.551
335.128
327.79
320.547
313.405
306.372
299.455
292.66
285.993
279.459
273.062
266.807
260.698
254.738
248.93
243.276
237.777
232.437
227.255
222.233
217.37
212.668
208.125
203.741
199.515
195.446
191.531
187.77
184.161
180.7
177.386
174.216
171.186
168.294
165.537
162.911
160.413
158.039
155.786
153.65
151.627
149.713
147.904
146.197
144.588
143.073
141.648
140.309
139.053
137.876
136.774
135.744
134.782
133.885
133.05
132.273
131.552
130.882
130.262
129.689
129.16
128.672
128.222
127.809
127.431
127.084
126.768
126.48
126.218
125.98
125.766
125.572
125.399
125.244
125.107
124.986
124.88
124.788
124.709
124.642
124.587
124.542
124.508
124.483
124.467
124.459
124.46
124.469
124.484
124.507
124.537
124.574
124.617
396.058
388.159
380.284
372.436
364.625
356.862
349.156
341.517
333.955
326.478
319.095
311.814
304.642
297.586
290.652
283.847
277.175
270.643
264.253
258.011
251.92
245.982
240.2
234.577
229.114
223.812
218.673
213.696
208.883
204.231
199.742
195.414
191.246
187.236
183.383
179.685
176.139
172.743
169.493
166.388
163.424
160.597
157.905
155.344
152.91
150.6
148.409
146.334
144.371
142.516
140.766
139.115
137.561
136.099
134.726
133.437
132.229
131.099
130.042
129.055
128.135
127.277
126.48
125.739
125.052
124.416
123.828
123.284
122.783
122.321
121.898
121.509
121.153
120.828
120.531
120.262
120.018
119.797
119.598
119.42
119.261
119.119
118.994
118.885
118.789
118.708
118.639
118.581
118.535
118.499
118.472
118.455
118.446
118.446
118.454
118.469
118.492
118.522
118.558
118.601
395.991
387.957
379.948
371.965
364.02
356.121
348.28
340.506
332.809
325.196
317.678
310.261
302.953
295.762
288.695
281.756
274.952
268.288
261.769
255.398
249.18
243.118
237.213
231.47
225.889
220.472
215.219
210.133
205.211
200.456
195.866
191.439
187.176
183.075
179.133
175.349
171.72
168.245
164.919
161.741
158.707
155.814
153.058
150.436
147.944
145.578
143.335
141.21
139.2
137.3
135.507
133.817
132.225
130.728
129.321
128.001
126.763
125.605
124.522
123.511
122.568
121.69
120.873
120.114
119.409
118.757
118.154
117.597
117.083
116.61
116.175
115.776
115.411
115.078
114.774
114.497
114.246
114.02
113.816
113.632
113.468
113.323
113.194
113.081
112.983
112.898
112.827
112.767
112.719
112.681
112.653
112.635
112.625
112.624
112.631
112.646
112.668
112.697
112.734
112.776
395.925
387.761
379.619
371.506
363.428
355.399
347.426
339.52
331.69
323.946
316.296
308.748
301.309
293.988
286.79
279.722
272.791
266
259.356
252.861
246.521
240.338
234.316
228.457
222.762
217.234
211.873
206.68
201.656
196.8
192.112
187.591
183.237
179.047
175.019
171.153
167.445
163.893
160.495
157.246
154.145
151.187
148.37
145.689
143.141
140.722
138.428
136.255
134.2
132.257
130.423
128.694
127.066
125.534
124.095
122.745
121.479
120.294
119.186
118.151
117.186
116.287
115.451
114.674
113.954
113.286
112.669
112.098
111.572
111.088
110.643
110.234
109.86
109.518
109.207
108.923
108.666
108.434
108.224
108.036
107.868
107.718
107.586
107.47
107.369
107.281
107.207
107.145
107.095
107.056
107.026
107.006
106.996
106.993
107
107.014
107.035
107.064
107.101
107.143
395.861
387.568
379.299
371.057
362.852
354.694
346.593
338.559
330.601
322.729
314.951
307.276
299.711
292.263
284.94
277.748
270.693
263.78
257.015
250.402
243.944
237.645
231.51
225.539
219.735
214.099
208.634
203.339
198.216
193.264
188.482
183.87
179.428
175.153
171.043
167.098
163.314
159.688
156.219
152.903
149.737
146.717
143.841
141.103
138.502
136.031
133.689
131.47
129.37
127.386
125.513
123.747
122.083
120.518
119.048
117.669
116.375
115.164
114.032
112.975
111.989
111.07
110.216
109.422
108.685
108.003
107.372
106.788
106.25
105.755
105.3
104.882
104.499
104.15
103.831
103.541
103.277
103.039
102.825
102.632
102.459
102.306
102.17
102.05
101.946
101.856
101.78
101.716
101.663
101.622
101.591
101.57
101.558
101.555
101.56
101.573
101.594
101.623
101.659
101.701
395.799
387.381
378.988
370.621
362.291
354.009
345.783
337.625
329.543
321.547
313.646
305.847
298.16
290.59
283.146
275.834
268.66
261.63
254.748
248.02
241.449
235.04
228.794
222.716
216.807
211.069
205.504
200.111
194.892
189.847
184.976
180.277
175.75
171.393
167.204
163.183
159.325
155.629
152.092
148.711
145.483
142.404
139.47
136.679
134.025
131.506
129.116
126.853
124.711
122.687
120.776
118.974
117.277
115.68
114.18
112.772
111.452
110.217
109.061
107.982
106.976
106.038
105.166
104.355
103.603
102.907
102.262
101.666
101.117
100.611
100.146
99.7191
99.3281
98.9708
98.6448
98.3482
98.079
97.8353
97.6156
97.4181
97.2413
97.0839
96.9444
96.8217
96.7146
96.6222
96.5433
96.4771
96.4229
96.3798
96.3473
96.3246
96.3114
96.3071
96.3113
96.3238
96.3441
96.3721
96.4076
96.4495
395.738
387.2
378.685
370.198
361.747
353.343
344.997
336.719
328.517
320.401
312.38
304.463
296.657
288.97
281.409
273.982
266.693
259.549
252.556
245.717
239.038
232.522
226.171
219.99
213.98
208.144
202.482
196.995
191.685
186.551
181.593
176.81
172.202
167.767
163.502
159.408
155.48
151.716
148.114
144.671
141.383
138.246
135.258
132.414
129.711
127.144
124.71
122.403
120.221
118.158
116.211
114.375
112.645
111.018
109.489
108.054
106.709
105.449
104.271
103.171
102.145
101.189
100.3
99.4736
98.7067
97.9962
97.3387
96.7312
96.1709
95.6547
95.1802
94.7446
94.3456
93.9808
93.6479
93.345
93.07
92.821
92.5964
92.3944
92.2135
92.0523
91.9094
91.7835
91.6736
91.5785
91.4972
91.4289
91.3727
91.3279
91.2937
91.2696
91.2551
91.2497
91.2529
91.2644
91.284
91.3114
91.3463
91.3878
395.68
387.024
378.392
369.787
361.219
352.699
344.236
335.841
327.523
319.291
311.155
303.123
295.203
287.403
279.73
272.191
264.792
257.54
250.439
243.494
236.71
230.091
223.64
217.36
211.254
205.322
199.568
193.991
188.593
183.374
178.333
173.47
168.784
164.273
159.937
155.772
151.776
147.948
144.283
140.78
137.435
134.243
131.203
128.309
125.558
122.946
120.468
118.121
115.899
113.8
111.817
109.948
108.187
106.531
104.974
103.513
102.143
100.861
99.6617
98.5415
97.4966
96.523
95.6172
94.7754
93.9943
93.2705
92.6006
91.9817
91.4107
90.8847
90.4011
89.9571
89.5502
89.1782
88.8388
88.5297
88.2491
87.995
87.7656
87.5592
87.3743
87.2094
87.0631
86.9342
86.8214
86.7237
86.6401
86.5696
86.5115
86.4648
86.4291
86.4035
86.3877
86.381
86.3832
86.3938
86.4125
86.4392
86.4734
86.5144
395.623
386.854
378.108
369.39
360.709
352.075
343.5
334.992
326.562
318.219
309.971
301.829
293.799
285.89
278.109
270.463
262.958
255.601
248.397
241.351
234.467
227.749
221.201
214.827
208.627
202.605
196.762
191.099
185.617
180.316
175.196
170.256
165.495
160.912
156.506
152.274
148.214
144.323
140.599
137.038
133.638
130.394
127.303
124.361
121.565
118.909
116.39
114.003
111.744
109.609
107.594
105.693
103.902
102.217
100.634
99.148
97.7549
96.4504
95.2304
94.0908
93.0278
92.0373
91.1156
90.2591
89.4643
88.7277
88.046
87.416
86.8348
86.2993
85.8068
85.3547
84.9404
84.5614
84.2155
83.9006
83.6145
83.3553
83.1213
82.9107
82.7219
82.5534
82.4038
82.2719
82.1563
82.0561
81.9701
81.8975
81.8374
81.789
81.7515
81.7245
81.7073
81.6994
81.7005
81.71
81.7279
81.7538
81.7874
81.8278
395.568
386.689
377.834
369.006
360.216
351.473
342.789
334.173
325.634
317.184
308.829
300.58
292.445
284.431
276.546
268.797
261.191
253.734
246.43
239.287
232.307
225.495
218.854
212.389
206.1
199.992
194.064
188.318
182.756
177.376
172.18
167.166
162.334
157.683
153.21
148.913
144.791
140.841
137.06
133.444
129.991
126.697
123.558
120.57
117.729
115.032
112.473
110.049
107.754
105.585
103.537
101.606
99.7868
98.0751
96.4665
94.9565
93.5408
92.2152
90.9754
89.8173
88.7368
87.7301
86.7932
85.9226
85.1146
84.3657
83.6726
83.032
82.4409
81.8963
81.3954
80.9354
80.5138
80.1282
79.7761
79.4554
79.1641
78.9001
78.6616
78.4468
78.2542
78.0822
77.9294
77.7945
77.6762
77.5735
77.4852
77.4104
77.3484
77.2981
77.2591
77.2305
77.2119
77.2028
77.2027
77.2112
77.2281
77.2531
77.2859
77.3257
395.515
386.53
377.57
368.636
359.741
350.893
342.104
333.383
324.741
316.187
307.729
299.378
291.141
283.027
275.042
267.195
259.491
251.937
244.539
237.302
230.23
223.327