/*--------------------------------*- C++ -*----------------------------------*\
  =========                 |
  \\      /  F ield         | OpenFOAM: The Open Source CFD Toolbox
   \\    /   O peration     | Website:  https://openfoam.org
    \\  /    A nd           | Version:  10
     \\/     M anipulation  |
\*---------------------------------------------------------------------------*/
FoamFile
{
    format      ascii;
    class       volScalarField;
    location    "7.5";
    object      T_0;
}
// * * * * * * * * * * * * * * * * * * * * * * * * * * * * * * * * * * * * * //

dimensions      [0 0 0 1 0 0 0];

internalField   nonuniform List<scalar> 
10000
(
374.921
361.126
356.341
354.186
352.97
352.165
351.574
351.108
350.723
350.393
350.103
349.843
349.606
349.387
349.183
348.992
348.812
348.641
348.479
348.324
348.176
348.034
347.899
347.768
347.643
347.524
347.408
347.298
347.192
347.09
346.992
346.898
346.808
346.722
346.64
346.561
346.486
346.414
346.346
346.28
346.218
346.159
346.103
346.049
345.999
345.95
345.905
345.862
345.821
345.783
345.747
345.713
345.681
345.651
345.622
345.596
345.571
345.548
345.526
345.506
345.487
345.47
345.454
345.438
345.424
345.412
345.4
345.389
345.378
345.369
345.361
345.353
345.346
345.339
345.333
345.328
345.323
345.319
345.315
345.312
345.308
345.306
345.303
345.301
345.3
345.298
345.297
345.296
345.296
345.295
345.295
345.295
345.295
345.295
345.296
345.296
345.297
345.298
345.299
345.299
388.449
374.384
366.415
361.64
358.519
356.303
354.618
353.266
352.137
351.164
350.304
349.53
348.823
348.17
347.562
346.991
346.452
345.941
345.455
344.991
344.548
344.124
343.717
343.327
342.953
342.593
342.248
341.917
341.598
341.293
341
340.719
340.45
340.192
339.945
339.709
339.483
339.268
339.062
338.866
338.68
338.502
338.334
338.173
338.021
337.877
337.741
337.612
337.49
337.375
337.266
337.164
337.068
336.978
336.893
336.814
336.74
336.67
336.605
336.545
336.488
336.436
336.387
336.342
336.3
336.261
336.225
336.192
336.162
336.134
336.108
336.085
336.063
336.044
336.026
336.01
335.996
335.983
335.971
335.961
335.952
335.944
335.937
335.931
335.925
335.921
335.918
335.915
335.913
335.911
335.911
335.91
335.911
335.912
335.913
335.915
335.917
335.92
335.923
335.927
392.96
381.532
373.291
367.435
363.16
359.908
357.328
355.203
353.397
351.822
350.421
349.153
347.99
346.914
345.909
344.964
344.071
343.224
342.417
341.647
340.911
340.206
339.53
338.881
338.259
337.661
337.086
336.535
336.005
335.497
335.01
334.542
334.094
333.665
333.254
332.861
332.485
332.126
331.784
331.458
331.147
330.852
330.571
330.304
330.051
329.811
329.584
329.369
329.166
328.974
328.794
328.624
328.464
328.313
328.172
328.04
327.916
327.801
327.693
327.592
327.498
327.41
327.329
327.254
327.184
327.119
327.06
327.005
326.954
326.908
326.865
326.826
326.79
326.758
326.729
326.702
326.678
326.656
326.637
326.62
326.604
326.591
326.579
326.569
326.561
326.554
326.548
326.543
326.54
326.537
326.536
326.536
326.536
326.538
326.54
326.543
326.547
326.552
326.557
326.563
394.842
385.489
377.783
371.656
366.786
362.849
359.592
356.831
354.437
352.321
350.419
348.687
347.09
345.606
344.216
342.906
341.667
340.489
339.367
338.295
337.27
336.287
335.344
334.439
333.57
332.735
331.934
331.163
330.424
329.714
329.033
328.379
327.753
327.153
326.579
326.03
325.505
325.004
324.525
324.069
323.635
323.222
322.829
322.456
322.102
321.767
321.449
321.149
320.865
320.597
320.345
320.107
319.883
319.673
319.476
319.291
319.118
318.956
318.805
318.664
318.533
318.41
318.297
318.191
318.094
318.003
317.92
317.843
317.772
317.707
317.648
317.593
317.543
317.498
317.457
317.42
317.386
317.356
317.329
317.304
317.283
317.264
317.248
317.234
317.222
317.212
317.204
317.197
317.192
317.189
317.187
317.187
317.188
317.19
317.193
317.197
317.203
317.209
317.217
317.225
395.787
387.795
380.7
374.627
369.488
365.123
361.375
358.108
355.219
352.626
350.271
348.108
346.104
344.232
342.472
340.81
339.234
337.734
336.303
334.935
333.624
332.367
331.161
330.003
328.89
327.821
326.794
325.807
324.859
323.949
323.075
322.238
321.435
320.665
319.929
319.224
318.551
317.908
317.294
316.709
316.152
315.622
315.118
314.639
314.185
313.754
313.347
312.961
312.597
312.253
311.929
311.624
311.337
311.067
310.814
310.577
310.355
310.147
309.953
309.772
309.603
309.446
309.301
309.165
309.04
308.924
308.817
308.718
308.628
308.544
308.468
308.398
308.334
308.275
308.222
308.175
308.131
308.093
308.058
308.027
307.999
307.975
307.954
307.936
307.921
307.908
307.897
307.889
307.883
307.878
307.876
307.875
307.876
307.879
307.883
307.889
307.895
307.904
307.913
307.924
396.321
389.2
382.602
376.675
371.428
366.797
362.693
359.029
355.726
352.72
349.959
347.403
345.018
342.78
340.669
338.669
336.767
334.954
333.222
331.563
329.974
328.448
326.983
325.575
324.222
322.921
321.671
320.47
319.316
318.207
317.144
316.123
315.144
314.207
313.309
312.451
311.63
310.846
310.098
309.385
308.706
308.059
307.445
306.861
306.307
305.782
305.285
304.815
304.371
303.952
303.557
303.185
302.835
302.506
302.197
301.908
301.637
301.383
301.147
300.926
300.72
300.529
300.351
300.186
300.033
299.892
299.761
299.641
299.53
299.428
299.335
299.249
299.171
299.1
299.036
298.977
298.924
298.877
298.835
298.797
298.763
298.734
298.708
298.686
298.667
298.652
298.639
298.628
298.621
298.616
298.613
298.612
298.613
298.616
298.621
298.628
298.636
298.646
298.658
298.671
396.643
390.079
383.84
378.055
372.767
367.961
363.595
359.614
355.966
352.601
349.478
346.563
343.826
341.245
338.8
336.477
334.263
332.147
330.122
328.182
326.319
324.53
322.811
321.158
319.568
318.039
316.57
315.157
313.799
312.495
311.242
310.041
308.889
307.785
306.728
305.717
304.75
303.826
302.945
302.105
301.305
300.543
299.819
299.131
298.478
297.86
297.274
296.72
296.197
295.703
295.237
294.798
294.385
293.998
293.634
293.293
292.973
292.675
292.396
292.135
291.893
291.667
291.458
291.263
291.083
290.916
290.762
290.62
290.49
290.369
290.259
290.159
290.067
289.983
289.907
289.838
289.775
289.72
289.669
289.625
289.585
289.551
289.52
289.494
289.472
289.453
289.438
289.426
289.417
289.411
289.407
289.406
289.407
289.411
289.417
289.425
289.434
289.446
289.46
289.476
396.842
390.63
384.633
378.954
373.643
368.709
364.136
359.896
355.954
352.276
348.83
345.588
342.526
339.623
336.864
334.233
331.719
329.312
327.005
324.79
322.661
320.615
318.647
316.754
314.932
313.179
311.493
309.872
308.313
306.816
305.378
303.998
302.674
301.406
300.191
299.029
297.917
296.856
295.843
294.877
293.956
293.081
292.248
291.457
290.706
289.995
289.321
288.684
288.082
287.514
286.978
286.473
285.999
285.553
285.134
284.741
284.374
284.03
283.709
283.41
283.131
282.871
282.63
282.406
282.199
282.007
281.83
281.667
281.516
281.378
281.251
281.135
281.029
280.933
280.845
280.766
280.694
280.63
280.572
280.521
280.475
280.435
280.4
280.37
280.345
280.323
280.305
280.291
280.281
280.274
280.27
280.268
280.27
280.274
280.28
280.289
280.301
280.314
280.33
280.348
396.963
390.967
385.118
379.501
374.162
369.12
364.375
359.915
355.718
351.762
348.025
344.484
341.121
337.918
334.861
331.937
329.137
326.45
323.869
321.389
319.002
316.706
314.495
312.366
310.317
308.344
306.446
304.62
302.864
301.176
299.555
297.999
296.506
295.075
293.705
292.394
291.14
289.942
288.798
287.708
286.669
285.68
284.74
283.847
283
282.196
281.436
280.716
280.036
279.394
278.789
278.219
277.683
277.179
276.706
276.263
275.848
275.46
275.097
274.759
274.444
274.151
273.878
273.625
273.391
273.174
272.974
272.79
272.62
272.463
272.32
272.189
272.069
271.96
271.861
271.772
271.691
271.618
271.553
271.495
271.443
271.398
271.358
271.324
271.295
271.271
271.251
271.235
271.223
271.215
271.21
271.208
271.21
271.214
271.221
271.232
271.244
271.259
271.277
271.297
397.031
391.155
385.385
379.788
374.407
369.262
364.363
359.707
355.283
351.078
347.075
343.259
339.616
336.132
332.794
329.593
326.518
323.563
320.719
317.981
315.344
312.804
310.357
307.999
305.727
303.539
301.433
299.405
297.455
295.581
293.779
292.05
290.391
288.8
287.276
285.818
284.423
283.091
281.818
280.605
279.449
278.349
277.303
276.309
275.366
274.472
273.625
272.824
272.067
271.353
270.679
270.045
269.448
268.887
268.36
267.867
267.405
266.972
266.569
266.192
265.841
265.514
265.211
264.929
264.669
264.427
264.204
263.999
263.809
263.635
263.476
263.33
263.196
263.075
262.965
262.865
262.774
262.693
262.62
262.556
262.498
262.448
262.404
262.366
262.333
262.306
262.283
262.266
262.252
262.243
262.237
262.236
262.237
262.242
262.25
262.261
262.275
262.292
262.311
262.333
397.062
391.238
385.493
379.882
374.44
369.191
364.146
359.31
354.678
350.243
345.996
341.926
338.021
334.272
330.669
327.203
323.867
320.653
317.556
314.57
311.691
308.914
306.237
303.655
301.166
298.768
296.458
294.233
292.093
290.035
288.057
286.157
284.334
282.586
280.912
279.308
277.775
276.31
274.911
273.577
272.305
271.095
269.944
268.851
267.813
266.83
265.898
265.017
264.184
263.398
262.656
261.958
261.301
260.684
260.104
259.561
259.052
258.577
258.132
257.717
257.331
256.972
256.638
256.328
256.04
255.775
255.529
255.303
255.094
254.903
254.727
254.566
254.419
254.286
254.164
254.054
253.954
253.865
253.785
253.713
253.65
253.594
253.546
253.504
253.468
253.438
253.413
253.393
253.378
253.368
253.362
253.359
253.361
253.366
253.375
253.387
253.402
253.42
253.442
253.466
397.066
391.245
385.483
379.827
374.309
368.949
363.762
358.755
353.928
349.28
344.805
340.496
336.345
332.346
328.492
324.774
321.187
317.726
314.385
311.16
308.046
305.04
302.138
299.339
296.639
294.035
291.526
289.109
286.782
284.544
282.393
280.326
278.342
276.44
274.617
272.871
271.202
269.606
268.082
266.629
265.244
263.925
262.671
261.48
260.349
259.277
258.262
257.301
256.394
255.537
254.729
253.967
253.251
252.578
251.947
251.354
250.8
250.281
249.796
249.344
248.923
248.531
248.167
247.829
247.515
247.226
246.958
246.711
246.484
246.275
246.083
245.908
245.747
245.601
245.469
245.348
245.24
245.142
245.055
244.977
244.908
244.847
244.793
244.747
244.708
244.675
244.648
244.626
244.61
244.598
244.592
244.589
244.59
244.596
244.605
244.618
244.634
244.654
244.677
244.703
397.051
391.194
385.385
379.66
374.049
368.572
363.243
358.07
353.058
348.207
343.516
338.982
334.599
330.363
326.269
322.311
318.485
314.786
311.21
307.754
304.413
301.185
298.066
295.055
292.149
289.345
286.642
284.036
281.528
279.114
276.793
274.562
272.421
270.367
268.398
266.513
264.709
262.985
261.339
259.769
258.272
256.847
255.491
254.204
252.981
251.822
250.725
249.686
248.704
247.778
246.904
246.081
245.306
244.579
243.895
243.255
242.655
242.094
241.57
241.08
240.625
240.201
239.807
239.441
239.102
238.789
238.499
238.232
237.986
237.76
237.552
237.362
237.189
237.031
236.887
236.757
236.639
236.534
236.439
236.354
236.279
236.213
236.156
236.106
236.063
236.027
235.998
235.974
235.956
235.943
235.936
235.933
235.934
235.94
235.949
235.963
235.981
236.002
236.026
236.054
397.021
391.101
385.218
379.406
373.69
368.088
362.614
357.278
352.087
347.043
342.147
337.398
332.794
328.332
324.009
319.822
315.766
311.839
308.037
304.357
300.797
297.354
294.025
290.808
287.701
284.702
281.81
279.021
276.335
273.749
271.261
268.871
266.575
264.373
262.261
260.239
258.304
256.454
254.688
253.002
251.396
249.866
248.411
247.028
245.716
244.472
243.293
242.178
241.124
240.128
239.19
238.306
237.474
236.692
235.958
235.27
234.626
234.023
233.46
232.934
232.445
231.989
231.565
231.173
230.808
230.471
230.16
229.873
229.608
229.365
229.142
228.938
228.752
228.582
228.427
228.287
228.161
228.047
227.945
227.854
227.773
227.702
227.64
227.586
227.54
227.501
227.47
227.444
227.424
227.411
227.402
227.399
227.4
227.406
227.416
227.43
227.449
227.471
227.497
227.527
396.979
390.974
384.999
379.085
373.252
367.519
361.898
356.401
351.034
345.803
340.71
335.756
330.94
326.263
321.721
317.313
313.036
308.89
304.87
300.975
297.203
293.551
290.018
286.602
283.3
280.112
277.035
274.067
271.208
268.454
265.804
263.257
260.811
258.463
256.212
254.055
251.992
250.019
248.134
246.336
244.622
242.99
241.437
239.961
238.56
237.232
235.974
234.783
233.658
232.595
231.593
230.649
229.761
228.926
228.142
227.407
226.719
226.075
225.474
224.913
224.39
223.903
223.451
223.031
222.642
222.282
221.949
221.642
221.36
221.1
220.862
220.644
220.444
220.263
220.098
219.948
219.813
219.691
219.582
219.484
219.398
219.322
219.255
219.197
219.148
219.106
219.072
219.044
219.023
219.008
218.999
218.995
218.996
219.002
219.012
219.028
219.047
219.071
219.098
219.13
396.929
390.822
384.74
378.711
372.753
366.883
361.114
355.455
349.917
344.503
339.22
334.067
329.049
324.163
319.411
314.791
310.303
305.945
301.715
297.612
293.635
289.782
286.051
282.441
278.951
275.578
272.322
269.18
266.151
263.234
260.426
257.726
255.132
252.643
250.255
247.968
245.778
243.684
241.684
239.776
237.956
236.224
234.575
233.008
231.521
230.11
228.774
227.509
226.314
225.185
224.121
223.118
222.175
221.288
220.455
219.674
218.943
218.259
217.62
217.023
216.468
215.95
215.47
215.023
214.61
214.227
213.874
213.548
213.247
212.971
212.718
212.486
212.274
212.081
211.905
211.746
211.602
211.472
211.356
211.252
211.16
211.079
211.008
210.946
210.894
210.849
210.812
210.783
210.76
210.744
210.733
210.729
210.73
210.736
210.746
210.762
210.782
210.807
210.836
210.869
396.873
390.651
384.451
378.297
372.207
366.195
360.275
354.456
348.748
343.156
337.687
332.344
327.129
322.043
317.089
312.265
307.572
303.01
298.578
294.274
290.099
286.051
282.129
278.331
274.657
271.106
267.675
264.364
261.171
258.094
255.132
252.283
249.546
246.917
244.396
241.981
239.668
237.457
235.344
233.327
231.405
229.574
227.831
226.175
224.603
223.112
221.699
220.362
219.098
217.905
216.779
215.719
214.721
213.783
212.902
212.077
211.303
210.58
209.903
209.273
208.685
208.138
207.629
207.157
206.719
206.315
205.94
205.595
205.277
204.985
204.717
204.471
204.247
204.042
203.856
203.688
203.535
203.398
203.275
203.165
203.067
202.981
202.906
202.84
202.784
202.737
202.697
202.666
202.642
202.624
202.613
202.607
202.608
202.614
202.625
202.641
202.662
202.688
202.718
202.753
396.811
390.465
384.138
377.852
371.624
365.467
359.394
353.415
347.539
341.774
336.124
330.594
325.189
319.911
314.761
309.741
304.851
300.092
295.464
290.967
286.6
282.363
278.255
274.276
270.424
266.699
263.099
259.624
256.271
253.039
249.927
246.933
244.055
241.292
238.641
236.1
233.668
231.341
229.118
226.996
224.973
223.045
221.211
219.468
217.813
216.243
214.755
213.347
212.017
210.76
209.574
208.458
207.407
206.419
205.491
204.621
203.806
203.044
202.332
201.667
201.048
200.471
199.935
199.438
198.977
198.55
198.156
197.792
197.457
197.149
196.866
196.607
196.37
196.155
195.958
195.78
195.62
195.475
195.345
195.229
195.125
195.034
194.955
194.885
194.826
194.776
194.734
194.7
194.674
194.655
194.643
194.637
194.637
194.643
194.655
194.671
194.693
194.72
194.751
194.787
396.746
390.269
383.808
377.384
371.014
364.71
358.483
352.344
346.303
340.365
334.539
328.829
323.24
317.774
312.435
307.225
302.144
297.196
292.379
287.694
283.142
278.723
274.436
270.28
266.256
262.363
258.599
254.963
251.455
248.072
244.814
241.679
238.665
235.77
232.993
230.33
227.781
225.342
223.011
220.786
218.665
216.643
214.72
212.891
211.155
209.508
207.948
206.471
205.074
203.756
202.512
201.34
200.237
199.2
198.226
197.313
196.458
195.658
194.91
194.212
193.562
192.957
192.394
191.872
191.388
190.94
190.525
190.143
189.791
189.468
189.171
188.899
188.65
188.423
188.217
188.03
187.861
187.709
187.572
187.45
187.341
187.245
187.161
187.088
187.025
186.972
186.928
186.892
186.865
186.844
186.831
186.824
186.824
186.83
186.841
186.858
186.88
186.908
186.94
186.977
396.678
390.064
383.464
376.9
370.384
363.931
357.55
351.252
345.046
338.941
332.942
327.055
321.287
315.64
310.118
304.724
299.46
294.327
289.328
284.462
279.731
275.135
270.674
266.348
262.157
258.101
254.177
250.387
246.727
243.199
239.799
236.526
233.38
230.357
227.456
224.675
222.012
219.464
217.028
214.703
212.486
210.373
208.362
206.45
204.635
202.913
201.281
199.737
198.276
196.897
195.596
194.37
193.216
192.132
191.113
190.158
189.263
188.426
187.644
186.914
186.233
185.6
185.011
184.464
183.958
183.489
183.055
182.655
182.287
181.948
181.637
181.352
181.092
180.854
180.638
180.442
180.265
180.105
179.962
179.834
179.72
179.619
179.53
179.454
179.388
179.332
179.285
179.247
179.218
179.196
179.182
179.174
179.174
179.179
179.19
179.208
179.23
179.259
179.292
179.33
396.608
389.854
383.112
376.404
369.741
363.137
356.602
350.146
343.778
337.507
331.339
325.281
319.338
313.515
307.816
302.244
296.802
291.492
286.316
281.275
276.371
271.604
266.975
262.484
258.132
253.917
249.839
245.898
242.093
238.422
234.884
231.479
228.203
225.056
222.036
219.14
216.365
213.711
211.174
208.751
206.44
204.238
202.142
200.15
198.257
196.462
194.761
193.15
191.627
190.189
188.832
187.554
186.351
185.219
184.157
183.161
182.227
181.354
180.538
179.776
179.066
178.405
177.791
177.221
176.692
176.202
175.75
175.333
174.948
174.594
174.27
173.972
173.7
173.452
173.227
173.022
172.836
172.669
172.52
172.385
172.266
172.161
172.068
171.988
171.918
171.859
171.81
171.771
171.739
171.716
171.701
171.693
171.691
171.696
171.708
171.725
171.748
171.777
171.811
171.85
396.536
389.639
382.754
375.9
369.09
362.335
355.646
349.034
342.506
336.072
329.739
323.513
317.401
311.407
305.535
299.791
294.176
288.694
283.347
278.137
273.066
268.134
263.343
258.692
254.183
249.815
245.588
241.501
237.554
233.746
230.075
226.54
223.139
219.872
216.735
213.727
210.845
208.087
205.45
202.933
200.531
198.243
196.064
193.993
192.025
190.159
188.39
186.715
185.132
183.636
182.225
180.895
179.644
178.467
177.362
176.325
175.354
174.446
173.597
172.804
172.066
171.378
170.739
170.145
169.595
169.085
168.615
168.18
167.78
167.411
167.073
166.764
166.48
166.222
165.987
165.773
165.58
165.406
165.25
165.11
164.985
164.875
164.779
164.694
164.622
164.56
164.509
164.467
164.434
164.409
164.393
164.383
164.381
164.386
164.397
164.415
164.438
164.467
164.502
164.542
396.464
389.423
382.393
375.392
368.434
361.529
354.688
347.92
341.235
334.642
328.146
321.757
315.479
309.319
303.281
297.369
291.587
285.939
280.427
275.054
269.82
264.729
259.78
254.975
250.315
245.799
241.427
237.199
233.115
229.173
225.373
221.713
218.191
214.807
211.557
208.44
205.454
202.595
199.863
197.253
194.763
192.39
190.131
187.983
185.943
184.007
182.172
180.435
178.793
177.241
175.777
174.398
173.099
171.878
170.732
169.656
168.649
167.706
166.824
166.002
165.235
164.521
163.858
163.242
162.67
162.142
161.653
161.201
160.786
160.403
160.052
159.73
159.436
159.167
158.923
158.701
158.501
158.319
158.157
158.011
157.882
157.767
157.666
157.578
157.502
157.438
157.384
157.34
157.305
157.279
157.261
157.251
157.248
157.252
157.263
157.281
157.304
157.334
157.37
157.41
396.392
389.207
382.031
374.884
367.778
360.724
353.732
346.811
339.971
333.221
326.567
320.018
313.58
307.258
301.057
294.984
289.041
283.232
277.56
272.028
266.638
261.392
256.291
251.337
246.53
241.871
237.359
232.995
228.778
224.707
220.782
217.001
213.362
209.864
206.505
203.282
200.195
197.239
194.413
191.714
189.139
186.684
184.347
182.125
180.014
178.011
176.112
174.314
172.614
171.008
169.493
168.065
166.721
165.457
164.27
163.156
162.113
161.137
160.224
159.373
158.579
157.839
157.152
156.514
155.922
155.374
154.868
154.4
153.97
153.573
153.209
152.876
152.571
152.292
152.039
151.809
151.601
151.413
151.244
151.093
150.958
150.839
150.734
150.642
150.563
150.496
150.44
150.393
150.357
150.329
150.31
150.299
150.295
150.299
150.31
150.327
150.351
150.381
150.417
150.458
396.32
388.99
381.67
374.378
367.125
359.923
352.782
345.71
338.718
331.814
325.006
318.301
311.706
305.227
298.87
292.639
286.539
280.575
274.748
269.063
263.522
258.127
252.88
247.781
242.833
238.035
233.389
228.893
224.547
220.352
216.305
212.406
208.654
205.046
201.581
198.257
195.071
192.021
189.105
186.319
183.661
181.127
178.714
176.42
174.24
172.172
170.211
168.355
166.599
164.94
163.375
161.9
160.511
159.206
157.979
156.829
155.751
154.742
153.799
152.919
152.099
151.335
150.624
149.965
149.353
148.787
148.263
147.78
147.335
146.925
146.548
146.203
145.888
145.6
145.338
145.1
144.884
144.689
144.514
144.358
144.218
144.094
143.985
143.89
143.808
143.738
143.679
143.631
143.592
143.563
143.543
143.531
143.526
143.529
143.54
143.557
143.58
143.611
143.647
143.689
396.249
388.776
381.312
373.876
366.478
359.13
351.841
344.622
337.481
330.426
323.467
316.61
309.863
303.231
296.722
290.339
284.087
277.972
271.996
266.163
260.476
254.937
249.548
244.31
239.225
234.294
229.517
224.893
220.424
216.108
211.944
207.932
204.07
200.356
196.788
193.366
190.085
186.944
183.94
181.07
178.332
175.721
173.235
170.871
168.625
166.493
164.472
162.559
160.749
159.039
157.426
155.905
154.473
153.127
151.862
150.676
149.565
148.524
147.552
146.644
145.798
145.01
144.278
143.597
142.966
142.382
141.842
141.343
140.883
140.46
140.072
139.716
139.39
139.093
138.822
138.576
138.353
138.152
137.971
137.809
137.664
137.536
137.423
137.325
137.239
137.166
137.105
137.055
137.014
136.983
136.962
136.948
136.943
136.946
136.955
136.972
136.996
137.026
137.063
137.105
396.178
388.563
380.958
373.379
365.838
358.347
350.914
343.549
336.262
329.06
321.954
314.949
308.054
301.274
294.617
288.086
281.688
275.427
269.307
263.331
257.503
251.825
246.299
240.927
235.71
230.65
225.746
221
216.411
211.978
207.701
203.579
199.611
195.795
192.129
188.611
185.238
182.009
178.92
175.969
173.153
170.468
167.912
165.48
163.169
160.976
158.897
156.928
155.066
153.307
151.647
150.082
148.608
147.223
145.921
144.7
143.556
142.485
141.485
140.55
139.679
138.868
138.113
137.413
136.763
136.161
135.605
135.091
134.618
134.182
133.782
133.415
133.079
132.772
132.493
132.24
132.01
131.802
131.615
131.448
131.299
131.166
131.05
130.947
130.859
130.783
130.719
130.667
130.625
130.592
130.569
130.555
130.548
130.55
130.559
130.576
130.599
130.63
130.666
130.709
396.108
388.354
380.609
372.89
365.209
357.576
350.001
342.494
335.064
327.72
320.469
313.321
306.282
299.359
292.558
285.885
279.345
272.943
266.683
260.569
254.605
248.792
243.134
237.633
232.289
227.104
222.079
217.214
212.509
207.964
203.579
199.351
195.28
191.365
187.603
183.993
180.532
177.218
174.048
171.018
168.127
165.37
162.745
160.248
157.875
155.623
153.487
151.465
149.553
147.745
146.04
144.432
142.918
141.495
140.158
138.903
137.727
136.627
135.598
134.638
133.743
132.909
132.133
131.413
130.745
130.127
129.555
129.026
128.539
128.091
127.68
127.302
126.957
126.641
126.354
126.093
125.856
125.642
125.45
125.277
125.123
124.987
124.866
124.76
124.669
124.59
124.524
124.469
124.425
124.391
124.366
124.351
124.344
124.345
124.353
124.369
124.392
124.423
124.459
124.502
396.04
388.148
380.266
372.409
364.59
356.819
349.106
341.46
333.89
326.406
319.017
311.728
304.55
297.487
290.547
283.736
277.059
270.522
264.127
257.88
251.784
245.842
240.057
234.43
228.964
223.659
218.517
213.537
208.721
204.068
199.577
195.248
191.078
187.068
183.214
179.515
175.969
172.572
169.323
166.218
163.254
160.428
157.737
155.176
152.743
150.434
148.244
146.171
144.209
142.356
140.606
138.957
137.404
135.944
134.572
133.285
132.079
130.95
129.895
128.909
127.99
127.135
126.339
125.6
124.914
124.279
123.692
123.15
122.65
122.19
121.767
121.379
121.024
120.7
120.405
120.136
119.893
119.673
119.475
119.297
119.139
118.998
118.874
118.765
118.67
118.589
118.52
118.463
118.417
118.381
118.355
118.338
118.33
118.33
118.338
118.354
118.376
118.406
118.443
118.486
395.972
387.947
379.929
371.938
363.984
356.078
348.229
340.448
332.743
325.123
317.598
310.174
302.86
295.663
288.588
281.644
274.834
268.165
261.641
255.265
249.043
242.976
237.068
231.32
225.736
220.316
215.061
209.971
205.048
200.291
195.698
191.271
187.006
182.904
178.961
175.177
171.548
168.072
164.747
161.569
158.535
155.643
152.888
150.266
147.775
145.411
143.169
141.045
139.036
137.138
135.347
133.658
132.067
130.571
129.166
127.848
126.612
125.455
124.374
123.364
122.423
121.546
120.73
119.973
119.27
118.619
118.018
117.462
116.949
116.477
116.044
115.646
115.282
114.95
114.646
114.371
114.121
113.895
113.692
113.509
113.346
113.201
113.073
112.961
112.863
112.779
112.708
112.649
112.601
112.564
112.536
112.518
112.508
112.508
112.515
112.53
112.552
112.582
112.618
112.661
395.907
387.75
379.601
371.478
363.392
355.355
347.374
339.461
331.624
323.872
316.215
308.66
301.214
293.886
286.683
279.609
272.672
265.876
259.226
252.727
246.382
240.195
234.169
228.305
222.607
217.076
211.712
206.517
201.49
196.632
191.943
187.421
183.065
178.874
174.846
170.979
167.271
163.719
160.32
157.072
153.971
151.014
148.198
145.518
142.971
140.553
138.26
136.089
134.035
132.093
130.261
128.534
126.907
125.377
123.939
122.591
121.326
120.143
119.037
118.004
117.04
116.143
115.309
114.533
113.814
113.148
112.532
111.963
111.438
110.955
110.511
110.104
109.731
109.39
109.079
108.797
108.541
108.309
108.101
107.913
107.746
107.597
107.465
107.349
107.249
107.162
107.088
107.027
106.977
106.938
106.909
106.889
106.879
106.877
106.883
106.898
106.919
106.949
106.985
107.028
395.843
387.557
379.28
371.029
362.816
354.649
346.541
338.499
330.534
322.654
314.869
307.187
299.615
292.161
284.831
277.633
270.572
263.654
256.884
250.265
243.803
237.5
231.36
225.386
219.578
213.94
208.472
203.174
198.049
193.094
188.311
183.698
179.254
174.978
170.868
166.922
163.138
159.512
156.043
152.728
149.562
146.543
143.667
140.931
138.33
135.861
133.52
131.302
129.204
127.221
125.35
123.585
121.923
120.36
118.892
117.514
116.222
115.013
113.883
112.827
111.843
110.926
110.073
109.28
108.545
107.864
107.234
106.653
106.116
105.622
105.168
104.751
104.37
104.021
103.703
103.414
103.152
102.915
102.701
102.509
102.337
102.184
102.049
101.93
101.826
101.737
101.661
101.597
101.546
101.505
101.474
101.453
101.442
101.439
101.444
101.457
101.479
101.507
101.543
101.586
395.78
387.37
378.969
370.593
362.254
353.964
345.73
337.564
329.475
321.471
313.563
305.757
298.063
290.487
283.036
275.718
268.538
261.502
254.616
247.882
241.307
234.893
228.644
222.562
216.649
210.908
205.34
199.945
194.724
189.677
184.803
180.103
175.575
171.217
167.028
163.006
159.148
155.452
151.915
148.535
145.307
142.228
139.296
136.505
133.853
131.334
128.946
126.684
124.544
122.521
120.612
118.812
117.116
115.521
114.023
112.617
111.299
110.065
108.911
107.834
106.829
105.893
105.022
104.214
103.463
102.768
102.125
101.531
100.983
100.478
100.014
99.5886
99.1988
98.8425
98.5176
98.222
97.9538
97.7111
97.4922
97.2955
97.1195
96.9628
96.824
96.7019
96.5954
96.5035
96.4251
96.3594
96.3056
96.2629
96.2307
96.2084
96.1955
96.1915
96.1959
96.2085
96.2291
96.2572
96.2928
96.3348
395.72
387.188
378.666
370.169
361.71
353.298
344.944
336.657
328.448
320.324
312.296
304.372
296.559
288.865
281.298
273.864
266.57
259.421
252.422
245.579
238.894
232.374
226.019
219.834
213.821
207.981
202.316
196.827
191.515
186.379
181.419
176.635
172.026
167.589
163.325
159.229
155.301
151.538
147.936
144.493
141.205
138.07
135.083
132.24
129.538
126.972
124.539
122.234
120.053
117.992
116.047
114.212
112.484
110.859
109.332
107.898
106.555
105.297
104.121
103.023
101.999
101.045
100.157
99.332
98.5668
97.8578
97.2018
96.5958
96.0369
95.5221
95.0489
94.6145
94.2167
93.853
93.5213
93.2194
92.9454
92.6973
92.4736
92.2724
92.0923
91.9318
91.7896
91.6644
91.555
91.4605
91.3797
91.3119
91.2561
91.2117
91.1779
91.1542
91.1399
91.1347
91.1382
91.1499
91.1697
91.1972
91.2322
91.2738
395.661
387.012
378.372
369.758
361.182
352.653
344.182
335.779
327.453
319.214
311.07
303.031
295.104
287.297
279.618
272.073
264.668
257.41
250.304
243.354
236.566
229.942
223.487
217.203
211.093
205.159
199.402
193.822
188.422
183.201
178.158
173.294
168.607
164.095
159.758
155.593
151.597
147.769
144.105
140.602
137.257
134.066
131.027
128.134
125.384
122.773
120.297
117.951
115.731
113.633
111.653
109.785
108.026
106.372
104.817
103.358
101.99
100.709
99.5119
98.3935
97.3503
96.3785
95.4744
94.6343
93.8548
93.1326
92.4643
91.8469
91.2773
90.7527
90.2704
89.8276
89.422
89.0512
88.7128
88.4049
88.1252
87.8721
87.6435
87.438
87.2539
87.0898
86.9442
86.8159
86.7037
86.6066
86.5235
86.4535
86.3958
86.3496
86.3142
86.289
86.2734
86.267
86.2694
86.2802
86.2991
86.3259
86.3603
86.4014
395.604
386.842
378.088
369.361
360.671
352.029
343.445
334.93
326.492
318.141
309.886
301.736
293.7
285.784
277.996
270.344
262.834
255.471
248.261
241.21
234.321
227.599
221.047
214.669
208.466
202.441
196.595
190.929
185.445
180.142
175.02
170.079
165.317
160.734
156.327
152.094
148.034
144.143
140.42
136.86
133.46
130.217
127.127
124.186
121.391
118.736
116.218
113.833
111.576
109.443
107.429
105.53
103.741
102.058
100.477
98.9929
97.6016
96.299
95.0809
93.9432
92.882
91.8933
90.9734
90.1186
89.3255
88.5905
87.9103
87.2819
86.7021
86.1681
85.677
85.2262
84.8131
84.4353
84.0906
83.7767
83.4916
83.2334
83.0003
82.7906
82.6026
82.4348
82.286
82.1547
82.0397
81.9401
81.8547
81.7825
81.7228
81.6748
81.6378
81.6111
81.5942
81.5866
81.5878
81.5976
81.6157
81.6417
81.6753
81.7158
395.549
386.677
377.814
368.977
360.178
351.427
342.734
334.11
325.564
317.105
308.744
300.487
292.345
284.324
276.433
268.678
261.066
253.603
246.294
239.145
232.16
225.344
218.7
212.23
205.938
199.826
193.896
188.148
182.583
177.202
172.004
166.989
162.156
157.503
153.03
148.733
144.611
140.661
136.88
133.265
129.812
126.519
123.381
120.395
117.555
114.859
112.302
109.879
107.586
105.419
103.373
101.444
99.6264
97.9166
96.3099
94.8019
93.3881
92.0644
90.8266
89.6703
88.5917
87.5868
86.6518
85.7829
84.9766
84.2294
83.5379
82.8989
82.3093
81.7661
81.2666
80.8079
80.3876
80.0032
79.6523
79.3327
79.0424
78.7794
78.5418
78.3279
78.1361
77.9649
77.8128
77.6786
77.5609
77.4588
77.371
77.2968
77.2352
77.1854
77.1467
77.1185
77.1002
77.0913
77.0914
77.1001
77.1172
77.1423
77.1753
77.2151
395.496
386.519
377.55
368.607
359.702
350.846
342.049
333.32
324.67
316.108
307.643
299.285
291.041
282.92
274.928
267.075
259.365
251.806