/*--------------------------------*- C++ -*----------------------------------*\
  =========                 |
  \\      /  F ield         | OpenFOAM: The Open Source CFD Toolbox
   \\    /   O peration     | Website:  https://openfoam.org
    \\  /    A nd           | Version:  10
     \\/     M anipulation  |
\*---------------------------------------------------------------------------*/
FoamFile
{
    format      ascii;
    class       volScalarField;
    location    "31.5";
    object      T;
}
// * * * * * * * * * * * * * * * * * * * * * * * * * * * * * * * * * * * * * //

dimensions      [0 0 -1 0 0 0 0];

internalField   nonuniform List<scalar> 
100
(
0.680255
2.03444
3.37058
4.67679
5.9415
7.15346
8.30194
9.37672
10.3683
11.2678
12.0673
12.7597
13.3389
13.7996
14.1379
14.3507
14.4361
14.3934
14.2229
13.9262
13.5058
12.9656
12.3103
11.5458
10.6787
9.71693
8.66886
7.54385
6.35189
5.10354
3.8099
2.48244
1.13295
-0.226592
-1.58412
-2.92759
-4.24507
-5.52487
-6.75563
-7.92642
-9.02686
-10.0472
-10.9783
-11.812
-12.5408
-13.1583
-13.6591
-14.0386
-14.2934
-14.4214
-14.4214
-14.2934
-14.0386
-13.6591
-13.1583
-12.5408
-11.812
-10.9783
-10.0471
-9.02683
-7.9264
-6.7556
-5.52484
-4.24504
-2.92756
-1.58409
-0.226553
1.13299
2.48248
3.80994
5.10358
6.35193
7.5439
8.66891
9.71697
10.6788
11.5458
12.3104
12.9657
13.5059
13.9262
14.2229
14.3934
14.4361
14.3507
14.1379
13.7997
13.3389
12.7598
12.0674
11.2678
10.3683
9.37674
8.30195
7.15348
5.94151
4.6768
3.37058
2.03445
0.680256
)
;

boundaryField
{
    xmin
    {
        type            fixedValue;
        value           uniform 0;
    }
    xmax
    {
        type            fixedValue;
        value           uniform 0;
    }
    frontAndBack
    {
        type            empty;
    }
}


// ************************************************************************* //
