/*--------------------------------*- C++ -*----------------------------------*\
  =========                 |
  \\      /  F ield         | OpenFOAM: The Open Source CFD Toolbox
   \\    /   O peration     | Website:  https://openfoam.org
    \\  /    A nd           | Version:  10
     \\/     M anipulation  |
\*---------------------------------------------------------------------------*/
FoamFile
{
    format      ascii;
    class       volScalarField;
    location    "31.5";
    object      T_0;
}
// * * * * * * * * * * * * * * * * * * * * * * * * * * * * * * * * * * * * * //

dimensions      [0 0 -1 0 0 0 0];

internalField   nonuniform List<scalar> 
100
(
0.68091
2.0364
3.37382
4.6813
5.94722
7.16036
8.30994
9.38576
10.3783
11.2787
12.079
12.772
13.3517
13.8129
14.1515
14.3645
14.45
14.4072
14.2366
13.9396
13.5189
12.9781
12.3222
11.5569
10.689
9.72629
8.67722
7.55112
6.35801
5.10846
3.81357
2.48483
1.13404
-0.22681
-1.58565
-2.93041
-4.24916
-5.53019
-6.76214
-7.93406
-9.03556
-10.0569
-10.9889
-11.8234
-12.5529
-13.171
-13.6722
-14.0521
-14.3072
-14.4353
-14.4353
-14.3072
-14.0521
-13.6722
-13.171
-12.5529
-11.8233
-10.9889
-10.0568
-9.03553
-7.93403
-6.76211
-5.53016
-4.24913
-2.93038
-1.58561
-0.226772
1.13408
2.48487
3.81361
5.1085
6.35805
7.55117
8.67726
9.72633
10.6891
11.557
12.3222
12.9782
13.5189
13.9396
14.2366
14.4073
14.4501
14.3646
14.1516
13.813
13.3518
12.7721
12.079
11.2787
10.3783
9.38578
8.30995
7.16037
5.94723
4.68131
3.37383
2.03641
0.680911
)
;

boundaryField
{
    xmin
    {
        type            fixedValue;
        value           uniform 0;
    }
    xmax
    {
        type            fixedValue;
        value           uniform 0;
    }
    frontAndBack
    {
        type            empty;
    }
}


// ************************************************************************* //
