/*--------------------------------*- C++ -*----------------------------------*\
| =========                 |                                                 |
| \\      /  F ield         | OpenFOAM: The Open Source CFD Toolbox           |
|  \\    /   O peration     | Version:  2406                                  |
|   \\  /    A nd           | Website:  www.openfoam.com                      |
|    \\/     M anipulation  |                                                 |
\*---------------------------------------------------------------------------*/
FoamFile
{
    version     2.0;
    format      ascii;
    arch        "LSB;label=32;scalar=64";
    class       volScalarField;
    location    "13.75";
    object      p;
}
// * * * * * * * * * * * * * * * * * * * * * * * * * * * * * * * * * * * * * //

dimensions      [0 2 -2 0 0 0 0];

internalField   nonuniform List<scalar> 
34560
(
35.165106
35.160601
35.154855
35.147896
35.139655
35.133014
35.132301
35.140799
35.155644
35.205329
35.199958
35.1924
35.182607
35.171212
35.162323
35.160819
35.169519
35.184751
35.254751
35.24871
35.239667
35.226922
35.211107
35.197731
35.192936
35.199347
35.212626
35.304579
35.297796
35.287255
35.271914
35.252331
35.234366
35.225054
35.226878
35.236356
35.355731
35.348353
35.336278
35.317708
35.293448
35.270134
35.25544
35.252111
35.25718
35.40985
35.401806
35.38818
35.366024
35.335936
35.305744
35.284511
35.275682
35.276054
35.467138
35.458094
35.442524
35.416318
35.379719
35.341506
35.312547
35.297187
35.292607
35.528641
35.518018
35.499618
35.46873
35.424253
35.376539
35.338806
35.316597
35.307453
35.594938
35.581785
35.55962
35.523357
35.469455
35.410772
35.363519
35.334626
35.321773
35.66312
35.646844
35.619929
35.577043
35.513802
35.443639
35.386882
35.352119
35.33613
35.724069
35.705314
35.673562
35.62321
35.552463
35.472091
35.407036
35.367549
35.349167
35.762736
35.741532
35.706512
35.651975
35.576779
35.489732
35.419472
35.377151
35.357782
35.762736
35.741532
35.706513
35.651976
35.57678
35.489732
35.419473
35.377151
35.357783
35.72407
35.705315
35.673563
35.623211
35.552464
35.472093
35.407037
35.36755
35.349168
35.66312
35.646845
35.61993
35.577045
35.513804
35.443642
35.386884
35.35212
35.336132
35.594937
35.581784
35.559622
35.52336
35.469459
35.410775
35.363522
35.334628
35.321775
35.528641
35.518019
35.499621
35.468734
35.424257
35.376544
35.338811
35.3166
35.307456
35.467143
35.458099
35.442528
35.416322
35.379724
35.341511
35.312552
35.297192
35.292612
35.409857
35.401812
35.388186
35.366029
35.335941
35.30575
35.284517
35.275688
35.276061
35.355738
35.34836
35.336285
35.317715
35.293455
35.270142
35.255447
35.252118
35.257188
35.304587
35.297804
35.287263
35.271922
35.252339
35.234374
35.225062
35.226886
35.236366
35.254759
35.248719
35.239676
35.226931
35.211117
35.19774
35.192945
35.199356
35.212636
35.205338
35.199968
35.192411
35.182618
35.171222
35.162333
35.160829
35.169528
35.184765
35.165117
35.160612
35.154866
35.147907
35.139666
35.133026
35.132313
35.140813
35.155662
32.501805
32.50244
32.502898
32.503009
32.502767
32.502703
32.503511
32.505285
32.508241
32.493149
32.494074
32.494853
32.495302
32.49551
32.496305
32.498494
32.501876
32.505752
32.485214
32.486462
32.487474
32.487962
32.488197
32.48938
32.492393
32.496566
32.500482
32.479308
32.480937
32.482205
32.482591
32.482527
32.483631
32.486919
32.491334
32.49508
32.476038
32.478075
32.479545
32.479686
32.479031
32.47966
32.482769
32.48703
32.490489
32.47553
32.478064
32.479701
32.47952
32.477967
32.477712
32.4803
32.484207
32.487343
32.478912
32.481937
32.483658
32.482976
32.480194
32.478661
32.48041
32.483779
32.486599
32.487072
32.490552
32.492315
32.490718
32.486532
32.4835
32.484249
32.487041
32.48956
32.499709
32.503598
32.505309
32.502435
32.497078
32.492781
32.492728
32.495075
32.497278
32.515842
32.520032
32.521665
32.517684
32.510798
32.505784
32.505531
32.507793
32.509738
32.531968
32.536355
32.537979
32.53328
32.52469
32.519774
32.51996
32.522518
32.524324
32.542616
32.547004
32.548539
32.543219
32.533535
32.529293
32.530053
32.532936
32.534703
32.542616
32.547004
32.548539
32.543219
32.533536
32.529293
32.530053
32.532936
32.534704
32.531969
32.536355
32.537979
32.533281
32.524691
32.519775
32.519961
32.522519
32.524325
32.515842
32.520033
32.521666
32.517686
32.5108
32.505786
32.505533
32.507794
32.509739
32.499709
32.503599
32.505311
32.502437
32.497082
32.492785
32.492731
32.495078
32.49728
32.487074
32.490555
32.492319
32.490722
32.486537
32.483505
32.484254
32.487046
32.489563
32.478917
32.481943
32.483664
32.482981
32.480199
32.478667
32.480416
32.483785
32.486604
32.475537
32.478072
32.479709
32.479527
32.477974
32.47772
32.480307
32.484214
32.48735
32.476047
32.478084
32.479554
32.479695
32.47904
32.479668
32.482777
32.487038
32.490497
32.479318
32.480947
32.482215
32.482602
32.482537
32.483641
32.486929
32.491343
32.495088
32.485225
32.486473
32.487486
32.487975
32.488209
32.489392
32.492404
32.496576
32.500491
32.493162
32.494087
32.494866
32.495316
32.495524
32.496318
32.498506
32.501886
32.505761
32.501819
32.502454
32.502912
32.503023
32.502782
32.502718
32.503524
32.505297
32.508252
31.601035
31.601075
31.601079
31.600931
31.600668
31.600464
31.600527
31.601038
31.601786
31.605189
31.605218
31.605168
31.604889
31.604414
31.603931
31.603675
31.603882
31.604463
31.609166
31.60922
31.609178
31.608841
31.60822
31.607483
31.60689
31.60675
31.607134
31.613154
31.613238
31.613212
31.612842
31.612101
31.61112
31.61017
31.609641
31.609748
31.61721
31.61733
31.617328
31.616931
31.616067
31.614823
31.613481
31.612518
31.612279
31.621277
31.621456
31.6215
31.621093
31.620115
31.618584
31.616811
31.615373
31.614747
31.625388
31.625632
31.625727
31.625311
31.624206
31.62237
31.620136
31.618209
31.617179
31.629461
31.62978
31.629931
31.629509
31.628272
31.626123
31.623426
31.621023
31.619601
31.633377
31.633783
31.633992
31.633554
31.632176
31.629728
31.626605
31.623769
31.621984
31.636919
31.637423
31.6377
31.637237
31.6357
31.632963
31.629483
31.62629
31.624205
31.639721
31.640318
31.640684
31.640206
31.63848
31.635495
31.631747
31.628303
31.626008
31.641343
31.641991
31.642411
31.641914
31.64004
31.636896
31.632999
31.629427
31.627028
31.641343
31.641991
31.642411
31.641915
31.64004
31.636897
31.633
31.629428
31.627028
31.639722
31.640319
31.640685
31.640207
31.638482
31.635497
31.631749
31.628305
31.626009
31.63692
31.637425
31.637702
31.637239
31.635703
31.632966
31.629486
31.626292
31.624207
31.63338
31.633786
31.633995
31.633557
31.63218
31.629732
31.626608
31.623772
31.621987
31.629465
31.629784
31.629935
31.629514
31.628277
31.626128
31.623431
31.621027
31.619605
31.625393
31.625638
31.625733
31.625317
31.624213
31.622376
31.620142
31.618215
31.617184
31.621285
31.621464
31.621508
31.621101
31.620123
31.618592
31.616818
31.61538
31.614753
31.617219
31.617339
31.617337
31.61694
31.616076
31.614832
31.61349
31.612526
31.612286
31.613165
31.613248
31.613222
31.612853
31.612112
31.61113
31.61018
31.60965
31.609756
31.609178
31.609232
31.609191
31.608853
31.608233
31.607496
31.606901
31.60676
31.607144
31.605203
31.605232
31.605183
31.604904
31.604429
31.603945
31.603689
31.603894
31.604473
31.60105
31.601091
31.601095
31.600947
31.600683
31.60048
31.600542
31.601052
31.601797
29.899176
29.899061
29.898945
29.898887
29.89887
29.898832
29.898705
29.898464
29.898295
29.899548
29.899417
29.899295
29.899249
29.899257
29.89925
29.899155
29.898962
29.898787
29.899968
29.899829
29.899704
29.899674
29.899712
29.899732
29.899645
29.899423
29.899131
29.900524
29.900383
29.900262
29.900245
29.9003
29.900327
29.900222
29.899933
29.899506
29.90117
29.901034
29.900921
29.900921
29.900995
29.901025
29.900887
29.900514
29.89995
29.901844
29.90172
29.901627
29.901656
29.901757
29.901794
29.901617
29.901157
29.900463
29.902573
29.902463
29.902391
29.902448
29.902577
29.902619
29.902404
29.901857
29.901041
29.903319
29.903227
29.903179
29.903265
29.903419
29.903465
29.903215
29.90259
29.901661
29.904042
29.903969
29.903944
29.904057
29.904237
29.904288
29.904009
29.903313
29.902284
29.904678
29.904623
29.904622
29.904763
29.904962
29.90502
29.904721
29.903966
29.902851
29.905156
29.905118
29.905138
29.9053
29.905516
29.905581
29.905267
29.90447
29.903293
29.905431
29.905398
29.905427
29.905598
29.905821
29.905889
29.905567
29.904748
29.903538
29.905431
29.905399
29.905428
29.905598
29.905822
29.90589
29.905568
29.904748
29.903538
29.905157
29.905119
29.905139
29.905301
29.905517
29.905583
29.905269
29.904471
29.903294
29.90468
29.904625
29.904625
29.904766
29.904965
29.905023
29.904723
29.903969
29.902853
29.904045
29.903972
29.903948
29.904061
29.904241
29.904292
29.904012
29.903316
29.902286
29.903323
29.903231
29.903183
29.903269
29.903424
29.90347
29.90322
29.902594
29.901664
29.902578
29.902469
29.902397
29.902454
29.902583
29.902625
29.902409
29.901862
29.901045
29.90185
29.901727
29.901634
29.901663
29.901765
29.901802
29.901624
29.901163
29.900468
29.901178
29.901042
29.900929
29.90093
29.901004
29.901034
29.900896
29.900522
29.899956
29.900534
29.900394
29.900272
29.900255
29.900311
29.900338
29.900232
29.899942
29.899513
29.89998
29.899841
29.899717
29.899687
29.899724
29.899744
29.899657
29.899434
29.89914
29.899562
29.899432
29.899309
29.899264
29.899272
29.899264
29.899169
29.898975
29.898798
29.899192
29.899077
29.898961
29.898904
29.898887
29.898849
29.898721
29.898479
29.898309
28.522239
28.522251
28.522249
28.522206
28.522124
28.522038
28.522
28.522055
28.522197
28.522704
28.522715
28.522706
28.522644
28.522539
28.522434
28.522394
28.522467
28.522625
28.523022
28.523037
28.523029
28.522961
28.522844
28.522725
28.522681
28.522758
28.522915
28.523265
28.523287
28.523282
28.523211
28.523087
28.522962
28.522909
28.522974
28.523132
28.523445
28.523472
28.523471
28.523401
28.523274
28.523144
28.523083
28.523135
28.5233
28.523561
28.523595
28.5236
28.523532
28.523402
28.523266
28.523199
28.523251
28.523419
28.523635
28.523675
28.523686
28.52362
28.523488
28.523346
28.523271
28.523315
28.523478
28.523675
28.523722
28.52374
28.523677
28.523543
28.523392
28.523303
28.523331
28.523482
28.523692
28.523747
28.523772
28.523713
28.523576
28.523411
28.523301
28.523309
28.523446
28.523695
28.523759
28.523791
28.523734
28.523591
28.52341
28.523278
28.523266
28.523388
28.523695
28.523764
28.523802
28.523746
28.523596
28.523401
28.52325
28.523221
28.523331
28.523695
28.523768
28.523809
28.523752
28.523598
28.523394
28.523231
28.523192
28.523296
28.523695
28.523768
28.523809
28.523753
28.523598
28.523394
28.523232
28.523193
28.523296
28.523696
28.523766
28.523804
28.523748
28.523598
28.523402
28.523251
28.523222
28.523332
28.523698
28.523761
28.523794
28.523737
28.523593
28.523413
28.523281
28.523268
28.52339
28.523695
28.52375
28.523776
28.523717
28.523579
28.523415
28.523305
28.523312
28.523448
28.523679
28.523727
28.523745
28.523682
28.523549
28.523397
28.523308
28.523336
28.523485
28.52364
28.523681
28.523693
28.523627
28.523495
28.523353
28.523277
28.523321
28.523482
28.523568
28.523602
28.523608
28.52354
28.52341
28.523274
28.523207
28.523258
28.523425
28.523455
28.523481
28.523481
28.523411
28.523284
28.523154
28.523093
28.523143
28.523308
28.523277
28.523298
28.523293
28.523223
28.523099
28.522974
28.522921
28.522985
28.523141
28.523035
28.523051
28.523042
28.522975
28.522857
28.522739
28.522693
28.52277
28.522926
28.522719
28.52273
28.522721
28.522659
28.522554
28.522449
28.522409
28.522481
28.522638
28.522256
28.522268
28.522266
28.522222
28.522141
28.522054
28.522016
28.522071
28.522212
27.035549
27.035531
27.035514
27.035506
27.035504
27.035496
27.035471
27.035412
27.03534
27.035685
27.035666
27.035649
27.035643
27.035642
27.035633
27.035601
27.035531
27.035439
27.035817
27.035798
27.035782
27.035778
27.03578
27.035768
27.035722
27.035628
27.035516
27.035972
27.035953
27.035939
27.035936
27.035937
27.03592
27.035862
27.035763
27.035647
27.036141
27.036123
27.036111
27.036111
27.036115
27.036098
27.036039
27.035937
27.035805
27.03631
27.036295
27.036286
27.036292
27.036303
27.036292
27.036232
27.036117
27.035966
27.036477
27.036463
27.036458
27.03647
27.036488
27.036482
27.036422
27.036306
27.036151
27.03663
27.036619
27.036618
27.036636
27.036661
27.036662
27.036612
27.036504
27.03635
27.036766
27.036757
27.036759
27.036782
27.036815
27.036828
27.036791
27.036683
27.03652
27.036874
27.036867
27.036872
27.036901
27.036942
27.036966
27.036934
27.036825
27.036655
27.03695
27.036944
27.036952
27.036984
27.037031
27.037061
27.037033
27.036924
27.036748
27.036991
27.036985
27.036994
27.037028
27.037078
27.037111
27.037084
27.036975
27.036796
27.036991
27.036986
27.036994
27.037029
27.037078
27.037111
27.037085
27.036976
27.036796
27.036951
27.036946
27.036953
27.036986
27.037032
27.037063
27.037035
27.036925
27.036749
27.036876
27.036869
27.036875
27.036903
27.036944
27.036969
27.036937
27.036828
27.036656
27.036769
27.03676
27.036763
27.036786
27.036819
27.036833
27.036795
27.036687
27.036523
27.036635
27.036624
27.036623
27.036641
27.036666
27.036668
27.036618
27.036508
27.036353
27.036483
27.03647
27.036465
27.036477
27.036495
27.03649
27.036429
27.036311
27.036155
27.036318
27.036303
27.036295
27.036301
27.036312
27.036301
27.036241
27.036124
27.035972
27.036152
27.036134
27.036121
27.036122
27.036126
27.03611
27.036049
27.035946
27.035813
27.035985
27.035966
27.035952
27.03595
27.035951
27.035933
27.035875
27.035774
27.035656
27.035832
27.035813
27.035798
27.035794
27.035795
27.035784
27.035736
27.035641
27.035527
27.035702
27.035683
27.035667
27.03566
27.035659
27.035651
27.035617
27.035546
27.035453
27.035568
27.03555
27.035533
27.035525
27.035523
27.035515
27.035489
27.03543
27.035356
25.575072
25.575071
25.575067
25.575058
25.575042
25.575021
25.575002
25.574992
25.575006
25.575174
25.575173
25.575168
25.575155
25.575137
25.575116
25.575101
25.575099
25.575117
25.575236
25.575235
25.57523
25.575219
25.575201
25.575183
25.575172
25.575175
25.575194
25.575282
25.575282
25.575278
25.575268
25.575251
25.575236
25.575229
25.575237
25.57526
25.575313
25.575314
25.575312
25.575302
25.575289
25.575276
25.575274
25.575289
25.575316
25.575328
25.575331
25.57533
25.575323
25.575313
25.575304
25.575308
25.575329
25.575359
25.575332
25.575337
25.575338
25.575334
25.575326
25.575321
25.575328
25.575342
25.57536
25.575328
25.575334
25.575337
25.575334
25.575328
25.575325
25.575324
25.575323
25.575326
25.575317
25.575325
25.575329
25.575328
25.575323
25.575316
25.575305
25.575297
25.575295
25.575304
25.575313
25.575319
25.575319
25.575314
25.575302
25.575288
25.575276
25.575271
25.575293
25.575304
25.575311
25.575311
25.575306
25.575292
25.575276
25.575263
25.575256
25.575288
25.575298
25.575306
25.575307
25.575301
25.575287
25.575271
25.575256
25.575248
25.575288
25.575299
25.575307
25.575308
25.575301
25.575288
25.575271
25.575256
25.575248
25.575295
25.575305
25.575312
25.575313
25.575307
25.575294
25.575278
25.575264
25.575257
25.575306
25.575316
25.575322
25.575322
25.575316
25.575305
25.57529
25.575278
25.575273
25.57532
25.575328
25.575333
25.575332
25.575327
25.57532
25.575309
25.5753
25.575296
25.575332
25.575339
25.575342
25.57534
25.575334
25.575331
25.57533
25.575328
25.575329
25.575339
25.575344
25.575345
25.575341
25.575333
25.575329
25.575335
25.575347
25.575364
25.575336
25.57534
25.57534
25.575333
25.575323
25.575314
25.575317
25.575336
25.575364
25.575324
25.575326
25.575324
25.575315
25.575301
25.575288
25.575285
25.575298
25.575323
25.575296
25.575297
25.575293
25.575283
25.575267
25.57525
25.575242
25.575249
25.575268
25.575253
25.575253
25.575248
25.575237
25.575219
25.575201
25.575188
25.575189
25.575205
25.575195
25.575193
25.575188
25.575176
25.575158
25.575137
25.57512
25.575116
25.575131
25.575094
25.575094
25.57509
25.57508
25.575064
25.575044
25.575024
25.575013
25.575024
24.117307
24.117306
24.117305
24.117303
24.1173
24.117297
24.117292
24.117287
24.117283
24.117342
24.11734
24.117339
24.117337
24.117334
24.11733
24.117325
24.117322
24.117322
24.117371
24.117371
24.11737
24.117369
24.117366
24.117361
24.117355
24.11735
24.117347
24.117404
24.117403
24.117403
24.117403
24.1174
24.117395
24.117387
24.11738
24.117376
24.117437
24.117437
24.117437
24.117437
24.117435
24.11743
24.117422
24.117414
24.117408
24.117468
24.117468
24.11747
24.117471
24.11747
24.117465
24.117458
24.117449
24.117441
24.117497
24.117499
24.117501
24.117503
24.117503
24.117499
24.117492
24.117483
24.117475
24.117525
24.117526
24.11753
24.117532
24.117533
24.117531
24.117525
24.117517
24.117507
24.117549
24.117551
24.117554
24.117558
24.11756
24.117559
24.117555
24.117547
24.117538
24.117568
24.11757
24.117574
24.117578
24.117581
24.117582
24.117579
24.117573
24.117565
24.117581
24.117584
24.117588
24.117593
24.117597
24.117599
24.117598
24.117593
24.117587
24.117589
24.117592
24.117596
24.117601
24.117605
24.117608
24.117608
24.117605
24.117598
24.117589
24.117592
24.117597
24.117602
24.117606
24.117608
24.117608
24.117605
24.117598
24.117583
24.117585
24.11759
24.117595
24.117599
24.117601
24.117599
24.117594
24.117587
24.11757
24.117572
24.117577
24.117581
24.117584
24.117585
24.117582
24.117575
24.117566
24.117552
24.117554
24.117558
24.117562
24.117564
24.117563
24.117559
24.11755
24.117539
24.11753
24.117531
24.117535
24.117538
24.117539
24.117537
24.117531
24.117521
24.11751
24.117504
24.117505
24.117508
24.11751
24.117511
24.117507
24.1175
24.117489
24.117479
24.117476
24.117477
24.117479
24.11748
24.11748
24.117475
24.117467
24.117456
24.117447
24.117448
24.117448
24.117449
24.117449
24.117447
24.117442
24.117434
24.117424
24.117415
24.117418
24.117418
24.117418
24.117418
24.117415
24.117409
24.117401
24.117392
24.117385
24.117388
24.117388
24.117388
24.117386
24.117384
24.117378
24.117371
24.117365
24.117359
24.117362
24.117361
24.11736
24.117358
24.117355
24.11735
24.117345
24.11734
24.117337
24.117329
24.117328
24.117327
24.117326
24.117323
24.117319
24.117314
24.117309
24.117302
22.651334
22.651333
22.651331
22.651329
22.651327
22.651324
22.651319
22.651314
22.651313
22.651358
22.651356
22.651354
22.651352
22.65135
22.651348
22.651345
22.651342
22.651342
22.651373
22.651371
22.651369
22.651368
22.651367
22.651366
22.651365
22.651363
22.651363
22.651387
22.651386
22.651384
22.651383
22.651383
22.651383
22.651382
22.651381
22.651381
22.651399
22.651398
22.651397
22.651396
22.651397
22.651398
22.651399
22.651398
22.651397
22.651409
22.651408
22.651407
22.651408
22.651409
22.651411
22.651413
22.651412
22.651411
22.651416
22.651416
22.651416
22.651417
22.65142
22.651423
22.651425
22.651424
22.651422
22.651422
22.651422
22.651423
22.651424
22.651428
22.651432
22.651434
22.651434
22.65143
22.651426
22.651427
22.651427
22.65143
22.651434
22.651439
22.651442
22.65144
22.651434
22.651428
22.651429
22.651431
22.651434
22.651439
22.651444
22.651446
22.651443
22.651433
22.65143
22.651431
22.651433
22.651436
22.651442
22.651447
22.651448
22.651443
22.65143
22.651431
22.651432
22.651434
22.651438
22.651443
22.651449
22.651449
22.651442
22.651428
22.651431
22.651432
22.651434
22.651438
22.651444
22.651449
22.65145
22.651442
22.651428
22.651431
22.651432
22.651434
22.651438
22.651443
22.651449
22.65145
22.651444
22.651431
22.65143
22.651432
22.651433
22.651436
22.651442
22.651447
22.651449
22.651445
22.651434
22.651429
22.65143
22.651431
22.651434
22.651438
22.651443
22.651445
22.651443
22.651436
22.651426
22.651427
22.651428
22.65143
22.651434
22.651438
22.65144
22.651438
22.651432
22.651422
22.651423
22.651423
22.651424
22.651427
22.65143
22.651432
22.65143
22.651425
22.651417
22.651417
22.651416
22.651417
22.651419
22.651421
22.651421
22.651419
22.651415
22.65141
22.651409
22.651408
22.651408
22.651409
22.65141
22.651409
22.651407
22.651403
22.6514
22.651399
22.651398
22.651397
22.651397
22.651397
22.651395
22.651392
22.651389
22.651389
22.651388
22.651386
22.651385
22.651384
22.651382
22.65138
22.651376
22.651374
22.651376
22.651375
22.651373
22.651371
22.651369
22.651366
22.651363
22.651358
22.651357
22.651355
22.651353
22.651351
22.651349
22.651347
22.651344
22.651339
22.651333
22.651331
21.192646
21.192647
21.192647
21.192646
21.192645
21.192644
21.192643
21.192643
21.192644
21.192651
21.192651
21.192651
21.192651
21.192649
21.192648
21.192647
21.192648
21.19265
21.192653
21.192654
21.192654
21.192654
21.192652
21.19265
21.192649
21.19265
21.192652
21.192656
21.192656
21.192657
21.192657
21.192655
21.192653
21.192652
21.192652
21.192655
21.192658
21.192659
21.19266
21.19266
21.192658
21.192656
21.192655
21.192655
21.192658
21.19266
21.192661
21.192662
21.192662
21.192661
21.192659
21.192658
21.192658
21.192661
21.192662
21.192664
21.192665
21.192665
21.192664
21.192662
21.192661
21.192661
21.192664
21.192664
21.192666
21.192667
21.192668
21.192667
21.192665
21.192664
21.192664
21.192666
21.192666
21.192668
21.192669
21.19267
21.192669
21.192668
21.192666
21.192666
21.192669
21.192668
21.192669
21.192671
21.192672
21.192671
21.19267
21.192669
21.192669
21.192671
21.192669
21.19267
21.192672
21.192673
21.192673
21.192671
21.19267
21.19267
21.192673
21.19267
21.192671
21.192673
21.192674
21.192674
21.192673
21.192671
21.192672
21.192674
21.19267
21.192672
21.192673
21.192674
21.192674
21.192673
21.192672
21.192672
21.192674
21.19267
21.192671
21.192673
21.192674
21.192674
21.192673
21.192672
21.192671
21.192673
21.192669
21.192671
21.192673
21.192674
21.192674
21.192672
21.192671
21.19267
21.192672
21.192669
21.192671
21.192672
21.192673
21.192673
21.192671
21.19267
21.192669
21.19267
21.192668
21.19267
21.192672
21.192672
21.192672
21.19267
21.192669
21.192667
21.192668
21.192668
21.192669
21.192671
21.192672
21.192671
21.192669
21.192667
21.192666
21.192667
21.192668
21.192669
21.192671
21.192671
21.19267
21.192668
21.192666
21.192664
21.192665
21.192668
21.192669
21.19267
21.192671
21.192669
21.192667
21.192665
21.192663
21.192664
21.192668
21.192669
21.19267
21.19267
21.192669
21.192667
21.192664
21.192663
21.192663
21.192668
21.192669
21.19267
21.19267
21.192668
21.192666
21.192664
21.192663
21.192663
21.192669
21.192669
21.19267
21.192669
21.192668
21.192666
21.192664
21.192664
21.192663
21.192666
21.192667
21.192667
21.192667
21.192665
21.192664
21.192663
21.192662
21.192661
19.729068
19.729068
19.729067
19.729067
19.729067
19.729067
19.729067
19.729066
19.729066
19.729075
19.729074
19.729073
19.729073
19.729073
19.729073
19.729073
19.729073
19.729074
19.72908
19.729079
19.729079
19.729078
19.729079
19.729079
19.729079
19.729079
19.72908
19.729085
19.729085
19.729084
19.729084
19.729084
19.729085
19.729085
19.729085
19.729085
19.72909
19.72909
19.729089
19.729089
19.72909
19.729091
19.729091
19.729091
19.72909
19.729095
19.729094
19.729094
19.729094
19.729095
19.729097
19.729097
19.729096
19.729095
19.729099
19.729098
19.729098
19.729099
19.7291
19.729102
19.729102
19.729101
19.729099
19.729102
19.729102
19.729101
19.729102
19.729104
19.729106
19.729107
19.729106
19.729103
19.729104
19.729104
19.729104
19.729105
19.729107
19.729109
19.72911
19.729109
19.729106
19.729106
19.729106
19.729106
19.729108
19.72911
19.729112
19.729113
19.729112
19.729108
19.729108
19.729108
19.729108
19.729109
19.729112
19.729114
19.729115
19.729114
19.729109
19.729108
19.729109
19.729109
19.72911
19.729113
19.729115
19.729116
19.729115
19.72911
19.729109
19.729109
19.729109
19.729111
19.729113
19.729116
19.729117
19.729115
19.72911
19.729108
19.729109
19.729109
19.729111
19.729113
19.729116
19.729116
19.729115
19.72911
19.729108
19.729108
19.729108
19.72911
19.729112
19.729115
19.729115
19.729113
19.729109
19.729107
19.729107
19.729107
19.729108
19.729111
19.729113
19.729113
19.729111
19.729107
19.729105
19.729105
19.729105
19.729107
19.729109
19.729111
19.729111
19.729109
19.729105
19.729104
19.729103
19.729103
19.729104
19.729106
19.729108
19.729108
19.729106
19.729102
19.729101
19.729101
19.729101
19.729102
19.729103
19.729104
19.729104
19.729102
19.729098
19.729099
19.729099
19.729099
19.729099
19.7291
19.729101
19.7291
19.729098
19.729095
19.729097
19.729096
19.729096
19.729096
19.729097
19.729097
19.729096
19.729094
19.729092
19.729094
19.729094
19.729093
19.729093
19.729093
19.729094
19.729093
19.729091
19.729089
19.729091
19.729091
19.72909
19.72909
19.72909
19.72909
19.729089
19.729088
19.729086
19.729087
19.729086
19.729086
19.729085
19.729085
19.729086
19.729085
19.729083
19.729081
18.268459
18.268459
18.268459
18.268459
18.268458
18.268458
18.268459
18.26846
18.268461
18.26846
18.26846
18.26846
18.26846
18.268459
18.268459
18.268459
18.268461
18.268462
18.26846
18.26846
18.26846
18.26846
18.26846
18.268459
18.268459
18.26846
18.268462
18.268461
18.268461
18.268461
18.268461
18.26846
18.26846
18.26846
18.26846
18.268462
18.268461
18.268461
18.268462
18.268461
18.268461
18.26846
18.26846
18.268461
18.268463
18.268461
18.268462
18.268462
18.268462
18.268461
18.268461
18.268461
18.268461
18.268463
18.268462
18.268462
18.268463
18.268462
18.268462
18.268461
18.268461
18.268462
18.268464
18.268462
18.268462
18.268463
18.268463
18.268462
18.268462
18.268462
18.268462
18.268464
18.268462
18.268463
18.268463
18.268463
18.268463
18.268462
18.268462
18.268463
18.268464
18.268463
18.268463
18.268464
18.268464
18.268463
18.268463
18.268462
18.268463
18.268465
18.268463
18.268463
18.268464
18.268464
18.268464
18.268463
18.268463
18.268463
18.268465
18.268463
18.268464
18.268464
18.268464
18.268464
18.268464
18.268463
18.268464
18.268465
18.268463
18.268464
18.268464
18.268465
18.268464
18.268464
18.268464
18.268464
18.268465
18.268464
18.268464
18.268465
18.268465
18.268465
18.268464
18.268464
18.268464
18.268465
18.268464
18.268465
18.268465
18.268465
18.268465
18.268465
18.268464
18.268464
18.268465
18.268464
18.268465
18.268466
18.268466
18.268466
18.268465
18.268465
18.268465
18.268465
18.268465
18.268466
18.268466
18.268466
18.268466
18.268466
18.268465
18.268465
18.268465
18.268466
18.268466
18.268467
18.268467
18.268467
18.268466
18.268466
18.268465
18.268466
18.268467
18.268468
18.268468
18.268468
18.268468
18.268467
18.268466
18.268466
18.268466
18.268468
18.268469
18.268469
18.26847
18.268469
18.268468
18.268467
18.268467
18.268467
18.26847
18.26847
18.268471
18.268471
18.26847
18.26847
18.268469
18.268468
18.268468
18.268471
18.268472
18.268472
18.268472
18.268472
18.268471
18.26847
18.26847
18.26847
18.268473
18.268473
18.268473
18.268473
18.268473
18.268472
18.268472
18.268472
18.268472
18.268473
18.268474
18.268474
18.268474
18.268473
18.268473
18.268473
18.268474
18.268473
16.80619
16.80619
16.80619
16.80619
16.80619
16.80619
16.80619
16.806189
16.80619
16.806193
16.806192
16.806192
16.806192
16.806192
16.806192
16.806192
16.806192
16.806193
16.806195
16.806195
16.806194
16.806194
16.806194
16.806195
16.806195
16.806195
16.806195
16.806197
16.806197
16.806197
16.806197
16.806197
16.806197
16.806197
16.806197
16.806197
16.8062
16.806199
16.806199
16.806199
16.806199
16.8062
16.8062
16.8062
16.8062
16.806201
16.806201
16.806201
16.806201
16.806201
16.806202
16.806202
16.806202
16.806201
16.806203
16.806203
16.806203
16.806203
16.806203
16.806204
16.806204
16.806204
16.806203
16.806205
16.806205
16.806204
16.806205
16.806205
16.806206
16.806206
16.806206
16.806205
16.806206
16.806206
16.806206
16.806206
16.806207
16.806207
16.806207
16.806207
16.806206
16.806207
16.806207
16.806207
16.806207
16.806208
16.806208
16.806209
16.806208
16.806207
16.806208
16.806207
16.806208
16.806208
16.806209
16.806209
16.80621
16.806209
16.806208
16.806208
16.806208
16.806208
16.806208
16.806209
16.80621
16.80621
16.806209
16.806208
16.806208
16.806208
16.806208
16.806209
16.80621
16.80621
16.80621
16.80621
16.806208
16.806208
16.806208
16.806208
16.806209
16.80621
16.80621
16.80621
16.80621
16.806208
16.806208
16.806208
16.806208
16.806209
16.806209
16.80621
16.80621
16.806209
16.806208
16.806208
16.806208
16.806208
16.806208
16.806209
16.806209
16.80621
16.806209
16.806207
16.806207
16.806207
16.806207
16.806208
16.806208
16.806209
16.806209
16.806208
16.806206
16.806207
16.806207
16.806207
16.806207
16.806207
16.806208
16.806208
16.806207
16.806205
16.806206
16.806206
16.806206
16.806206
16.806207
16.806207
16.806207
16.806206
16.806204
16.806205
16.806205
16.806205
16.806205
16.806206
16.806206
16.806206
16.806205
16.806203
16.806204
16.806204
16.806204
16.806204
16.806204
16.806205
16.806204
16.806203
16.806202
16.806203
16.806203
16.806203
16.806203
16.806203
16.806203
16.806203
16.806202
16.806201
16.806203
16.806202
16.806202
16.806202
16.806202
16.806202
16.806202
16.806201
16.8062
16.806201
16.806201
16.806201
16.806201
16.806201
16.806201
16.806201
16.8062
16.806199
15.3448
15.3448
15.3448
15.3448
15.3448
15.3448
15.3448
15.344801
15.344801
15.344801
15.344801
15.344801
15.344801
15.344801
15.344801
15.344801
15.344801
15.344802
15.344801
15.344802
15.344802
15.344801
15.344801
15.344801
15.344801
15.344801
15.344802
15.344802
15.344802
15.344802
15.344802
15.344802
15.344802
15.344802
15.344802
15.344802
15.344802
15.344802
15.344802
15.344802
15.344802
15.344802
15.344802
15.344802
15.344803
15.344803
15.344803
15.344803
15.344803
15.344803
15.344802
15.344802
15.344803
15.344803
15.344803
15.344803
15.344803
15.344803
15.344803
15.344803
15.344803
15.344803
15.344804
15.344803
15.344803
15.344803
15.344803
15.344803
15.344803
15.344803
15.344803
15.344804
15.344803
15.344804
15.344804
15.344804
15.344804
15.344803
15.344803
15.344804
15.344804
15.344804
15.344804
15.344804
15.344804
15.344804
15.344804
15.344804
15.344804
15.344805
15.344804
15.344804
15.344804
15.344804
15.344804
15.344804
15.344804
15.344804
15.344805
15.344804
15.344804
15.344804
15.344804
15.344804
15.344804
15.344804
15.344804
15.344805
15.344804
15.344804
15.344805
15.344805
15.344805
15.344804
15.344804
15.344805
15.344805
15.344805
15.344805
15.344805
15.344805
15.344805
15.344805
15.344805
15.344805
15.344805
15.344805
15.344805
15.344805
15.344805
15.344805
15.344805
15.344805
15.344805