/*--------------------------------*- C++ -*----------------------------------*\
| =========                 |                                                 |
| \\      /  F ield         | OpenFOAM: The Open Source CFD Toolbox           |
|  \\    /   O peration     | Version:  2406                                  |
|   \\  /    A nd           | Website:  www.openfoam.com                      |
|    \\/     M anipulation  |                                                 |
\*---------------------------------------------------------------------------*/
FoamFile
{
    version     2.0;
    format      ascii;
    arch        "LSB;label=32;scalar=64";
    class       volVectorField;
    location    "13.75";
    object      U;
}
// * * * * * * * * * * * * * * * * * * * * * * * * * * * * * * * * * * * * * //

dimensions      [0 1 -1 0 0 0 0];

internalField   nonuniform List<vector> 
34560
(
(0.00057343631 0.00087078425 0.0077872646)
(-0.019302419 0.0049011526 0.029689222)
(-0.081901938 0.012421607 0.06417144)
(-0.21298954 0.022445611 0.11287875)
(-0.42312237 0.032352447 0.16866405)
(-0.68477451 0.038544689 0.21711797)
(-0.942864 0.043048902 0.24616281)
(-1.1517012 0.051823251 0.2535138)
(-1.2901103 0.064888376 0.24510795)
(0.002790734 0.0021741769 0.0098799298)
(-0.01785693 0.0099383351 0.036931573)
(-0.091197412 0.022781223 0.078311813)
(-0.24690153 0.038529975 0.13430782)
(-0.48892743 0.052044422 0.19394563)
(-0.77358102 0.0590166 0.24030214)
(-1.0351993 0.063459059 0.26288358)
(-1.2311362 0.07303991 0.2628482)
(-1.3531996 0.087801346 0.24781737)
(0.00739644 0.0021716642 0.010678719)
(-0.0088991889 0.011325838 0.040328523)
(-0.087529118 0.027502314 0.086039104)
(-0.26303101 0.048119331 0.14732049)
(-0.5321569 0.065413521 0.20987568)
(-0.83392893 0.073952111 0.25475634)
(-1.0944975 0.079507458 0.27317502)
(-1.2779177 0.090824168 0.26904044)
(-1.3871994 0.10798286 0.25136938)
(0.014199225 0.002188771 0.01147129)
(0.0073343207 0.012373971 0.04325259)
(-0.070689087 0.030978132 0.092240223)
(-0.2601445 0.055034679 0.15683105)
(-0.55067455 0.07540804 0.22080977)
(-0.86534631 0.085693062 0.26401265)
(-1.1237874 0.092983235 0.27995714)
(-1.29687 0.1060378 0.27436814)
(-1.395765 0.12556392 0.25659712)
(0.023586574 0.0014514404 0.011761387)
(0.03225183 0.011139862 0.044466812)
(-0.038056205 0.030745807 0.095232055)
(-0.2353811 0.057457119 0.16195216)
(-0.54280441 0.080194539 0.22626662)
(-0.8677753 0.092834124 0.26912263)
(-1.1249505 0.1028414 0.28513961)
(-1.2897985 0.11941788 0.28113636)
(-1.3776431 0.14080371 0.26519182)
(0.035904256 -0.00018778282 0.011647341)
(0.067171873 0.007030343 0.044278821)
(0.012959061 0.025593506 0.095678657)
(-0.18529108 0.053717078 0.16377859)
(-0.50675704 0.079559099 0.22970596)
(-0.84113395 0.095817233 0.27413181)
(-1.0954902 0.1096587 0.29264814)
(-1.2502747 0.12888993 0.29170254)
(-1.3272438 0.15165579 0.27883687)
(0.051694998 -0.0026654971 0.011397996)
(0.1140303 0.0001974198 0.04368761)
(0.086533313 0.015534101 0.095429477)
(-0.10324686 0.043391431 0.1652232)
(-0.43345013 0.07202778 0.23397293)
(-0.77491798 0.092827517 0.28230545)
(-1.0256056 0.11133239 0.30572662)
(-1.1702803 0.13361639 0.30963715)
(-1.2362659 0.15742898 0.30068925)
(0.071540325 -0.0059386563 0.011144671)
(0.17514808 -0.0091706962 0.043497373)
(0.18723215 0.00082905281 0.09622711)
(0.017582107 0.026910817 0.16984093)
(-0.31479809 0.058121094 0.244304)
(-0.66008834 0.083976138 0.29961673)
(-0.90509254 0.10725989 0.33023057)
(-1.0382849 0.132051 0.34001787)
(-1.0924836 0.15612404 0.33484039)
(0.095185161 -0.0092421692 0.011381996)
(0.25006464 -0.019112583 0.044920355)
(0.3142849 -0.015449573 0.1010341)
(0.17837444 0.0073557628 0.18221129)
(-0.14733974 0.03973122 0.26661)
(-0.4902801 0.06954647 0.33227483)
(-0.72475155 0.096253648 0.37190318)
(-0.84322935 0.12189885 0.38764739)
(-0.88432704 0.14491822 0.38503689)
(0.12076903 -0.011070169 0.012356153)
(0.33270166 -0.025422782 0.048828716)
(0.45645154 -0.026961288 0.11204242)
(0.36606631 -0.0090566794 0.20480413)
(0.058010592 0.021022994 0.30410391)
(-0.27268623 0.050985506 0.38265247)
(-0.48895999 0.07753535 0.43201997)
(-0.58830633 0.10126859 0.4525976)
(-0.61535474 0.12052662 0.45094973)
(0.14377946 -0.0095283807 0.013889871)
(0.40773365 -0.022813039 0.054186332)
(0.58754521 -0.026240464 0.12797839)
(0.54424373 -0.014881438 0.23356062)
(0.26273015 0.0072342927 0.35006034)
(-0.046328612 0.030610787 0.44159501)
(-0.23828651 0.050975314 0.49971886)
(-0.31654182 0.067883056 0.52354544)
(-0.33041429 0.081307764 0.52076054)
(0.1577476 -0.0037741668 0.01512343)
(0.45369669 -0.0091215106 0.058809212)
(0.66961347 -0.010790269 0.13956688)
(0.65751297 -0.0069061561 0.25488083)
(0.39707192 0.0013520252 0.38345679)
(0.10620415 0.010377235 0.48361162)
(-0.067268622 0.018176792 0.54720328)
(-0.13136414 0.024422438 0.57259989)
(-0.13633845 0.02937628 0.56805687)
(0.15774757 0.0037739749 0.015123449)
(0.45369656 0.0091209057 0.058809221)
(0.66961319 0.010789091 0.13956693)
(0.65751255 0.0069045518 0.25488085)
(0.39707146 -0.0013538437 0.38345679)
(0.10620372 -0.01037894 0.4836116)
(-0.067268975 -0.018178264 0.54720328)
(-0.13136444 -0.02442374 0.57259996)
(-0.13633873 -0.02937759 0.56805704)
(0.14377935 0.0095282374 0.013889892)
(0.40773329 0.022812496 0.054186382)
(0.5875445 0.026239373 0.12797848)
(0.5442427 0.01487998 0.23356069)
(0.26272902 -0.0072359441 0.35006048)
(-0.046329656 -0.030612369 0.44159509)
(-0.23828737 -0.050976752 0.49971897)
(-0.31654254 -0.067884342 0.52354568)
(-0.33041499 -0.081309028 0.52076095)
(0.12076887 0.011070031 0.012356168)
(0.33270116 0.025422278 0.048828966)
(0.45645067 0.026960296 0.11204267)
(0.36606505 0.0090553418 0.20480445)
(0.058009171 -0.021024457 0.30410437)
(-0.27268758 -0.050986884 0.38265281)
(-0.48896114 -0.077536685 0.43202031)
(-0.58830727 -0.10126985 0.452598)
(-0.61535563 -0.12052779 0.45095021)
(0.095185014 0.0092419537 0.011382033)
(0.25006417 0.019112045 0.044920807)
(0.31428403 0.015448643 0.10103463)
(0.17837316 -0.0073570081 0.18221196)
(-0.14734118 -0.039732425 0.2666107)
(-0.4902815 -0.069547525 0.33227539)
(-0.72475277 -0.096254737 0.37190373)
(-0.84323036 -0.12189999 0.38764793)
(-0.88432793 -0.14491936 0.38503743)
(0.0715402 0.0059384304 0.011144704)
(0.17514766 0.0091702258 0.043497741)
(0.18723134 -0.00082980812 0.096227666)
(0.017580958 -0.026911775 0.16984162)
(-0.3147994 -0.058121905 0.24430466)
(-0.66008963 -0.083976823 0.29961742)
(-0.90509364 -0.10726063 0.33023129)
(-1.0382859 -0.13205197 0.34001856)
(-1.0924845 -0.15612523 0.33484116)
(0.051694902 0.0026653018 0.01139803)
(0.11402997 -0.00019789295 0.043687836)
(0.086532673 -0.015534795 0.095429972)
(-0.10324779 -0.043392132 0.16522385)
(-0.43345123 -0.072028389 0.23397364)
(-0.77491904 -0.092827997 0.28230627)
(-1.0256064 -0.11133286 0.30572742)
(-1.1702811 -0.13361715 0.30963799)
(-1.2362667 -0.1574302 0.30069037)
(0.035904182 0.00018764529 0.011647477)
(0.067171628 -0.0070307953 0.044279056)
(0.012958604 -0.025594156 0.095678971)
(-0.18529177 -0.053717705 0.1637791)
(-0.50675783 -0.079559631 0.22970664)
(-0.84113473 -0.095817576 0.27413246)
(-1.0954908 -0.10965901 0.29264883)
(-1.2502755 -0.1288905 0.29170345)
(-1.3272445 -0.15165691 0.27883802)
(0.023586521 -0.0014515095 0.011761432)
(0.032251647 -0.011140099 0.04446685)
(-0.038056564 -0.030746188 0.095232134)
(-0.23538162 -0.057457591 0.16195243)
(-0.54280504 -0.080194881 0.22626686)
(-0.86777593 -0.09283445 0.26912294)
(-1.1249511 -0.10284155 0.28514013)
(-1.2897992 -0.11941844 0.28113722)
(-1.3776434 -0.1408047 0.26519259)
(0.014199176 -0.0021887975 0.011471273)
(0.0073341651 -0.012374032 0.043252585)
(-0.070689372 -0.030978318 0.092240289)
(-0.26014495 -0.05503508 0.15683113)
(-0.55067521 -0.075408386 0.22080998)
(-0.86534704 -0.085693437 0.26401289)
(-1.123788 -0.092983535 0.27995751)
(-1.2968704 -0.10603846 0.27436886)
(-1.395765 -0.12556469 0.25659773)
(0.0073963991 -0.0021717169 0.010678749)
(-0.0088993183 -0.011325923 0.040328677)
(-0.087529362 -0.02750246 0.086039369)
(-0.26303139 -0.048119628 0.1473207)
(-0.53215737 -0.065413988 0.20987572)
(-0.83392952 -0.073952542 0.25475624)
(-1.0944981 -0.079508025 0.27317528)
(-1.2779181 -0.090824656 0.26904047)
(-1.3871997 -0.10798399 0.25136984)
(0.0027906946 -0.002174239 0.0098799598)
(-0.017857053 -0.0099384027 0.036931739)
(-0.091197643 -0.022781319 0.07831201)
(-0.24690189 -0.038530099 0.13430787)
(-0.48892792 -0.052044655 0.19394543)
(-0.77358164 -0.059017063 0.24030203)
(-1.0352 -0.063459829 0.26288342)
(-1.2311363 -0.073040849 0.26284843)
(-1.3531998 -0.08780293 0.24781898)
(0.00057339985 -0.00087078803 0.0077872517)
(-0.019302534 -0.0049011297 0.029689198)
(-0.081902152 -0.012421589 0.064171357)
(-0.21298987 -0.022445564 0.11287858)
(-0.42312283 -0.032352299 0.16866399)
(-0.68477503 -0.038544698 0.21711784)
(-0.94286429 -0.043049246 0.24616263)
(-1.1517014 -0.051824473 0.25351482)
(-1.2901104 -0.064889457 0.24510903)
(0.030394105 0.00067956729 0.00048132302)
(0.080369938 0.0016421518 0.00086102849)
(0.11182714 0.002010844 -0.00020835749)
(0.10162634 0.00044877493 -0.0037209454)
(0.028343894 -0.0046378083 -0.01034717)
(-0.11138244 -0.014015728 -0.019071163)
(-0.29021136 -0.026482355 -0.02737)
(-0.46188856 -0.039631406 -0.033288146)
(-0.58614897 -0.052540458 -0.036018548)
(0.034842538 -0.00021684303 -0.00038519405)
(0.090359361 -0.0013200499 -0.0019880958)
(0.1219886 -0.0035008914 -0.0057123597)
(0.10390363 -0.0080457741 -0.012315843)
(0.01535876 -0.016365644 -0.021752974)
(-0.14118308 -0.028748019 -0.031914929)
(-0.33017044 -0.043303036 -0.039801801)
(-0.50167611 -0.057352498 -0.044061812)
(-0.62144165 -0.069690563 -0.04556221)
(0.039776636 -0.0013196366 -0.0012235915)
(0.10211187 -0.0049221628 -0.0048003769)
(0.13580958 -0.010089942 -0.011215547)
(0.11259875 -0.017812938 -0.020835069)
(0.012619352 -0.029015246 -0.032620011)
(-0.15605915 -0.043351126 -0.043378804)
(-0.35087377 -0.058588993 -0.050125265)
(-0.52042789 -0.072459439 -0.052700376)
(-0.63622095 -0.084279063 -0.052695708)
(0.044417849 -0.0028087537 -0.0021095469)
(0.11325797 -0.0096306006 -0.0077411131)
(0.14921324 -0.018413759 -0.016942544)
(0.12195764 -0.02958007 -0.02960656)
(0.012697103 -0.043352114 -0.043522688)
(-0.16531983 -0.058818072 -0.054450275)
(-0.36367564 -0.073847337 -0.059762151)
(-0.53057803 -0.08703249 -0.060602513)
(-0.64288562 -0.098386629 -0.059225297)
(0.048703039 -0.0045525708 -0.0029051049)
(0.12362837 -0.015068506 -0.010405831)
(0.1618782 -0.027865706 -0.022212735)
(0.13122021 -0.042568755 -0.037724373)
(0.013859669 -0.058526118 -0.053526648)
(-0.17218244 -0.074433868 -0.064426166)
(-0.37339238 -0.088691056 -0.068348971)
(-0.53785668 -0.10089216 -0.067670382)
(-0.64702811 -0.11151785 -0.065126139)
(0.052652632 -0.006486299 -0.0034996509)
(0.1332531 -0.020987167 -0.012441994)
(0.17381809 -0.037945821 -0.026445052)
(0.14020661 -0.055980101 -0.044419478)
(0.015391156 -0.073517931 -0.061826168)
(-0.17829356 -0.089163801 -0.072592798)
(-0.38268439 -0.10218241 -0.075315586)
(-0.54550042 -0.113107 -0.073482412)
(-0.65194922 -0.12269946 -0.070106719)
(0.056260581 -0.0084721038 -0.0038562217)
(0.14218431 -0.02688987 -0.013693626)
(0.18512844 -0.047687346 -0.029267269)
(0.14904613 -0.068382125 -0.049093628)
(0.017214204 -0.08667966 -0.067689552)
(-0.18419768 -0.10140698 -0.078285811)
(-0.39254921 -0.11284975 -0.080129357)
(-0.55481306 -0.12228569 -0.07759863)
(-0.65910522 -0.13053183 -0.073767789)
(0.059748601 -0.010097766 -0.0038309608)
(0.15108835 -0.031530696 -0.013723515)
(0.19686489 -0.054933255 -0.029898736)
(0.15912563 -0.077069976 -0.050896781)
(0.020615171 -0.095115765 -0.070167143)
(-0.1890022 -0.10844275 -0.080694722)
(-0.40239641 -0.11821532 -0.082140519)
(-0.56531811 -0.12608707 -0.079467409)
(-0.66796443 -0.13282759 -0.075610436)
(0.063294992 -0.010855596 -0.0033881726)
(0.16057698 -0.033419754 -0.012448032)
(0.21015477 -0.057351567 -0.028239992)
(0.1713431 -0.079143296 -0.049538997)
(0.026581728 -0.095779219 -0.06895332)
(-0.1913574 -0.10718862 -0.079434692)
(-0.41060316 -0.11521255 -0.080939096)
(-0.57520944 -0.12152886 -0.078653414)
(-0.67700552 -0.1266073 -0.075153126)
(0.066887551 -0.010146477 -0.0025678911)
(0.17066418 -0.030847271 -0.0099531623)
(0.22514037 -0.052254752 -0.024297593)
(0.18599898 -0.070976613 -0.044775041)
(0.0353534 -0.084574769 -0.064208042)
(-0.19075191 -0.093645596 -0.074591154)
(-0.41594632 -0.099855739 -0.076533727)
(-0.58265062 -0.10449119 -0.075067689)
(-0.68399006 -0.1078739 -0.072239075)
(0.070125191 -0.0074472957 -0.0016147957)
(0.18010475 -0.022387691 -0.0069867059)
(0.23993262 -0.037483628 -0.019312806)
(0.20145635 -0.050170507 -0.038331527)
(0.045354328 -0.059157579 -0.057904425)
(-0.18748529 -0.065184653 -0.067974297)
(-0.41756152 -0.069231163 -0.070458391)
(-0.58606575 -0.072060692 -0.069951342)
(-0.68715967 -0.073923966 -0.067887208)
(0.072227801 -0.0027596457 -0.00098347601)
(0.18644566 -0.0082453767 -0.0050136241)
(0.25030754 -0.013699489 -0.015915391)
(0.21295915 -0.018173872 -0.033763857)
(0.053232616 -0.021333848 -0.053264083)
(-0.18374353 -0.023509298 -0.062986899)
(-0.41681032 -0.024937991 -0.065884182)
(-0.58647722 -0.025882231 -0.066046022)
(-0.68748116 -0.026456173 -0.064497323)
(0.072227799 0.0027596936 -0.00098347337)
(0.18644565 0.0082455465 -0.0050136289)
(0.25030753 0.01369976 -0.015915376)
(0.21295913 0.018174288 -0.033763851)
(0.05323262 0.02133441 -0.053264082)
(-0.18374352 0.023509972 -0.062986911)
(-0.4168103 0.024938715 -0.065884186)
(-0.58647723 0.025882926 -0.066046005)
(-0.68748121 0.026456758 -0.064497262)
(0.070125182 0.0074473534 -0.0016147978)
(0.18010472 0.022387865 -0.0069867132)
(0.23993259 0.037483903 -0.0193128)
(0.20145633 0.050170949 -0.03833153)
(0.045354346 0.059158151 -0.057904395)
(-0.18748525 0.065185301 -0.0679743)
(-0.41756149 0.069231818 -0.070458392)
(-0.58606578 0.07206133 -0.069951307)
(-0.68715979 0.073924541 -0.067887084)
(0.066887531 0.010146532 -0.0025679038)
(0.17066413 0.030847442 -0.0099531098)
(0.22514033 0.052255017 -0.024297575)
(0.18599896 0.070977023 -0.044775)
(0.03535344 0.084575308 -0.064207914)
(-0.19075184 0.093646218 -0.074591102)
(-0.41594629 0.099856338 -0.076533715)
(-0.58265067 0.10449176 -0.075067677)
(-0.6839902 0.10787443 -0.072238994)
(0.063294968 0.010855596 -0.0033881779)
(0.16057693 0.033419857 -0.01244786)
(0.21015473 0.057351756 -0.028239846)
(0.17134308 0.079143597 -0.049538805)
(0.026581774 0.095779719 -0.068953123)
(-0.19135734 0.10718928 -0.079434625)
(-0.41060314 0.11521317 -0.080939089)
(-0.57520949 0.1215294 -0.07865345)
(-0.67700565 0.12660772 -0.075153097)
(0.05974858 0.010097725 -0.0038309678)
(0.1510883 0.031530748 -0.01372336)
(0.19686484 0.054933387 -0.029898578)
(0.1591256 0.077070233 -0.050896595)
(0.020615196 0.095116287 -0.070167037)
(-0.18900216 0.10844346 -0.080694688)
(-0.40239638 0.11821603 -0.082140516)
(-0.56531814 0.12608759 -0.079467464)
(-0.66796455 0.13282787 -0.075610355)
(0.056260563 0.0084720501 -0.0038562206)
(0.14218427 0.026889862 -0.013693521)
(0.18512838 0.047687417 -0.029267129)
(0.14904608 0.06838239 -0.049093508)
(0.017214199 0.08668017 -0.067689504)
(-0.18419765 0.10140769 -0.078285786)
(-0.39254915 0.1128505 -0.080129362)
(-0.55481308 0.12228622 -0.077598666)
(-0.65910535 0.13053201 -0.073767634)
(0.052652615 0.0064862562 -0.0034996222)
(0.13325306 0.020987123 -0.012441933)
(0.17381803 0.037945837 -0.026445055)
(0.14020655 0.055980302 -0.044419477)
(0.015391132 0.073518375 -0.061826168)
(-0.17829354 0.089164476 -0.072592877)
(-0.38268436 0.10218315 -0.075315673)
(-0.54550048 0.11310752 -0.073482458)
(-0.65194933 0.12269956 -0.070106659)
(0.048703026 0.0045525507 -0.0029050874)
(0.12362834 0.015068506 -0.010405829)
(0.16187814 0.027865757 -0.022212794)
(0.13122012 0.04256892 -0.037724405)
(0.013859596 0.058526549 -0.053526805)
(-0.1721825 0.074434468 -0.064426378)
(-0.37339245 0.088691774 -0.068349154)
(-0.53785681 0.10089258 -0.067670467)
(-0.64702815 0.11151785 -0.065126322)
(0.044417822 0.0028087517 -0.0021095644)
(0.11325789 0.0096306687 -0.0077411515)
(0.14921312 0.018413874 -0.016942624)
(0.12195749 0.02958023 -0.029606728)
(0.012696924 0.043352485 -0.04352295)
(-0.16532002 0.058818591 -0.054450588)
(-0.36367583 0.073847877 -0.059762413)
(-0.53057818 0.087032769 -0.060602704)
(-0.64288562 0.098386588 -0.059225694)
(0.039776603 0.0013196306 -0.0012235951)
(0.10211178 0.0049222438 -0.0048003451)
(0.13580944 0.010090098 -0.011215517)
(0.11259856 0.017813155 -0.02083514)
(0.012619106 0.029015532 -0.032620268)
(-0.15605945 0.043351559 -0.043379218)
(-0.35087407 0.058589338 -0.050125657)
(-0.52042813 0.072459671 -0.052701052)
(-0.63622109 0.084278825 -0.052696411)
(0.034842504 0.00021683696 -0.00038519478)
(0.090359262 0.0013201334 -0.0019880656)
(0.12198844 0.0035010714 -0.0057123591)
(0.10390339 0.0080460644 -0.012316006)
(0.015358452 0.016365992 -0.021753407)
(-0.14118345 0.02874831 -0.031915478)
(-0.33017082 0.043303199 -0.039802601)
(-0.50167636 0.057352256 -0.044062581)
(-0.6214418 0.069689798 -0.045562428)
(0.030394072 -0.00067954274 0.00048129432)
(0.080369843 -0.0016420398 0.00086093911)
(0.11182697 -0.0020106327 -0.00020852891)
(0.10162609 -0.00044844837 -0.0037212498)
(0.028343587 0.004638297 -0.010347558)
(-0.11138276 0.014016155 -0.019071913)
(-0.29021162 0.026482598 -0.027371007)
(-0.46188874 0.039631104 -0.033288958)
(-0.58614903 0.052539988 -0.036018879)
(0.013494636 -0.00041189609 -0.00037583718)
(0.028961361 -0.0011643854 -0.001075734)
(0.022763763 -0.0018370275 -0.0017399007)
(-0.023463618 -0.0023634759 -0.0021599409)
(-0.12588816 -0.0027839022 -0.0020143602)
(-0.28542813 -0.0031570352 -0.0010691562)
(-0.47636548 -0.0034394697 0.0004793317)
(-0.65605547 -0.00349287 0.0018716542)
(-0.78573493 -0.0034850724 0.0023541111)
(0.015550053 -0.00041342523 -0.00033218631)
(0.032373872 -0.0011138917 -0.00093308689)
(0.02285777 -0.0016439725 -0.0014742232)
(-0.033247046 -0.0019149985 -0.0017131643)
(-0.15125549 -0.0019705564 -0.0012810503)
(-0.32688113 -0.0019048485 1.8611132e-05)
(-0.52686489 -0.0017623322 0.0018267798)
(-0.7049679 -0.0015392905 0.0032785581)
(-0.82888086 -0.0014087924 0.0035120036)
(0.018085842 -0.00045184547 -0.00031579443)
(0.037643829 -0.0011777014 -0.0008846151)
(0.0270013 -0.0016438335 -0.0014005752)
(-0.035684112 -0.0017084358 -0.001591162)
(-0.16475979 -0.0013972838 -0.0010205623)
(-0.35105311 -0.0008624474 0.00049636779)
(-0.55509569 -0.00028626003 0.0024978441)
(-0.72943648 0.00020914551 0.0040837649)
(-0.84775411 0.00051197125 0.00444455)
(0.020490952 -0.00051579876 -0.0003138973)
(0.042850298 -0.0013272263 -0.00089155591)
(0.031778364 -0.0018020041 -0.001444714)
(-0.035787751 -0.0017166547 -0.0016728051)
(-0.17305361 -0.0010465796 -0.0010666116)
(-0.36639612 -1.0778493e-05 0.0005692025)
(-0.5713791 0.0010349574 0.0027150535)
(-0.74062441 0.0018385542 0.0044829042)
(-0.85334329 0.0023310261 0.0050521978)
(0.022754126 -0.00060226914 -0.00031931004)
(0.04792568 -0.001556737 -0.0009318005)
(0.036948502 -0.0021106844 -0.0015696026)
(-0.034239461 -0.0019348565 -0.0019064816)
(-0.17771169 -0.00092887433 -0.001354518)
(-0.37581872 0.00061997783 0.0003121017)
(-0.57999927 0.0021514293 0.0025534925)
(-0.74347407 0.0032653562 0.0045020858)
(-0.85047632 0.0039453791 0.0053294159)
(0.02482742 -0.00070448994 -0.00031851689)
(0.052697277 -0.0018460846 -0.00096379141)
(0.042153152 -0.0025377824 -0.0017100832)
(-0.031702407 -0.0023326779 -0.0022171458)
(-0.1799034 -0.00104033 -0.0018165253)
(-0.38122515 0.0009790897 -0.00022423033)
(-0.58366297 0.0029629935 0.0020548088)
(-0.74121916 0.0043616167 0.0041795026)
(-0.84247573 0.0051930682 0.0052934261)
(0.02665575 -0.00080813807 -0.0003087509)
(0.057013659 -0.0021498374 -0.00097418621)
(0.04715069 -0.0030100467 -0.0018341433)
(-0.028533553 -0.0028313111 -0.0025523455)
(-0.18020158 -0.0013358083 -0.0023857682)
(-0.38360403 0.0010515055 -0.00095790387)
(-0.583875 0.0033880977 0.001303401)
(-0.73581252 0.0049946302 0.0035848685)
(-0.83162571 0.0059173813 0.0049949921)
(0.028368873 -0.00088930499 -0.00028194948)
(0.06123128 -0.0023989884 -0.00093693561)
(0.052451617 -0.0034184692 -0.0018965573)
(-0.02422724 -0.0033081922 -0.0028464184)
(-0.17832763 -0.0017256629 -0.0029759362)
(-0.38310431 0.00085924437 -0.0017896215)
(-0.58132195 0.0033610411 0.00039356218)
(-0.72841794 0.0050576721 0.0028123793)
(-0.81944267 0.0059973042 0.0045043282)
(0.029985073 -0.00091162532 -0.00023325413)
(0.065385165 -0.0024874998 -0.00083789292)
(0.058071099 -0.0035975425 -0.0018727227)
(-0.018858382 -0.0035767158 -0.0030585759)
(-0.17451927 -0.0020541338 -0.0035181394)
(-0.38020794 0.0004755167 -0.0026263541)
(-0.57676011 0.0029079187 -0.00056184222)
(-0.72001702 0.0045348781 0.0019655964)
(-0.80714866 0.0054064275 0.0039069305)
(0.031417605 -0.00082786067 -0.00016446837)
(0.069181084 -0.002278659 -0.00067947764)
(0.063462315 -0.0033366334 -0.001760449)
(-0.01323082 -0.003393376 -0.0031754709)
(-0.16979557 -0.002098804 -0.0039723176)
(-0.37604404 7.7918549e-05 -0.0033733739)
(-0.57131889 0.0021527292 -0.0014313358)
(-0.71175115 0.0035226858 0.0011710836)
(-0.795976 0.0042311019 0.0033144851)
(0.032454516 -0.00059769958 -9.1659698e-05)
(0.071955773 -0.0016527309 -0.0004996379)
(0.067490673 -0.0024394885 -0.0015994848)
(-0.0088431629 -0.0025160363 -0.0032195513)
(-0.16581519 -0.0016261075 -0.004310364)
(-0.37222568 -0.00012874959 -0.0039383008)
(-0.56649555 0.0012855113 -0.0020927157)
(-0.70500176 0.0022061125 0.00055489414)
(-0.78729393 0.0026673297 0.0028421487)
(0.0330951 -0.00022151342 -4.528009e-05)
(0.073712484 -0.00061311935 -0.00038320727)
(0.070111286 -0.0009058745 -0.0014890333)
(-0.0058973818 -0.00093584575 -0.0032349869)
(-0.16305647 -0.00061157264 -0.0045001843)
(-0.36960054 -7.2976237e-05 -0.0042481203)
(-0.56345714 0.00043012785 -0.0024521677)
(-0.70108149 0.00075284612 0.00021831903)
(-0.78246185 0.00091065221 0.0025825898)
(0.033095097 0.0002214849 -4.5278427e-05)
(0.073712475 0.00061306946 -0.00038319933)
(0.070111273 0.00090581285 -0.001489019)
(-0.0058973984 0.00093580944 -0.0032349692)
(-0.16305648 0.00061159275 -0.0045001667)
(-0.36960055 7.306103e-05 -0.0042481081)
(-0.56345716 -0.00043000773 -0.0024521502)
(-0.70108151 -0.0007527476 0.00021834977)
(-0.78246187 -0.00091060855 0.0025826475)
(0.032454506 0.0005976721 -9.1658603e-05)
(0.071955745 0.0016526835 -0.00049961637)
(0.067490632 0.0024394322 -0.0015994583)
(-0.0088432157 0.0025160173 -0.0032195132)
(-0.16581524 0.0016261556 -0.004310315)
(-0.37222573 0.00012886557 -0.0039382621)
(-0.56649559 -0.0012853708 -0.0020926634)
(-0.70500181 -0.0022060012 0.00055497743)
(-0.78729399 -0.0026672722 0.0028422995)
(0.031417588 0.00082783073 -0.00016446949)
(0.069181039 0.0022786169 -0.00067942465)
(0.06346225 0.0033365863 -0.0017604042)
(-0.013230903 0.0033933722 -0.0031754012)
(-0.16979565 0.0020988878 -0.0039722293)
(-0.37604411 -7.7747316e-05 -0.0033733056)
(-0.57131895 -0.0021525429 -0.001431254)
(-0.71175122 -0.003522547 0.0011711935)
(-0.79597608 -0.0042310292 0.0033146769)
(0.02998505 0.00091158078 -0.00023325052)
(0.065385106 0.0024874485 -0.00083780082)
(0.058071016 0.0035974916 -0.0018726348)
(-0.018858483 0.0035767158 -0.0030584581)
(-0.17451937 0.0020542611 -0.0035180349)
(-0.38020802 -0.00047526625 -0.0026262808)
(-0.57676018 -0.0029076569 -0.00056175257)
(-0.72001709 -0.0045347008 0.0019656974)
(-0.80714873 -0.0054063594 0.0039071204)
(0.028368852 0.00088925353 -0.00028194198)
(0.06123122 0.0023989379 -0.00093684008)
(0.052451527 0.0034184251 -0.0018964595)
(-0.024227348 0.0033082192 -0.0028463024)
(-0.17832773 0.0017258542 -0.0029758681)
(-0.38310441 -0.00085890841 -0.0017895696)
(-0.58132202 -0.0033606947 0.00039363682)
(-0.728418 -0.0050574703 0.002812442)
(-0.81944273 -0.0059972878 0.0045044995)
(0.026655729 0.00080808621 -0.00030873747)
(0.057013595 0.0021497863 -0.00097409264)
(0.047150592 0.0030100095 -0.0018340442)
(-0.028533676 0.0028313807 -0.0025522505)
(-0.1802017 0.0013360554 -0.0023857304)
(-0.38360414 -0.0010511036 -0.00095787822)
(-0.58387508 -0.0033876875 0.0013034373)
(-0.73581258 -0.0049944348 0.0035848715)
(-0.83162576 -0.0059174726 0.0049951241)
(0.024827401 0.00070444399 -0.00031849621)
(0.052697216 0.0018460394 -0.00096371048)
(0.042153051 0.0025377548 -0.001710028)
(-0.031702551 0.0023327748 -0.0022170917)
(-0.17990356 0.0010406246 -0.0018165191)
(-0.38122531 -0.00097863218 -0.00022427074)
(-0.58366308 -0.0029625412 0.002054768)
(-0.74121925 -0.0043614563 0.0041794206)
(-0.84247578 -0.0051933118 0.0052934613)
(0.022754107 0.00060223283 -0.00031929034)
(0.047925615 0.0015567177 -0.00093173833)
(0.036948384 0.0021106933 -0.0015695663)
(-0.034239635 0.0019349827 -0.00190645)
(-0.1777119 0.00092921419 -0.0013545784)
(-0.37581895 -0.0006194924 0.0003119739)
(-0.57999947 -0.0021509536 0.0025533523)
(-0.74347421 -0.0032652541 0.0045019022)
(-0.85047638 -0.0039457718 0.0053292926)
(0.020490931 0.0005157722 -0.00031388639)
(0.042850226 0.0013272417 -0.00089151473)
(0.03177823 0.0018020655 -0.0014446927)
(-0.035787953 0.0017168256 -0.0016728234)
(-0.17305389 0.0010469442 -0.0010667343)
(-0.36639643 1.1257269e-05 0.00056897128)
(-0.57137938 -0.0010345444 0.002714791)
(-0.7406246 -0.0018385001 0.0044825667)
(-0.85334336 -0.0023314426 0.0050518649)
(0.018085816 0.00045182912 -0.00031578562)
(0.037643746 0.001177752 -0.00088457791)
(0.02700115 0.0016439597 -0.0014005587)
(-0.035684338 0.0017086891 -0.001591205)
(-0.16476009 0.001397686 -0.0010207495)
(-0.35105347 0.00086291962 0.00049602295)
(-0.55509601 0.00028655394 0.0024974131)
(-0.72943671 -0.0002091302 0.0040830743)
(-0.84775427 -0.00051232569 0.0044439216)
(0.015550032 0.00041343171 -0.00033219171)
(0.032373804 0.0011139949 -0.00093310259)
(0.022857646 0.0016441903 -0.0014742928)
(-0.033247238 0.001915375 -0.0017133392)
(-0.15125576 0.0019710832 -0.0012814028)
(-0.32688146 0.0019053755 1.8103216e-05)
(-0.52686522 0.0017625787 0.0018260211)
(-0.70496817 0.0015390361 0.0032775659)
(-0.82888108 0.0014083533 0.0035113474)
(0.013494622 0.00041192673 -0.00037586638)
(0.028961315 0.0011645123 -0.0010758377)
(0.022763682 0.0018372679 -0.0017401024)
(-0.023463738 0.0023638501 -0.0021602862)
(-0.12588831 0.0027844343 -0.0020148703)
(-0.28542829 0.0031575931 -0.0010698991)
(-0.47636565 0.0034398205 0.00047835047)
(-0.65605567 0.0034926494 0.0018702867)
(-0.78573509 0.0034846571 0.0023536487)
(0.021596554 -0.00013141834 -0.0001150286)
(0.053587783 -0.00046920478 -0.00037367646)
(0.065362524 -0.0010036692 -0.00066166003)
(0.036165865 -0.0017877597 -0.00097273124)
(-0.053050472 -0.0028176597 -0.0013335313)
(-0.20493682 -0.0040378588 -0.001756397)
(-0.39327505 -0.0053982685 -0.0022014896)
(-0.57358861 -0.0068645557 -0.0025606236)
(-0.70520695 -0.0083414788 -0.0027381366)
(0.02462878 -0.0002385208 -0.00018750914)
(0.059613193 -0.00080480745 -0.00058973701)
(0.069292423 -0.0016102352 -0.0010172323)
(0.030607513 -0.0026818135 -0.0014474988)
(-0.074765424 -0.0039760189 -0.0019044389)
(-0.24388453 -0.0054103064 -0.0024042071)
(-0.44247429 -0.0069283467 -0.0029089724)
(-0.62229264 -0.0084743855 -0.0033180402)
(-0.74921573 -0.00988592 -0.0035523053)
(0.028002853 -0.00033055929 -0.00022716027)
(0.067061034 -0.0010969235 -0.00071016515)
(0.07649676 -0.0021375816 -0.0012125834)
(0.031291234 -0.0034463163 -0.0017014423)
(-0.085952621 -0.0049320046 -0.0022055545)
(-0.26695213 -0.0064875335 -0.0027553298)
(-0.47073464 -0.0080503292 -0.0033205232)
(-0.64771921 -0.0095664649 -0.003814033)
(-0.76994287 -0.010874462 -0.0041221294)
(0.031037803 -0.00042569902 -0.00025530346)
(0.073797916 -0.0013905996 -0.00079254735)
(0.083206602 -0.0026474921 -0.0013402157)
(0.032764254 -0.0041490772 -0.0018587898)
(-0.0937184 -0.0057581979 -0.0023867526)
(-0.28301488 -0.0073573963 -0.0029746806)
(-0.488784 -0.0088956981 -0.0036035378)
(-0.66148492 -0.010336032 -0.0041831286)
(-0.77889854 -0.011524849 -0.0045536585)
(0.033681045 -0.00050803921 -0.00026449317)
(0.079655621 -0.0016440158 -0.00081819403)
(0.089052854 -0.0030800311 -0.0013753081)
(0.03422589 -0.0047257431 -0.0018978189)
(-0.099703281 -0.0064004933 -0.0024392876)
(-0.295015 -0.0079821618 -0.0030664267)
(-0.50095969 -0.0094506029 -0.0037610299)
(-0.66865811 -0.010764922 -0.0044033159)
(-0.78100771 -0.011803784 -0.0048186327)
(0.03589079 -0.00057470764 -0.00025361709)
(0.084478803 -0.0018454102 -0.00078203539)
(0.09370743 -0.003409746 -0.0013090387)
(0.035070369 -0.0051359496 -0.001806581)
(-0.10498324 -0.0068057847 -0.0023471712)
(-0.304759 -0.0082981635 -0.0030058806)
(-0.50988446 -0.0096372361 -0.0037580582)
(-0.67236275 -0.010793435 -0.0044543952)
(-0.77949418 -0.011666974 -0.0049156451)
(0.03760198 -0.00061528871 -0.00022682988)
(0.088107382 -0.0019619255 -0.00069588548)
(0.096954484 -0.0035815263 -0.0011569111)
(0.035035931 -0.0053070789 -0.0015993626)
(-0.10996274 -0.0068985649 -0.0021207677)
(-0.31300124 -0.0082492664 -0.0028064611)
(-0.51683776 -0.0094196725 -0.0036123333)
(-0.6743385 -0.010376317 -0.0043536652)
(-0.77641434 -0.011064938 -0.0048637819)
(0.03896069 -0.00061541652 -0.00018493837)
(0.090968532 -0.0019524193 -0.0005642667)
(0.099468375 -0.0035312871 -0.00093067677)
(0.034894818 -0.0051654461 -0.0012971924)
(-0.11403466 -0.0066101485 -0.0017894425)
(-0.31957567 -0.0077764993 -0.0024964334)
(-0.52218199 -0.0087173801 -0.0033378232)
(-0.67537047 -0.0094693081 -0.0041371931)
(-0.77288155 -0.010005536 -0.00471502)
(0.040033706 -0.00056652538 -0.00013387629)
(0.093252621 -0.0017892723 -0.00040463671)
(0.10153432 -0.0032114624 -0.00065822338)
(0.034937236 -0.0046482924 -0.00093425951)
(-0.11703298 -0.0058680355 -0.0013863386)
(-0.3245189 -0.0067863491 -0.0021023111)
(-0.52611814 -0.0075104633 -0.0029947769)
(-0.67583435 -0.0080785463 -0.0038709371)
(-0.769539 -0.0084642678 -0.0045169559)
(0.040826228 -0.00046260941 -8.0350888e-05)
(0.094950549 -0.0014548707 -0.00023804974)
(0.10309366 -0.0025929954 -0.00037634595)
(0.03503468 -0.003716644 -0.00056400066)
(-0.11915179 -0.0046398214 -0.0009784532)