/*--------------------------------*- C++ -*----------------------------------*\
| =========                 |                                                 |
| \\      /  F ield         | OpenFOAM: The Open Source CFD Toolbox           |
|  \\    /   O peration     | Version:  2406                                  |
|   \\  /    A nd           | Website:  www.openfoam.com                      |
|    \\/     M anipulation  |                                                 |
\*---------------------------------------------------------------------------*/
FoamFile
{
    version     2.0;
    format      ascii;
    arch        "LSB;label=32;scalar=64";
    class       surfaceScalarField;
    location    "11.75";
    object      phi;
}
// * * * * * * * * * * * * * * * * * * * * * * * * * * * * * * * * * * * * * //

dimensions      [0 3 -1 0 0 0 0];

oriented        oriented;

internalField   nonuniform List<scalar> 
101088
(
0.00014130698
-1.2219415e-05
8.6464923e-06
1.0596106e-05
0.00031535044
-5.342614e-05
3.9791691e-05
4.7163173e-05
0.00050978117
-0.00013044368
0.00010157948
0.00011675399
0.00069724059
-0.00025004903
0.00020435978
0.00022709051
0.00084044168
-0.00040079858
0.00034382689
0.00036999925
0.00091047614
-0.0005453403
0.00048860651
0.0005122678
0.00090630537
-0.00062970457
0.00058729235
0.00060200301
0.00085207943
-0.00062861945
0.00060260412
0.00061333645
-0.00055213523
0.00053732617
0.00055691391
0.00077409051
0.00017190434
-1.3479957e-05
1.1313555e-05
0.00037919183
-5.8052318e-05
5.1632575e-05
0.0006030424
-0.00013973028
0.00013085291
0.00080629758
-0.00026343702
0.00026106327
0.00094372683
-0.00041516703
0.00043496006
0.00098645066
-0.00055544384
0.00061217815
0.00094292504
-0.00063136701
0.00073143848
0.00084756582
-0.0006181111
0.00075174822
-0.00053343904
0.00067895074
0.0007414014
0.00020244319
-1.4182587e-05
1.4155427e-05
0.00044176884
-6.0196776e-05
6.4040461e-05
0.00069245688
-0.00014308351
0.00016102771
0.00090867075
-0.00026594597
0.0003183404
0.001039349
-0.00041310822
0.00052466458
0.0010576894
-0.00054445373
0.0007300994
0.00098207347
-0.00061064221
0.00086469175
0.00085716589
-0.00058831285
0.00088596411
-0.00050144569
0.00080419072
0.00072826001
0.00023202369
-1.4353189e-05
1.716826e-05
0.00050174801
-6.0018579e-05
7.6934956e-05
0.00077693681
-0.0001408664
0.00019178821
0.0010036266
-0.00025830921
0.0003754828
0.0011264917
-0.00039627133
0.00061196272
0.001122639
-0.00051564987
0.00084174415
0.0010200465
-0.00057189239
0.00098742368
0.00087235727
-0.00054415599
0.0010065686
-0.00045929497
0.00091435862
0.00072612512
0.00025976354
-1.3855522e-05
2.018656e-05
0.00055729611
-5.7277637e-05
8.9693973e-05
0.00085412005
-0.00013311589
0.00022186065
0.0010892527
-0.00024149808
0.00043055358
0.0012043158
-0.00036697572
0.00069462552
0.0011808562
-0.00047270503
0.00094543436
0.0010555328
-0.00051929631
0.0010990487
0.00088943069
-0.00048928656
0.0011139999
-0.00040936667
0.0010104932
0.00072940626
0.00028545155
-1.2863565e-05
2.3137082e-05
0.00060860751
-5.2617207e-05
0.00010201638
0.00092519798
-0.00012115207
0.00025056556
0.0011679294
-0.00021764167
0.00048241562
0.0012759117
-0.00032801655
0.00077128525
0.0012350616
-0.00041880166
0.0010400541
0.0010899586
-0.00045603937
0.0011991948
0.00090787023
-0.00042605715
0.0012086463
-0.00035338088
0.0010935142
0.00073614456
0.00030811211
-1.1437952e-05
2.5930044e-05
0.00065346269
-4.6322375e-05
0.00011352468
0.00098668978
-0.0001057511
0.00027703034
0.0012352561
-0.00018831703
0.00052956923
0.001336553
-0.0002818765
0.00083997686
0.001280736
-0.00035716608
0.001123607
0.0011193172
-0.00038578974
0.0012864344
0.00092431356
-0.00035765819
0.0012899452
-0.00029400466
0.0011637243
0.00074352443
0.00032746968
-9.626605e-06
2.8419291e-05
0.00069154976
-3.8653677e-05
0.00012370922
0.0010385479
-8.7609922e-05
0.00030029507
0.0012916264
-0.0001548846
0.00057071286
0.0013869023
-0.00023057052
0.00089940272
0.0013183611
-0.00029030539
0.0011952379
0.0011434794
-0.00031131941
0.0013605412
0.00093795798
-0.00028653193
0.0013582939
-0.00023340245
0.0012220035
0.00075016407
0.00034326962
-7.4849732e-06
3.0510036e-05
0.00072250935
-2.9876248e-05
0.00013222638
0.0010804953
-6.7365176e-05
0.00031967934
0.0013369444
-0.00011846648
0.00060485636
0.0014269917
-0.00017566041
0.00094848246
0.0013478967
-0.00022006783
0.0012540651
0.0011621013
-0.00023457521
0.0014210206
0.00094820741
-0.00021446304
0.0014136744
-0.00017321065
0.0012687219
0.00075525084
0.00035534332
-5.1261273e-06
3.2141412e-05
0.00074615105
-2.0381504e-05
0.00013885719
0.0011124581
-4.5756951e-05
0.00033473645
0.0013713078
-8.0116919e-05
0.00063129972
0.001457081
-0.00011840873
0.00098634666
0.0013696485
-0.00014774717
0.0012992362
0.0011753841
-0.00015672583
0.0014671964
0.00095517694
-0.00014248047
0.0014556975
-0.00011425183
0.0013038199
0.00075865683
0.0003633772
-2.6286777e-06
3.3313963e-05
0.00076167247
-1.0379518e-05
0.00014354733
0.0011331063
-2.3196645e-05
0.00034522721
0.0013930654
-4.046247e-05
0.00064945679
0.0014756043
-5.9636913e-05
0.0010120167
0.0013824923
-7.4197435e-05
0.0013295405
0.0011827518
-7.8450382e-05
0.0014979127
0.00095876857
-7.1034498e-05
0.0014834374
-5.6680269e-05
0.0013268058
0.00076045344
0.00036742074
-1.3654675e-12
3.3860282e-05
0.00076951204
-1.3757575e-11
0.00014577908
0.0011435819
-1.0678956e-10
0.00035031716
0.0014041348
-2.0198091e-10
0.00065842807
0.0014850074
-4.4268104e-10
0.0010248842
0.0013889228
-8.0125905e-10
0.0013448676
0.0011862953
-1.1502453e-09
0.001513506
0.00096036559
-1.2785155e-09
0.0014975223
-8.3977644e-10
0.0013384588
0.00076117157
0.00036742069
2.6286855e-06
3.3860277e-05
0.00076951168
1.0379495e-05
0.00014577906
0.0011435816
2.3196487e-05
0.00035031712
0.0014041345
4.046224e-05
0.000658428
0.001485007
5.9636184e-05
0.001024884
0.0013889226
7.4196006e-05
0.0013448674
0.0011862953
7.8448249e-05
0.0015135059
0.00096036584
7.1032022e-05
0.0014975223
5.6678158e-05
0.0013384588
0.00076117205
0.00036337728
5.1261592e-06
3.3313963e-05
0.00076167206
2.0381455e-05
0.00014354733
0.0011331062
4.5756804e-05
0.00034522721
0.0013930649
8.0116888e-05
0.00064945677
0.0014756039
0.00011840823
0.0010120167
0.0013824922
0.00014774607
0.0013295405
0.0011827519
0.000156724
0.0014979127
0.00095876903
0.00014247815
0.0014834373
0.00011424896
0.0013268057
0.00076045441
0.00035534318
7.4849596e-06
3.2141404e-05
0.00074615067
2.9875988e-05
0.00013885715
0.0011124583
6.7364892e-05
0.00033473637
0.0013713071
0.00011846647
0.00063129955
0.0014570806
0.00017565998
0.00098634643
0.0013696482
0.00022006668
0.0012992359
0.0011753839
0.00023457322
0.0014671962
0.00095517688
0.00021446059
0.0014556972
0.00017320743
0.0013038197
0.00075865736
0.00034326914
9.6265637e-06
3.0510031e-05
0.00072250926
3.8653423e-05
0.00013222635
0.0010804962
8.7609942e-05
0.00031967929
0.0013369443
0.00015488487
0.00060485626
0.0014269917
0.00023057017
0.00094848232
0.0013478964
0.00029030389
0.0012540649
0.0011621008
0.00031131703
0.0014210204
0.00094820673
0.00028652934
0.0014136742
0.00023339952
0.0012687218
0.00075525051
0.00032746924
1.1437929e-05
2.8419289e-05
0.00069154973
4.6322282e-05
0.00012370921
0.0010385485
0.00010575109
0.00030029505
0.0012916263
0.00018831694
0.00057071281
0.0013869022
0.00028187571
0.00089940264
0.0013183607
0.00035716439
0.0011952378
0.001143479
0.00038578761
0.0013605411
0.00093795717
0.00035765596
0.0013582937
0.00029400212
0.0012220033
0.00075016303
0.00030811183
1.2863629e-05
2.5930045e-05
0.0006534619
5.2617287e-05
0.00011352467
0.00098668938
0.00012115183
0.00027703034
0.0012352556
0.00021764119
0.00052956922
0.0013365531
0.00032801545
0.00083997684
0.0012807359
0.00041880054
0.0011236069
0.001119317
0.000456038
0.0012864344
0.0009243128
0.00042605559
0.0012899451
0.00035337864
0.0011637241
0.00074352263
0.00028545142
1.3855518e-05
2.3137087e-05
0.00060860711
5.7277665e-05
0.0001020164
0.00092519842
0.00013311574
0.00025056561
0.0011679296
0.00024149788
0.00048241571
0.0012759125
0.00036697577
0.00077128538
0.0012350618
0.00047270517
0.0010400542
0.0010899582
0.00051929557
0.0011991949
0.00090786927
0.00048928563
0.0012086463
0.00040936547
0.0010935141
0.0007361421
0.00025976349
1.4353222e-05
2.0186561e-05
0.00055729588
6.0018664e-05
8.9693973e-05
0.00085411981
0.0001408665
0.00022186065
0.0010892527
0.00025830923
0.00043055357
0.0012043157
0.00039627143
0.0006946255
0.0011808557
0.00051564977
0.0009454343
0.0010555318
0.00057189204
0.0010990486
0.0008894301
0.00054415511
0.0011139998
0.00045929504
0.0010104931
0.00072940466
0.00023202368
1.4182583e-05
1.7168258e-05
0.0005017477
6.0196692e-05
7.6934943e-05
0.00077693617
0.00014308342
0.00019178818
0.0010036265
0.00026594569
0.00037548273
0.0011264916
0.00041310774
0.00061196261
0.001122639
0.00054445397
0.00084174402
0.0010200456
0.00061064231
0.00098742353
0.00087235746
0.00058831231
0.0010065685
0.00050144634
0.00091435857
0.00072612445
0.00020244308
1.3479947e-05
1.4155425e-05
0.00044176841
5.8052269e-05
6.404045e-05
0.00069245623
0.00013973028
0.00016102768
0.00090867051
0.000263437
0.00031834035
0.0010393495
0.00041516692
0.00052466449
0.0010576891
0.00055544447
0.00073009927
0.00098207197
0.00063136823
0.00086469161
0.00085716506
0.00061811034
0.00088596405
0.00053343852
0.00080419072
0.00072825936
0.0001719043
1.2219414e-05
1.1313559e-05
0.00037919159
5.3426126e-05
5.1632587e-05
0.000603042
0.00013044364
0.00013085294
0.00080629732
0.00025004887
0.00026106332
0.00094372694
0.00040079844
0.00043496012
0.00098645033
0.00054534043
0.00061217822
0.00094292405
0.00062970526
0.00073143857
0.00084756527
0.00062861853
0.00075174835
0.00055213392
0.00067895077
0.0007414008
0.00014130695
8.6464988e-06
1.0596108e-05
0.00031535036
3.9791718e-05
4.7163152e-05
0.00050978122
0.00010157955
0.00011675391
0.00069724063
0.0002043599
0.00022709027
0.00084044127
0.00034382705
0.00036999872
0.00091047613
0.00048860672
0.0005122678
0.00090630625
0.00058729255
0.00060200432
0.0008520797
0.00060260427
0.00061333463
0.00053732624
0.00055691274
0.0007740908
3.1214076e-06
1.9236742e-06
5.6820533e-06
-2.0806429e-06
1.5732249e-05
4.5980168e-06
2.8507795e-05
-5.924929e-06
4.4121697e-05
-1.3006071e-06
7.8619323e-05
-4.1286123e-06
9.3988319e-05
-3.5181794e-05
0.00017044168
1.9233365e-05
0.00016538747
-0.00012085485
0.00030733824
8.5944395e-05
0.0002469212
-0.00025922813
0.00046348903
0.00020281176
0.00031937047
-0.00040916595
0.00058310489
0.00034090412
0.00037247707
-0.00050587823
0.0006162896
0.0004390862
-0.00051409949
0.00055681376
0.00046137226
0.00040571658
4.2605816e-06
2.0738343e-06
6.9028154e-06
2.1458293e-05
4.033971e-06
3.4998947e-05
5.9501254e-05
-5.7663028e-06
9.7275712e-05
0.00012334181
-4.9766846e-05
0.00021180772
0.00020721275
-0.00015162666
0.00038186063
0.00029081769
-0.00030447163
0.00057381662
0.00035059332
-0.00045703837
0.00071953553
0.00038057258
-0.00054648447
0.00076237493
-0.00054186902
0.0006982281
0.00038906497
5.9029157e-06
2.2774156e-06
8.0489644e-06
2.8900444e-05
3.870985e-06
4.1206066e-05
7.7751147e-05
-8.8732564e-06
0.00011528412
0.00015529355
-6.070337e-05
0.00025173443
0.00024895581
-0.00017359805
0.00045297355
0.00033113874
-0.00033308637
0.00067653142
0.00037701439
-0.00048070182
0.00084247954
0.00038626399
-0.00056017467
0.00089040484
-0.00054637443
0.00082034208
0.0003746181
7.8628047e-06
2.3798321e-06
9.2030656e-06
3.7650568e-05
3.6142806e-06
4.7404078e-05
9.8622602e-05
-1.1160567e-05
0.00013310368
0.00019026587
-6.7621692e-05
0.00029075774
0.00029226139
-0.00018488484
0.00052125439
0.00037125556
-0.0003430775
0.00077274091
0.00040422175
-0.00048049958
0.00095425541
0.00039599676
-0.00054893828
0.0010035568
-0.00052962772
0.0009259309
0.00036767789
9.8734329e-06
2.3964941e-06
1.0296527e-05
4.6503597e-05
3.3664293e-06
5.3311858e-05
0.00011944582
-1.2353038e-05
0.00015011091
0.00022454309
-7.003908e-05
0.00032787358
0.00033414369
-0.00018540053
0.00058554046
0.00041023055
-0.00033556596
0.00086183612
0.00043263168
-0.00045941606
0.001055564
0.00041090228
-0.00051679634
0.0011035871
-0.00049533973
0.0010171122
0.00036999528
1.1884374e-05
2.3087113e-06
1.1340572e-05
5.5285981e-05
3.0497303e-06
5.8931606e-05
0.00013992805
-1.2642217e-05
0.00016621232
0.0002579717
-6.844544e-05
0.0003627785
0.00037504121
-0.00017655704
0.00064537161
0.00044916931
-0.00031307956
0.00094343951
0.00046339296
-0.00042114014
0.0011466952
0.00043167218
-0.00046807242
0.0011916432
-0.00044711314
0.0010954905
0.00038146925
1.378511e-05
2.1082176e-06
1.2345556e-05
6.3486351e-05
2.638668e-06
6.4234517e-05
0.00015879054
-1.2092445e-05
0.00018117609
0.00028829995
-6.3169532e-05
0.00039478409
0.00041173744
-0.00015954549
0.00069952767
0.00048443984
-0.00027830406
0.0010161291
0.00049264601
-0.00036949932
0.0012265874
0.00045426099
-0.00040727407
0.001267532
-0.00038888497
0.0011617257
0.00039803154
1.5479532e-05
1.806372e-06
1.3241856e-05
7.0728831e-05
2.1524162e-06
6.8945884e-05
0.00017529143
-1.0778682e-05
0.00019441819
0.00031455881
-5.4701665e-05
0.00042297788
0.00044334489
-0.00013584591
0.00074691706
0.00051517071
-0.00023399197
0.0010791004
0.00051887659
-0.00030767827
0.0012950146
0.00047573956
-0.00033758019
0.0013317374
-0.00032259989
0.0012168734
0.00041458465
1.6897761e-05
1.4235463e-06
1.3995293e-05
7.6741419e-05
1.6276366e-06
7.2907411e-05
0.00018885913
-8.7705902e-06
0.00020555308
0.00033586988
-4.3536743e-05
0.00044668107
0.00046869221
-0.00010674866
0.00078656288
0.00053958355
-0.00018223782
0.00113142
0.00053973882
-0.00023819478
0.0013513822
0.00049248799
-0.00026082093
0.0013841662
-0.00024852437
0.0012613455
0.00042578877
1.7989723e-05
9.8641709e-07
1.4588803e-05
8.1345922e-05
1.098077e-06
7.6030715e-05
0.00019917676
-6.1915826e-06
0.00021432651
0.00035189582
-3.0278549e-05
0.00046532298
0.00048748773
-7.3566032e-05
0.00081757229
0.00055723007
-0.00012479471
0.0011720509
0.00055403772
-0.00016261188
0.0013948059
0.00050229583
-0.00017764564
0.001424264
-0.0001684693
0.0012949978
0.00043106254
1.8748516e-05
4.88821e-07
1.5062986e-05
8.4502636e-05
4.9476319e-07
7.8396672e-05
0.00020612228
-3.3039838e-06
0.00022071983
0.00036244829
-1.5649326e-05
0.0004785017
0.00049956969
-3.763587e-05
0.00083896523
0.00056822579
-6.3496498e-05
0.0011995861
0.00056218859
-8.2519572e-05
0.0014238574
0.00050702881
-8.9914156e-05
0.0014508654
-8.4944944e-05
0.0013171201
0.00043319018
1.9092458e-05
1.9474701e-11
1.5256621e-05
8.592357e-05
3.8994857e-11
7.944275e-05
0.00020923691
6.7489528e-13
0.00022369968
0.00036713898
-1.4470979e-10
0.00048487665
0.00050483815
-4.9848876e-10
0.00084954947
0.0005728337
-1.0154758e-09
0.0012133763
0.00056531979
-1.4431478e-09
0.0014385016
0.00050859763
-1.5727623e-09
0.0014643319
-1.1152148e-09
0.0013283273
0.00043378554
1.9092434e-05
-4.8878735e-07
1.5256618e-05
8.5923435e-05
-4.9470047e-07
7.9442738e-05
0.00020923685
3.3040024e-06
0.00022369965
0.00036713886
1.5649127e-05
0.00048487659
0.00050483795
3.763498e-05
0.00084954936
0.00057283355
6.3494605e-05
0.0012133762
0.00056531974
8.2516854e-05
0.0014385015
0.0005085977
8.9911094e-05
0.0014643318
8.4942513e-05
0.0013283272
0.0004337857
1.8748533e-05
-9.863862e-07
1.5062985e-05
8.4502472e-05
-1.0980492e-06
7.8396666e-05
0.00020612232
6.1915922e-06
0.00022071982
0.00036244811
3.0278449e-05
0.00047850166
0.00049956943
7.3565298e-05
0.00083896516
0.00056822559
0.0001247931
0.001199586
0.0005621885
0.00016260952
0.0014238573
0.00050702887
0.00017764278
0.0014508653
0.00016846652
0.0013171199
0.00043319044
1.7989735e-05
-1.4235156e-06
1.4588798e-05
8.1345834e-05
-1.6276619e-06
7.6030688e-05
0.00019917691
8.770549e-06
0.00021432644
0.00035189551
4.3536648e-05
0.00046532283
0.00048748742
0.00010674798
0.00081757205
0.00055722969
0.00018223633
0.0011720506
0.0005540373
0.00023819253
0.0013948056
0.00050229543
0.00026081814
0.0014242637
0.00024852141
0.0012949976
0.00043106253
1.6897603e-05
-1.8063485e-06
1.3995288e-05
7.674139e-05
-2.1524385e-06
7.2907389e-05
0.00018885951
1.0778738e-05
0.00020555303
0.00033586975
5.470169e-05
0.00044668095
0.00046869206
0.00013584532
0.0007865627
0.00053958305
0.00023399045
0.0011314198
0.00053973812
0.00030767594
0.0013513819
0.00049248711
0.0003375775
0.0013841659
0.00032259709
0.0012613452
0.00042578826
1.5479278e-05
-2.1081796e-06
1.3241852e-05
7.0728752e-05
-2.6385789e-06
6.8945867e-05
0.00017529167
1.2092655e-05
0.00019441816
0.00031455862
6.3169639e-05
0.00042297781
0.00044334468
0.00015954492
0.00074691693
0.00051517007
0.00027830261
0.0010791002
0.0005188758
0.00036949715
0.0012950143
0.00047573853
0.00040727164
0.0013317371
0.00038888237
0.0012168732
0.00041458365
1.378494e-05
-2.3086541e-06
1.2345553e-05
6.3486015e-05
-3.0495816e-06
6.4234506e-05
0.0001587904
1.2642382e-05
0.00018117606
0.0002882996
6.8445468e-05
0.00039478404
0.00041173718
0.00017655656
0.0006995276
0.0004844392
0.00031307859
0.001016129
0.00049264518
0.00042113851
0.0012265873
0.00045425987
0.00046807041
0.0012675318
0.00044711064
0.0011617255
0.00039803004
1.1884256e-05
-2.3964273e-06
1.1340572e-05
5.5285626e-05
-3.3662303e-06
5.893161e-05
0.00013992794
1.2353281e-05
0.00016621233
0.0002579713
7.0039267e-05
0.00036277854
0.00037504099
0.00018540062
0.00064537168
0.00044916862
0.0003355657
0.00094343956
0.00046339191
0.00045941495
0.0011466952
0.00043167082
0.00051679473
0.0011916431
0.0004953376
0.0010954903
0.00038146741
9.8733702e-06
-2.37978e-06
1.0296526e-05
4.6503356e-05
-3.614128e-06
5.3311853e-05
0.00011944551
1.1160856e-05
0.0001501109
0.00022454269
6.7622074e-05
0.00032787357
0.00033414315
0.00018488521
0.00058554043
0.0004102296
0.00034307754
0.00086183605
0.00043263038
0.00048049897
0.0010555639
0.00041090098
0.00054893691
0.001103587
0.00052962626
0.0010171121
0.00036999369
7.8627973e-06
-2.2773779e-06
9.2030645e-06
3.7650431e-05
-3.8709027e-06
4.7404071e-05
9.8622282e-05
8.8734796e-06
0.00013310366
0.00019026561
6.0703664e-05
0.00029075769
0.00029226089
0.00017359824
0.00052125429
0.00037125502
0.00033308673
0.00077274079
0.00040422062
0.00048070169
0.00095425527
0.00039599579
0.00056017368
0.0010035566
0.00054637343
0.0009259308
0.00036767655
5.9028982e-06
-2.0738126e-06
8.0489639e-06
2.8900273e-05
-4.0339179e-06
4.1206061e-05
7.7750835e-05
5.7664709e-06
0.0001152841
0.00015529341
4.9767115e-05
0.00025173439
0.00024895603
0.00015162701
0.00045297348
0.00033113866
0.00030447229
0.0006765313
0.00037701335
0.00045703921
0.00084247941
0.00038626253
0.00054648415
0.00089040475
0.00054186774
0.00082034203
0.00037461684
4.2605736e-06
-1.9236633e-06
6.9028187e-06
2.1458203e-05
-4.5979907e-06
3.4998959e-05
5.9501195e-05
1.3006614e-06
9.727574e-05
0.00012334209
3.5181855e-05
0.00021180777
0.0002072136
0.00012085495
0.00038186069
0.00029081866
0.00025922827
0.00057381667
0.00035059437
0.00040916649
0.00071953558
0.00038057383
0.00050587793
0.000762375
0.00051409814
0.00069822814
0.00038906576
3.1214272e-06
5.6820592e-06
-2.0806566e-06
1.5732357e-05
2.8507819e-05
-5.9249772e-06
4.412214e-05
7.8619378e-05
-4.1287114e-06
9.3989215e-05
0.00017044177
1.923313e-05
0.00016538875
0.00030733836
8.5943901e-05
0.00024692333
0.00046348918
0.00020281133
0.00031937377
0.00058310502
0.00034090436
0.00037247993
0.00061628973
0.00043908576
0.00055681385
0.00046137244
0.00040571794
7.1206774e-07
2.1646245e-07
5.4574913e-06
-7.0396812e-07
3.9483013e-06
3.7274057e-08
2.7360782e-05
-2.1264917e-06
1.1918056e-05
-3.3879648e-06
7.5875308e-05
-1.8377793e-06
2.7565021e-05
-1.7932887e-05
0.00016603253
6.6950526e-06
5.4112106e-05
-5.9194718e-05
0.00030275227
3.7233585e-05
9.347023e-05
-0.0001425864
0.00046185818
0.00010485909
0.00014357514
-0.00025739412
0.00058642887
0.00020396519
0.00019558205
-0.00034940579
0.0006233316
0.00029035683
-0.0003759337
0.00056423074
0.00032555049
0.00023854824
9.2458676e-07
-2.2022149e-07
6.4149143e-06
5.3480253e-06
-2.0001849e-06
3.2612983e-05
1.641745e-05
-8.6940073e-06
9.1512342e-05
3.7541355e-05
-2.923986e-05
0.00020199077
7.0684332e-05
-8.0517303e-05
0.00037004017
0.00011376173
-0.0001770349
0.00056518763
0.00015928664
-0.00030127313
0.00071788956
0.00019889294
-0.00039295525
0.00076631797
-0.00041095602
0.00070376552
0.0002283779
1.2000093e-06
-6.0824508e-07
7.2369846e-06
6.9118867e-06
-3.7857574e-06
3.7279802e-05
2.1102149e-05
-1.3316705e-05
0.00010571662
4.7596467e-05
-3.8990849e-05
0.00023499115
8.6738898e-05
-9.8357118e-05
0.00043167097
0.0001319073
-0.00020406332
0.00065839141
0.000171212
-0.00033158
0.00083348164
0.00019766724
-0.00041800058
0.00088899489
-0.00042690632
0.00082198664
0.00021197294
1.4894182e-06
-9.1829938e-07
8.0237104e-06
8.5825168e-06
-5.2027348e-06
4.1727972e-05
2.6068596e-05
-1.6898512e-05
0.00011919938
5.8013047e-05
-4.6265377e-05
0.00026608772
0.0001028787
-0.00011101586
0.00048904745
0.00014929695
-0.00022128776
0.00074354697
0.00018206839
-0.00034655655
0.00093646046
0.00019640374
-0.00042429205
0.00099551275
-0.00042462632
0.00092256476
0.00019748985
1.7431105e-06
-1.0961392e-06
8.7312856e-06
1.0115341e-05
-6.0518706e-06
4.5788842e-05
3.0768274e-05
-1.9054787e-05
0.00013161431
6.804328e-05
-5.0478021e-05
0.00029481121
0.00011825186
-0.00011758951
0.00054190539
0.00016533126
-0.00022756966
0.00082103853
0.00019195106
-0.00034598037
0.0010283679
0.00019616009
-0.00041330178
0.0010883877
-0.00040662182
0.0010082272
0.00018704054
2.0369342e-06
-1.1819198e-06
9.3894259e-06
1.1810616e-05
-6.4515294e-06
4.9557579e-05
3.5832402e-05
-1.9975409e-05
0.00014311108
7.861819e-05
-5.1828059e-05
0.00032134277
0.00013397171
-0.00011803855
0.00059046698
0.00018129437
-0.00022276364
0.00089131076
0.00020191133
-0.00033010195
0.0011101998
0.00019706221
-0.00038604027
0.0011692307
-0.00037412876
0.0010808865
0.00017917319
2.3200224e-06
-1.178079e-06
1.0021723e-05
1.3419709e-05
-6.3981878e-06
5.308148e-05
4.0554779e-05
-1.9606706e-05
0.00015367219
8.8206575e-05
-5.0120573e-05
0.00034542475
0.00014773111
-0.00011204364
0.00063400818
0.00019447483
-0.00020686546
0.00095348725
0.00020928468
-0.00029970266
0.0011813783
0.00019659968
-0.00034399252
0.0012381693
-0.0003287343
0.0011413829
0.0001715481
2.5687461e-06
-1.0821318e-06
1.0577196e-05
1.4821387e-05
-5.8717251e-06
5.6166757e-05
4.4621642e-05
-1.7885456e-05
0.00016289662
9.629361e-05
-4.5236569e-05
0.0003664219
0.00015885408
-9.9530542e-05
0.00067184352
0.00020424841
-0.00018026824
0.001007109
0.00021375259
-0.0002562012
0.0012420091
0.00019475657
-0.00028919395
0.001295935
-0.0002730042
0.0011909596
0.00016494043
2.7762064e-06
-8.9871619e-07
1.1035701e-05
1.5976151e-05
-4.884105e-06
5.8719816e-05
4.7926789e-05
-1.483415e-05
0.00017055108
0.00010272601
-3.7242955e-05
0.00038388832
0.00016733206
-8.0900792e-05
0.00070332714
0.0002111383
-0.00014419492
0.0010515407
0.00021614625
-0.00020160154
0.0012917747
0.00019285572
-0.00022440661
0.0013426696
-0.00021054351
0.0012303053
0.0001614353
2.9404216e-06
-6.4336769e-07
1.1393057e-05
1.6877936e-05
-3.5037994e-06
6.0712902e-05
5.0468855e-05
-1.0628698e-05
0.00017653012
0.00010756039
-2.6548385e-05
0.00039753705
0.00017346596
-5.711616e-05
0.0007278822
0.00021589155
-0.00010056581
0.0010859964
0.00021784005
-0.00013875392
0.00133001
0.00019265254
-0.00015306673
0.0013781117
-0.00014326747
0.0012597047
0.00016066968
3.066906e-06
-3.3952636e-07
1.1692263e-05
1.7542578e-05
-1.8427956e-06
6.2260022e-05
5.2270959e-05
-5.569023e-06
0.00018093177
0.00011084686
-1.3839891e-05
0.00040721745
0.00017740237
-2.9558991e-05
0.00074485268
0.00021866963
-5.1607061e-05
0.0011093603
0.00021886202
-7.0617323e-05
0.0013555285
0.00019273888
-7.7540176e-05
0.0014014621
-7.2497222e-05
0.0012788241
0.00016026471
3.1150848e-06
1.3744694e-11
1.1802017e-05
1.7813923e-05
2.2839224e-11
6.2901126e-05
5.3036159e-05
3.5776006e-12
0.00018290842
0.00011225608
-1.3135986e-10
0.00041181708
0.00017904037
-4.9639124e-10
0.00075320678
0.00021972999
-1.0051974e-09
0.0011210808
0.00021918099
-1.4279982e-09
0.0013684349
0.00019266905
-1.5217652e-09
0.0014133053
-1.1691874e-09
0.0012885125
0.00015998796
3.1150684e-06
3.3955643e-07
1.1802015e-05
1.7813888e-05
1.8428497e-06
6.2901117e-05
5.3036122e-05
5.5690552e-06
0.00018290839
0.00011225598
1.3839671e-05
0.00041181703
0.00017904022
2.9558046e-05
0.00075320669
0.00021972981
5.1605104e-05
0.0011210807
0.00021918081
7.0614519e-05
0.0013684348
0.00019266889
7.7537152e-05
0.0014133052
7.2494866e-05
0.0012885124
0.00015998782
3.0668866e-06
6.433968e-07
1.1692263e-05
1.7542553e-05
3.5038567e-06
6.226002e-05
5.2270958e-05
1.0628763e-05
0.00018093176
0.00011084672
2.6548237e-05
0.00040721744
0.00017740212
5.7115331e-05
0.00074485264
0.00021866926
0.00010056402
0.0011093602
0.00021886158
0.00013875128
0.0013555284
0.00019273842
0.00015306378
0.001401462
0.0001432651
0.0012788239
0.00016026428
2.9403983e-06
8.9875151e-07
1.1393053e-05
1.6877898e-05
4.8841883e-06
6.0712885e-05
5.0468797e-05
1.4834272e-05
0.00017653008
0.00010756012
3.7242893e-05
0.00039753695
0.00017346552
8.0900108e-05
0.00072788203
0.00021589088
0.00014419331
0.0010859962
0.0002178392
0.00020159905
0.0013300097
0.00019265163
0.00022440372
0.0013781114
0.00021054107
0.0012597044
0.00016066886
2.7761649e-06
1.0821847e-06
1.1035699e-05
1.5976085e-05
5.8718726e-06
5.8719806e-05
4.7926673e-05
1.7885685e-05
0.00017055105
0.00010272567
4.5236644e-05
0.00038388825
0.00016733149
9.9530051e-05
0.00070332702
0.00021113734
0.00018026685
0.0010515405
0.00021614496
0.0002561989
0.0012917745
0.00019285425
0.00028919118
0.0013426693
0.00027300174
0.001230305
0.00016143391
2.5686949e-06
1.1781473e-06
1.0577195e-05
1.482129e-05
6.3983916e-06
5.6166753e-05
4.4621468e-05
1.9607042e-05
0.00016289661
9.6293204e-05
5.0120825e-05
0.00036642188
0.00015885337
0.00011204338
0.00067184346
0.00020424723
0.00020686434
0.0010071089
0.00021375096
0.00029970068
0.0012420089
0.00019475461
0.00034399003
0.0012959347
0.00032873191
0.0011909593
0.00016493841
2.3199738e-06
1.1819955e-06
1.0021723e-05
1.3419601e-05
6.4517672e-06
5.308148e-05
4.0554623e-05
1.9975846e-05
0.00015367219
8.820616e-05
5.1828532e-05
0.00034542475
0.00014773034
0.00011803861
0.00063400818
0.00019447357
0.00022276295
0.00095348721
0.0002092829
0.00033010046
0.0011813782
0.00019659746
0.00038603826
0.0012381691
0.00037412655
0.0011413827
0.00017154561
2.0368989e-06
1.096231e-06
9.3894281e-06
1.181051e-05
6.0521443e-06
4.9557592e-05
3.5832218e-05
1.9055297e-05
0.00014311111
7.861771e-05
5.0478661e-05
0.00032134285
0.00013397095
0.0001175899
0.00059046709
0.00018129317
0.0002275694
0.00089131087
0.00020190964
0.00034597935
0.0011101999
0.00019706002
0.00041330035
0.0011692306
0.00040661996
0.0010808863
0.0001791706
1.7430835e-06
9.1838112e-07
8.7312859e-06
1.0115226e-05
5.2029827e-06
4.5788844e-05
3.0768027e-05
1.6899021e-05
0.00013161432
6.8042829e-05
4.6266119e-05
0.00029481122
0.00011825118
0.00011101649
0.0005419054
0.00016533024
0.00022128787
0.0008210385
0.00019194964
0.00034655598
0.0010283679
0.00019615822
0.00042429117
0.0010883876
0.00042462495
0.0010082271
0.00018703822
1.4894084e-06
6.0831992e-07
8.0237093e-06
8.582468e-06
3.7859832e-06
4.1727966e-05
2.6068486e-05
1.3317197e-05
0.00011919937
5.8012883e-05
3.8991597e-05
0.00026608768
0.00010287837
9.8357835e-05
0.00048904738
0.00014929642
0.00020406374
0.00074354687
0.00018206752
0.0003315798
0.00093646032
0.00019640255
0.00041800011
0.00099551261
0.00042690546
0.00092256467
0.00019748815
1.2000174e-06
2.2027388e-07
7.236983e-06
6.9118883e-06
2.0003387e-06
3.7279793e-05
2.1102192e-05
8.6943358e-06
0.0001057166
4.7596679e-05
2.9240357e-05
0.00023499109
8.6739346e-05
8.0517804e-05
0.00043167086
0.00013190782
0.00017703529
0.00065839126
0.00017121215
0.00030127331
0.00083348148
0.00019766677
0.00039295542
0.00088899478
0.00041095566
0.00082198661
0.00021197204
9.2460607e-07
-2.1644075e-07
6.4149151e-06
5.3480992e-06
-3.7220174e-08
3.2612986e-05
1.6417741e-05
3.3880516e-06
9.1512346e-05
3.7542136e-05
1.7932939e-05
0.00020199077
7.0685818e-05
5.9194608e-05
0.00037004015
0.00011376377
0.00014258624
0.0005651876
0.00015928884
0.00025739424
0.00071788954
0.00019889486
0.00034940633
0.00076631802
0.00037593411
0.00070376559
0.00022837897
7.120997e-07
5.4574947e-06
-7.039802e-07
3.9484391e-06
2.7360795e-05
-2.1265359e-06
1.1918438e-05
7.5875338e-05
-1.8378776e-06
2.7565738e-05
0.00016603257
6.694832e-06
5.4113186e-05
0.00030275231
3.7233102e-05
9.3471976e-05
0.00046185823
0.00010485832
0.00014357811
0.00058642893
0.00020396433
0.00019558629
0.00062333172
0.00029035599
0.00056423086
0.00032555184
0.00023855158
-2.7823287e-07
5.2978352e-08
5.7917296e-06
-1.0898377e-07
-1.358314e-06
-4.8248066e-07
2.8822994e-05
1.0035196e-07
-3.1952187e-06
-3.5263081e-06
7.9223983e-05
2.0145418e-06
-4.0595924e-06
-1.3771783e-05
0.00017168315
8.9855404e-06
5.9985604e-07
-3.9852919e-05
0.00031046187
2.7483873e-05
1.6944567e-05
-9.0359959e-05
0.00047115439
6.4719038e-05
4.6206369e-05
-0.00015745596
0.00059709913
0.00011752386
8.2352162e-05
-0.00021672806
0.00063476551
0.00016914831
-0.00024204492
0.00057453282
0.00019756617
0.00011652881
-3.3764449e-07
4.8532496e-08
6.7570071e-06
-1.5241552e-06
-7.6002241e-07
3.4077048e-05
-3.2651176e-06
-4.9737145e-06
9.4700729e-05
-3.2920958e-06
-1.8620042e-05
0.00020686602
3.3867153e-06
-5.2250775e-05
0.0003757592
2.2053541e-05
-0.00011506206
0.00057122286
5.1857291e-05
-0.00019423114
0.00072486092
8.4578301e-05
-0.00025766898
0.00077453781
-0.00027917989
0.00071177299
0.0001137058
-3.0854791e-07
3.3576509e-08
7.5604922e-06
-1.3498596e-06
-1.0549458e-06
3.8616052e-05
-2.5620774e-06
-6.4226555e-06
0.0001083778
-1.1096906e-06
-2.3350616e-05
0.00023826936
8.3598218e-06
-6.3968573e-05
0.00043391925
2.9589961e-05
-0.00013694988
0.00065904901
5.8855239e-05
-0.00022428642
0.00083427153
8.7153622e-05
-0.00028841522
0.00089144268
-0.00030431042
0.00082530866
0.00010896207
-2.100094e-07
-3.8555158e-08
8.3058561e-06
-8.2836435e-07
-1.53403e-06
4.2825415e-05
-9.5406061e-07
-8.122948e-06
0.00012102534
2.744163e-06
-2.8061124e-05
0.00026709994
1.5818809e-05
-7.4656606e-05
0.00048666075
3.9632701e-05
-0.00015435365
0.00073713674
6.7724757e-05
-0.00024507667
0.00092915854
9.0942949e-05