/*--------------------------------*- C++ -*----------------------------------*\
| =========                 |                                                 |
| \\      /  F ield         | OpenFOAM: The Open Source CFD Toolbox           |
|  \\    /   O peration     | Version:  2406                                  |
|   \\  /    A nd           | Website:  www.openfoam.com                      |
|    \\/     M anipulation  |                                                 |
\*---------------------------------------------------------------------------*/
FoamFile
{
    version     2.0;
    format      ascii;
    arch        "LSB;label=32;scalar=64";
    class       volVectorField;
    location    "11.75";
    object      U;
}
// * * * * * * * * * * * * * * * * * * * * * * * * * * * * * * * * * * * * * //

dimensions      [0 1 -1 0 0 0 0];

internalField   nonuniform List<vector> 
34560
(
(0.062328875 -0.00051205124 -0.014772914)
(0.20064674 -0.00048605714 -0.047879216)
(0.37131814 -0.00078897766 -0.086566707)
(0.56730335 -0.00085409821 -0.12774949)
(0.77399406 -0.0014342751 -0.16472258)
(0.969725 -0.002943225 -0.19052468)
(1.1307748 -0.0049193217 -0.20019196)
(1.2472621 -0.0073221958 -0.19543634)
(1.3248267 -0.0086282211 -0.18213462)
(0.076023166 -0.00092978062 -0.01731847)
(0.24083013 -0.0012738826 -0.055741595)
(0.43840444 -0.0017810836 -0.099410059)
(0.65714366 -0.0017248656 -0.14415627)
(0.87816053 -0.001957181 -0.18180004)
(1.07691 -0.0030116578 -0.20478697)
(1.230687 -0.0043928097 -0.20902142)
(1.3337191 -0.0057329216 -0.1979648)
(1.3989271 -0.0064552694 -0.17779587)
(0.090084614 -0.00098753587 -0.019266112)
(0.28119471 -0.0011470411 -0.061905586)
(0.50422106 -0.0014344085 -0.10941448)
(0.74281024 -0.0011597048 -0.15678563)
(0.97427535 -0.0013095266 -0.19486937)
(1.1729223 -0.0024825475 -0.21566905)
(1.3185134 -0.0041261511 -0.21617449)
(1.4091578 -0.0053486369 -0.2008268)
(1.4639557 -0.0062509324 -0.17773328)
(0.10460231 -0.0011428277 -0.021127981)
(0.3219931 -0.0012760377 -0.067719629)
(0.5693278 -0.0013786453 -0.11862075)
(0.82556471 -0.00083257879 -0.16802207)
(1.0648539 -0.00079653433 -0.20608778)
(1.2616081 -0.0019221111 -0.22459611)
(1.3987536 -0.0036457236 -0.22188233)
(1.4781181 -0.0046818601 -0.20334721)
(1.5232732 -0.0053592721 -0.17827168)
(0.11882722 -0.0011408654 -0.022707692)
(0.36143789 -0.0010762903 -0.07273333)
(0.63144024 -0.00090446214 -0.12649507)
(0.90334533 -0.00010595877 -0.177493)
(1.148767 6.2608461e-05 -0.2153928)
(1.3428818 -0.00098798861 -0.23179089)
(1.4716993 -0.0026413806 -0.22625174)
(1.5410239 -0.0034746809 -0.20529617)
(1.5773013 -0.0039169771 -0.17876805)
(0.13245987 -0.0010989621 -0.024014427)
(0.39876482 -0.00090031512 -0.076952961)
(0.68950711 -0.00051104776 -0.13310707)
(0.9751251 0.00047676198 -0.18537965)
(1.2253409 0.00076595507 -0.22306347)
(1.4165425 -0.00014621914 -0.2375857)
(1.5375281 -0.0016097782 -0.2296058)
(1.5979606 -0.0022347323 -0.20676642)
(1.6262114 -0.0024543712 -0.17910621)
(0.14522768 -0.0010195479 -0.02513405)
(0.43329529 -0.00072231245 -0.080570312)
(0.74261345 -0.00016818608 -0.1387112)
(1.0400495 0.00094346979 -0.19195344)
(1.2939331 0.0013206346 -0.22934285)
(1.4822071 0.00056362231 -0.24216873)
(1.596102 -0.0006638083 -0.23207373)
(1.648724 -0.0011133786 -0.20774868)
(1.6698228 -0.00114722 -0.17918862)
(0.15648623 -0.00090395697 -0.026046185)
(0.46352876 -0.00056039523 -0.083554885)
(0.78882652 7.3137765e-05 -0.14331619)
(1.0962466 0.0012005434 -0.19730665)
(1.3531151 0.0016090622 -0.23439022)
(1.5388963 0.0010072726 -0.24572775)
(1.6467959 3.2709037e-05 -0.23383378)
(1.6927413 -0.00025587361 -0.2083036)
(1.7076223 -0.00014053211 -0.17899907)
(0.1658515 -0.00073899563 -0.026753212)
(0.48855351 -0.00038580835 -0.085908295)
(0.82692912 0.00024047217 -0.14694739)
(1.1424514 0.0012642219 -0.20151012)
(1.4018071 0.0016367884 -0.23830222)
(1.5856989 0.0011709108 -0.24837684)
(1.6888305 0.00043489839 -0.23499319)
(1.7292713 0.00027903587 -0.20848153)
(1.7389587 0.00048320244 -0.17857988)
(0.17310089 -0.00054569919 -0.027265483)
(0.50785677 -0.00025339951 -0.087643976)
(0.85623292 0.00025908458 -0.14963358)
(1.1779069 0.0010608833 -0.2046143)
(1.4392217 0.0013483503 -0.2411437)
(1.6217752 0.0010179409 -0.25020342)
(1.7213441 0.00051558998 -0.23565018)
(1.7575147 0.00046426576 -0.20837504)
(1.7631764 0.0006929528 -0.17804867)
(0.17826414 -0.00036477028 -0.027637954)
(0.52142112 -0.00021857948 -0.088868728)
(0.8765825 9.4092627e-05 -0.15148672)
(1.2022747 0.00060490333 -0.20670881)
(1.464805 0.00080343554 -0.24298513)
(1.646377 0.00063031121 -0.25129526)
(1.7434997 0.0003607354 -0.23591941)
(1.7767187 0.00037470951 -0.20812074)
(1.7796388 0.00056084783 -0.17754726)
(0.18068331 -0.00010449797 -0.027804609)
(0.52787452 -1.7395219e-06 -0.089448828)
(0.88639434 0.0001460342 -0.15237666)
(1.2141717 0.00034302767 -0.2077228)
(1.4774405 0.00040584066 -0.24387556)
(1.6586489 0.00032379761 -0.25180559)
(1.7546261 0.00020482583 -0.23600793)
(1.7863809 0.00018794853 -0.20793574)
(1.7879384 0.00023605886 -0.17725446)
(0.18068331 0.00010449934 -0.027804607)
(0.52787453 1.7272354e-06 -0.089448813)
(0.88639436 -0.00014610335 -0.15237663)
(1.2141717 -0.00034313392 -0.20772278)
(1.4774405 -0.00040603958 -0.24387554)
(1.6586489 -0.00032409324 -0.25180557)
(1.7546262 -0.00020519622 -0.23600793)
(1.7863809 -0.00018834914 -0.20793577)
(1.7879385 -0.00023637847 -0.17725453)
(0.17826414 0.0003647796 -0.027637967)
(0.52142113 0.00021857064 -0.08886871)
(0.87658251 -9.4133549e-05 -0.1514867)
(1.2022747 -0.00060495075 -0.20670877)
(1.4648049 -0.00080357761 -0.24298506)
(1.646377 -0.0006305379 -0.25129522)
(1.7434997 -0.00036104697 -0.23591939)
(1.7767187 -0.00037507866 -0.20812077)
(1.7796388 -0.00056126176 -0.17754738)
(0.17310088 0.00054570713 -0.027265533)
(0.50785675 0.00025339796 -0.087643975)
(0.8562329 -0.00025911186 -0.14963367)
(1.1779069 -0.0010609155 -0.20461434)
(1.4392216 -0.0013484604 -0.24114366)
(1.6217752 -0.0010181231 -0.25020339)
(1.7213441 -0.00051586972 -0.23565013)
(1.7575147 -0.00046461251 -0.20837499)
(1.7631763 -0.00069343068 -0.17804873)
(0.1658515 0.00073901986 -0.026753267)
(0.48855349 0.00038586551 -0.085908309)
(0.82692909 -0.00024044505 -0.14694756)
(1.1424514 -0.0012642748 -0.20151023)
(1.401807 -0.0016369239 -0.23830223)
(1.5856989 -0.0011711362 -0.2483768)
(1.6888304 -0.00043521334 -0.23499307)
(1.7292712 -0.00027938702 -0.20848137)
(1.7389586 -0.00048362781 -0.17857982)
(0.15648622 0.00090397746 -0.026046161)
(0.46352873 0.00056043187 -0.083554842)
(0.78882648 -7.312567e-05 -0.1433162)
(1.0962465 -0.0012006559 -0.19730661)
(1.353115 -0.0016092588 -0.23439017)
(1.5388962 -0.0010075521 -0.24572764)
(1.6467958 -3.302799e-05 -0.23383362)
(1.6927412 0.00025553839 -0.20830339)
(1.7076222 0.00014020973 -0.17899892)
(0.14522767 0.0010195614 -0.025133956)
(0.43329526 0.00072227591 -0.080570238)
(0.74261339 0.00016812291 -0.13871101)
(1.0400494 -0.00094361372 -0.19195332)
(1.293933 -0.001320861 -0.22934282)
(1.4822069 -0.00056386394 -0.24216865)
(1.5961019 0.00066356702 -0.23207359)
(1.6487239 0.0011131058 -0.20774846)
(1.6698226 0.0011469262 -0.17918837)
(0.13245985 0.0010989688 -0.024014415)
(0.39876478 0.00090032105 -0.07695288)
(0.68950704 0.00051100831 -0.13310697)
(0.97512502 -0.00047681702 -0.18537966)
(1.2253408 -0.00076605302 -0.22306354)
(1.4165423 0.00014613614 -0.23758572)
(1.537528 0.0016096434 -0.22960565)
(1.5979605 0.002234524 -0.20676611)
(1.6262112 0.0024540499 -0.1791058)
(0.11882721 0.0011408748 -0.022707658)
(0.36143787 0.0010762761 -0.072733296)
(0.63144021 0.00090444565 -0.12649507)
(0.90334528 0.00010594959 -0.17749304)
(1.1487669 -6.2603952e-05 -0.21539289)
(1.3428817 0.0009879688 -0.23179085)
(1.4716992 0.0026413665 -0.22625149)
(1.5410238 0.0034744804 -0.20529571)
(1.5773012 0.0039166426 -0.17876754)
(0.1046023 0.0011428302 -0.021127971)
(0.32199309 0.0012759847 -0.067719705)
(0.56932777 0.0013786176 -0.11862079)
(0.82556466 0.00083250173 -0.1680221)
(1.0648539 0.00079647336 -0.2060878)
(1.261608 0.0019220916 -0.22459603)
(1.3987534 0.0036458352 -0.22188201)
(1.4781181 0.0046816456 -0.20334653)
(1.5232731 0.0053589991 -0.17827124)
(0.090084619 0.00098754669 -0.019266135)
(0.28119472 0.0011470421 -0.061905659)
(0.50422108 0.0014344538 -0.10941448)
(0.74281027 0.0011597109 -0.15678563)
(0.97427538 0.0013094737 -0.19486941)
(1.1729223 0.0024825426 -0.21566908)
(1.3185133 0.0041262486 -0.21617392)
(1.4091578 0.0053487772 -0.20082612)
(1.4639557 0.0062509634 -0.17773335)
(0.076023181 0.00092978143 -0.01731847)
(0.24083017 0.001273861 -0.055741592)
(0.43840451 0.0017811029 -0.099409988)
(0.65714377 0.0017249061 -0.14415622)
(0.87816064 0.0019571782 -0.1818)
(1.0769101 0.0030115532 -0.20478667)
(1.2306871 0.004392693 -0.20902085)
(1.3337191 0.0057333929 -0.19796473)
(1.398927 0.0064555215 -0.17779587)
(0.062328901 0.00051204767 -0.014772895)
(0.20064682 0.00048602302 -0.047879164)
(0.37131829 0.0007889443 -0.086566621)
(0.56730357 0.00085408715 -0.12774936)
(0.77399433 0.0014343257 -0.16472222)
(0.96972528 0.0029431943 -0.19052424)
(1.130775 0.0049192018 -0.20019208)
(1.2472622 0.0073223518 -0.19543637)
(1.3248267 0.008628286 -0.18213429)
(0.039194575 0.0014978267 0.0011166789)
(0.14004321 0.0034721319 0.0016037388)
(0.28577992 0.0037760259 -0.002195564)
(0.48037998 0.00045527955 -0.013119836)
(0.71283466 -0.0079296578 -0.032130798)
(0.95507499 -0.020857165 -0.055676081)
(1.1721874 -0.035773625 -0.077096522)
(1.3380734 -0.048875956 -0.090151784)
(1.441023 -0.057521096 -0.093844331)
(0.044865362 0.0013712486 0.00077061008)
(0.16052311 0.0026517655 0.000181337)
(0.32712109 0.0016240962 -0.0057718401)
(0.54638821 -0.0037187335 -0.020020152)
(0.79979186 -0.014321474 -0.04266992)
(1.0505798 -0.028637492 -0.068142032)
(1.2611466 -0.043406238 -0.08837108)
(1.4121404 -0.055090365 -0.098246604)
(1.5016835 -0.061587341 -0.097830421)
(0.050222246 0.0015860746 0.00067025105)
(0.17994971 0.002865701 -0.00049251726)
(0.36634217 0.0012974463 -0.0080131518)
(0.60851953 -0.0051580503 -0.024753379)
(0.88010371 -0.016865348 -0.049770798)
(1.1357133 -0.031367452 -0.075922222)
(1.3368733 -0.045038893 -0.094339008)
(1.4730282 -0.055163869 -0.10166879)
(1.5515579 -0.060208419 -0.098721349)
(0.055763868 0.0016761828 0.0004566369)
(0.19969188 0.0028593944 -0.0014082224)
(0.40557013 0.00088228401 -0.010510304)
(0.66961347 -0.0062338507 -0.029490922)
(0.95760768 -0.018315911 -0.056172764)
(1.2161727 -0.032290021 -0.082263813)
(1.4072763 -0.044442231 -0.098576418)
(1.5292439 -0.05293798 -0.10372757)
(1.5973968 -0.056919546 -0.099050635)
(0.061087103 0.0017189545 0.00022930641)
(0.218657 0.0028295247 -0.0022869526)
(0.44318118 0.00063542077 -0.012780946)
(0.72791114 -0.0067110163 -0.033625042)
(1.0308997 -0.018592809 -0.061383357)
(1.2918383 -0.031604018 -0.087240896)
(1.4736707 -0.042152314 -0.10170843)
(1.5824239 -0.049071067 -0.10513509)
(1.6405852 -0.052139418 -0.099458422)
(0.066184308 0.0017041575 -1.6444257e-05)
(0.23671557 0.0027564917 -0.0031424462)
(0.47877916 0.00052037429 -0.014822124)
(0.78267633 -0.0066564152 -0.037108949)
(1.0991879 -0.017824759 -0.065461347)
(1.3620953 -0.029516355 -0.090889516)
(1.535823 -0.038430662 -0.10393742)
(1.632761 -0.043933546 -0.10614037)
(1.6815628 -0.046256089 -0.10013463)
(0.0711233 0.0016006341 -0.00026912908)
(0.25391695 0.0025419753 -0.0039658081)
(0.51219409 0.00037664291 -0.016667067)
(0.83338811 -0.0063039912 -0.040085976)
(1.1618036 -0.016347049 -0.068731255)
(1.4261705 -0.026467528 -0.09353782)
(1.5929763 -0.033772123 -0.10556419)
(1.6797646 -0.038068941 -0.10689077)
(1.7202623 -0.039854366 -0.10098358)
(0.075533889 0.0014232168 -0.00050699677)
(0.26924385 0.0022271935 -0.0046992715)
(0.54188289 0.00025545712 -0.0182242)
(0.87828592 -0.0056403321 -0.042482709)
(1.2170595 -0.01425243 -0.071198294)
(1.4827314 -0.022677663 -0.095368153)
(1.6439005 -0.028494192 -0.10663651)
(1.7224062 -0.031841512 -0.10736371)
(1.7559274 -0.033273528 -0.10161895)
(0.079239271 0.0011760235 -0.00071664286)
(0.28213949 0.0018152508 -0.0053161404)
(0.56688598 0.00014459329 -0.019466616)
(0.91610663 -0.0047233621 -0.044293222)
(1.2635621 -0.011677487 -0.072923136)
(1.5304129 -0.018341733 -0.096454245)
(1.6871803 -0.022816582 -0.1070154)
(1.7593294 -0.025384085 -0.10738722)
(1.7872133 -0.026476977 -0.10146662)
(0.08214894 0.00088044815 -0.00088391109)
(0.29229948 0.0013460714 -0.0057897025)
(0.58661033 7.0881215e-05 -0.020375043)
(0.94592605 -0.0035716708 -0.045538647)
(1.3001244 -0.0086889552 -0.073991511)
(1.5679003 -0.013529948 -0.096934976)
(1.7213478 -0.016753904 -0.10680785)
(1.7888814 -0.018596731 -0.10681132)
(1.8123598 -0.019321754 -0.10022172)
(0.084471771 0.00054592471 -0.0010024707)
(0.30007721 0.00082945269 -0.0061177279)
(0.60120797 2.6441357e-05 -0.020979666)
(0.96738172 -0.0022287504 -0.046307621)
(1.3258518 -0.0053583924 -0.074562107)
(1.5939548 -0.0082992357 -0.097019938)
(1.7450126 -0.010263666 -0.1063935)
(1.809414 -0.011379296 -0.10590057)
(1.8298663 -0.01176317 -0.098884738)
(0.085433166 0.00016658105 -0.001059781)
(0.3035185 0.00022801182 -0.00627036)
(0.60799053 -6.7099814e-05 -0.021248255)
(0.97772521 -0.00084037892 -0.046632661)
(1.3385575 -0.0018923689 -0.074764714)
(1.607008 -0.0028655452 -0.096953095)
(1.7569677 -0.0035036122 -0.10604623)
(1.8198488 -0.003852985 -0.10524575)
(1.8387758 -0.0039531414 -0.098056546)
(0.085433165 -0.0001665599 -0.0010597809)
(0.30351849 -0.00022798233 -0.006270356)
(0.60799053 6.7100026e-05 -0.021248248)
(0.97772521 0.0008403082 -0.046632662)
(1.3385575 0.0018921669 -0.074764705)
(1.607008 0.002865202 -0.09695308)
(1.7569677 0.0035031766 -0.10604622)
(1.8198488 0.0038525197 -0.10524575)
(1.8387757 0.0039527729 -0.09805657)
(0.084471768 -0.00054590104 -0.0010024768)
(0.3000772 -0.00082941733 -0.0061177334)
(0.60120794 -2.6421219e-05 -0.020979673)
(0.96738166 0.0022287121 -0.046307628)
(1.3258517 0.0053582278 -0.074562084)
(1.5939547 0.0082989442 -0.097019898)
(1.7450126 0.010263286 -0.10639345)
(1.8094139 0.011378862 -0.10590054)
(1.8298662 0.011762763 -0.09888477)
(0.082148929 -0.00088042411 -0.00088392981)
(0.29229945 -0.0013460385 -0.0057897343)
(0.58661026 -7.0859994e-05 -0.020375103)
(0.94592593 0.0035716415 -0.045538691)
(1.3001243 0.0086888151 -0.073991504)
(1.5679002 0.013529698 -0.096934931)
(1.7213477 0.016753571 -0.10680776)
(1.7888812 0.018596333 -0.1068112)
(1.8123596 0.019321322 -0.1002217)
(0.079239257 -0.0011759958 -0.0007166659)
(0.28213945 -0.0018152062 -0.0053161812)
(0.5668859 -0.00014456394 -0.019466714)
(0.9161065 0.0047233244 -0.044293307)
(1.263562 0.011677344 -0.072923155)
(1.5304128 0.018341482 -0.096454186)
(1.6871801 0.022816255 -0.10701525)
(1.7593291 0.025383717 -0.10738702)
(1.787213 0.026476576 -0.10146653)
(0.07553387 -0.0014231848 -0.00050700146)
(0.26924379 -0.0022271393 -0.0046993035)
(0.5418828 -0.00025541743 -0.01822426)
(0.87828577 0.0056402868 -0.042482766)
(1.2170593 0.014252282 -0.071198291)
(1.4827312 0.022677414 -0.095368057)
(1.6439003 0.028493881 -0.10663631)
(1.7224059 0.031841187 -0.10736343)
(1.7559271 0.03327318 -0.10161879)
(0.071123281 -0.0016006004 -0.0002691143)
(0.25391689 -0.002541929 -0.003965828)
(0.51219397 -0.00037659893 -0.016667056)
(0.83338794 0.0063039668 -0.040085997)
(1.1618034 0.016346934 -0.068731248)
(1.4261702 0.02646734 -0.093537714)
(1.592976 0.033771881 -0.10556396)
(1.6797643 0.038068677 -0.10689042)
(1.720262 0.039854039 -0.10098329)
(0.066184294 -0.0017041216 -1.6443709e-05)
(0.23671552 -0.0027564385 -0.0031424784)
(0.47877908 -0.00052031249 -0.014822144)
(0.78267621 0.0066564459 -0.03710901)
(1.0991877 0.017824739 -0.06546137)
(1.3620951 0.029516277 -0.090889414)
(1.5358228 0.038430521 -0.10393715)
(1.6327607 0.043933351 -0.10613991)
(1.6815625 0.046255786 -0.10013418)
(0.061087097 -0.0017189156 0.00022929614)
(0.21865698 -0.002829471 -0.0022870291)
(0.44318114 -0.00063533327 -0.012781025)
(0.72791108 0.0067110902 -0.033625138)
(1.0308996 0.018592864 -0.061383393)
(1.2918381 0.03160404 -0.087240756)
(1.4736705 0.042152285 -0.10170809)
(1.5824238 0.049070943 -0.10513452)
(1.640585 0.052139211 -0.099457896)
(0.055763873 -0.0016761539 0.00045661595)
(0.19969188 -0.0028593704 -0.0014083331)
(0.40557013 -0.00088221912 -0.010510408)
(0.66961345 0.0062339084 -0.029491015)
(0.95760763 0.018315971 -0.056172771)
(1.2161726 0.03229012 -0.082263658)
(1.4072762 0.04444236 -0.098576046)
(1.5292439 0.052938015 -0.103727)
(1.5973968 0.056919487 -0.099050161)
(0.050222259 -0.0015860512 0.00067022936)
(0.17994974 -0.002865681 -0.00049260047)
(0.36634222 -0.001297378 -0.0080132088)
(0.60851959 0.0051581314 -0.024753427)
(0.88010378 0.016865435 -0.049770821)
(1.1357134 0.031367616 -0.075922167)
(1.3368734 0.045039198 -0.094338726)
(1.4730283 0.055164205 -0.10166832)
(1.551558 0.060208406 -0.09872087)
(0.044865388 -0.0013712414 0.00077060528)
(0.16052318 -0.002651776 0.00018131582)
(0.32712122 -0.0016240793 -0.0057718428)
(0.5463884 0.0037187762 -0.02002018)
(0.79979206 0.014321537 -0.042669982)
(1.0505799 0.028637588 -0.068142052)
(1.2611468 0.043406478 -0.088370922)
(1.4121407 0.055090828 -0.098246027)
(1.5016836 0.061587422 -0.09782976)
(0.039194611 -0.0014978281 0.0011166841)
(0.14004331 -0.0034721467 0.001603747)
(0.2857801 -0.0037760487 -0.002195567)
(0.48038023 -0.00045531307 -0.01311986)
(0.71283493 0.007929635 -0.032130781)
(0.9550753 0.020857174 -0.055676019)
(1.1721877 0.035773777 -0.077096409)
(1.3380737 0.048876291 -0.090151083)
(1.4410233 0.057521176 -0.09384361)
(0.029072014 0.00037532149 0.00028051705)
(0.10827712 0.00084087864 0.00036804291)
(0.2303864 0.00072072308 -0.00082130804)
(0.40535138 -0.0010478747 -0.0045311911)
(0.6314436 -0.0061933261 -0.012135277)
(0.88560979 -0.016141066 -0.024023664)
(1.1248237 -0.030028649 -0.038224274)
(1.3104672 -0.043395866 -0.049403084)
(1.424972 -0.052614151 -0.054654936)
(0.031161729 1.8235548e-07 -7.8165502e-05)
(0.11772595 -0.00033820364 -0.00075341486)
(0.25293437 -0.0014008125 -0.0029333605)
(0.44686164 -0.0042550674 -0.0079410401)
(0.6939589 -0.010698463 -0.017138708)
(0.96292855 -0.021968419 -0.030558301)
(1.203436 -0.036484881 -0.045130108)
(1.378147 -0.049250233 -0.055038956)
(1.480648 -0.056821308 -0.058188949)
(0.032655658 -0.00022500277 -0.00025217468)
(0.12519935 -0.0010776149 -0.0013417178)
(0.27169738 -0.0027618359 -0.0041441036)
(0.48222753 -0.0063130024 -0.010025516)
(0.74734942 -0.013475823 -0.020255501)
(1.0276674 -0.025169167 -0.034469272)
(1.2666909 -0.039232573 -0.048703603)
(1.43066 -0.050771289 -0.057154546)
(1.523836 -0.056945381 -0.058394754)
(0.03419482 -0.00045341734 -0.00038723137)
(0.1325844 -0.001792459 -0.0017926596)
(0.28983789 -0.0040097532 -0.0050974615)
(0.51587676 -0.008087708 -0.011699668)
(0.79739983 -0.015696363 -0.022729227)
(1.0874045 -0.027447334 -0.037399123)
(1.3239857 -0.040657159 -0.0509379)
(1.4777312 -0.050738215 -0.057772162)
(1.5622578 -0.055621222 -0.057376111)
(0.035598361 -0.00059800161 -0.00043924359)
(0.1394338 -0.0022652788 -0.0019936527)
(0.30680045 -0.0048546276 -0.0056258518)
(0.54748958 -0.0092870825 -0.012780631)
(0.8445313 -0.017113221 -0.024492989)
(1.1435075 -0.028657962 -0.039301847)
(1.3776842 -0.040793127 -0.051991134)
(1.5219905 -0.049358605 -0.057286702)
(1.5981479 -0.052998792 -0.05558271)
(0.036997998 -0.00067379117 -0.00043783465)
(0.14607302 -0.0025232012 -0.0020249569)
(0.32302625 -0.0053179948 -0.005854345)
(0.57758022 -0.0099053648 -0.013421774)
(0.88933035 -0.017668879 -0.025639746)
(1.1964833 -0.02863618 -0.040281511)
(1.4284452 -0.039497053 -0.05189667)
(1.5642129 -0.046565507 -0.055761899)
(1.6323406 -0.04910973 -0.05293334)
(0.038535886 -0.00070337056 -0.00041263222)
(0.15282505 -0.0026185766 -0.0019695278)
(0.33886731 -0.0054647771 -0.0058966661)
(0.60632862 -0.0099953001 -0.013724255)
(0.93167645 -0.017382557 -0.026190964)
(1.246164 -0.027387852 -0.040467865)
(1.4759898 -0.036787721 -0.050767921)
(1.6040865 -0.042394091 -0.053312077)
(1.6646013 -0.043989561 -0.049488795)
(0.039969788 -0.00067704573 -0.00036729769)
(0.15901323 -0.0025207016 -0.0018388668)
(0.3532559 -0.0052404376 -0.0057651825)
(0.63237019 -0.0094750819 -0.013690524)
(0.97002293 -0.016153027 -0.026168747)
(1.2911143 -0.024841824 -0.039878927)
(1.5191169 -0.032625671 -0.04879507)
(1.640561 -0.036850195 -0.050166974)
(1.6941126 -0.037665594 -0.045625525)
(0.041207234 -0.00059690977 -0.00031291282)
(0.16432774 -0.0022277845 -0.0016679915)
(0.36561479 -0.0046279635 -0.0055206059)
(0.65486789 -0.0083048176 -0.013424834)
(1.0031018 -0.013932991 -0.02572963)
(1.3299296 -0.020994662 -0.03879267)
(1.5564531 -0.027042968 -0.046493956)
(1.6722687 -0.030032591 -0.046814515)
(1.7198188 -0.030330691 -0.042070033)
(0.042215297 -0.00046619348 -0.00025890651)
(0.16863104 -0.0017469475 -0.0014907471)
(0.37558907 -0.0036343522 -0.0052337628)
(0.67302556 -0.0064937934 -0.013043661)
(1.0297321 -0.010767399 -0.025097457)
(1.3610935 -0.015964612 -0.037539217)
(1.5864181 -0.02022907 -0.044316808)
(1.6977441 -0.022178775 -0.043910905)
(1.7406026 -0.022220734 -0.03953572)
(0.043164642 -0.00029821245 -0.00021768729)
(0.17225754 -0.0011186963 -0.0013522413)
(0.38340543 -0.0023291786 -0.004998641)
(0.68657784 -0.004148421 -0.012707351)
(1.0489718 -0.00681865 -0.024527122)
(1.3831577 -0.0099889915 -0.036477484)
(1.6073893 -0.012504863 -0.042574233)
(1.7155541 -0.013596263 -0.041876336)
(1.755134 -0.013571239 -0.037733526)
(0.043480555 -0.00010536811 -0.00019575052)
(0.17368362 -0.0003925086 -0.0012764968)
(0.3868145 -0.00081018084 -0.0048629101)
(0.69292334 -0.0014319166 -0.01250346)
(1.0583679 -0.0023384301 -0.024186986)
(1.3941751 -0.0034039766 -0.035879639)
(1.61798 -0.0042355318 -0.041640972)
(1.724619 -0.0045859905 -0.040835778)
(1.7625435 -0.004567687 -0.036775199)
(0.043480553 0.0001053858 -0.00019575133)
(0.17368361 0.00039252985 -0.0012765014)
(0.38681449 0.00081018429 -0.0048629182)
(0.69292332 0.0014318518 -0.012503467)
(1.0583678 0.0023382342 -0.024186982)
(1.394175 0.0034036445 -0.035879621)
(1.61798 0.0042351085 -0.041640943)
(1.7246189 0.0045855499 -0.040835741)
(1.7625435 0.004567326 -0.036775171)
(0.043164637 0.0002982319 -0.00021768948)
(0.17225753 0.0011187251 -0.0013522538)
(0.3834054 0.0023291968 -0.0049986616)
(0.68657779 0.0041483737 -0.012707366)
(1.0489717 0.0068184739 -0.024527108)
(1.3831576 0.0099886818 -0.036477433)
(1.6073892 0.012504462 -0.042574143)
(1.7155539 0.013595838 -0.041876219)
(1.7551338 0.013570883 -0.037733432)
(0.042215288 0.00046621568 -0.00025891039)
(0.16863101 0.0017469842 -0.0014907802)
(0.37558901 0.0036343868 -0.0052338)
(0.67302547 0.0064937685 -0.013043687)
(1.029732 0.010767254 -0.02509744)
(1.3610933 0.015964338 -0.037539135)
(1.5864178 0.020228703 -0.044316651)
(1.6977437 0.022178378 -0.04391069)
(1.7406022 0.02222039 -0.039535533)
(0.041207224 0.00059693823 -0.00031291839)
(0.16432771 0.0022278305 -0.0016680461)
(0.36561474 0.0046280152 -0.0055206585)
(0.6548678 0.0083048188 -0.013424877)
(1.0031016 0.013932884 -0.025729614)
(1.3299294 0.020994427 -0.038792554)
(1.5564528 0.027042643 -0.046493723)
(1.6722683 0.030032237 -0.046814179)
(1.7198184 0.030330377 -0.042069732)
(0.039969778 0.00067708064 -0.00036730643)
(0.1590132 0.0025207571 -0.0018389336)
(0.35325585 0.0052405063 -0.0057652474)
(0.6323701 0.0094751114 -0.013690585)
(0.97002278 0.01615296 -0.026168728)
(1.2911141 0.02484164 -0.039878774)
(1.5191166 0.032625406 -0.048794764)
(1.6405606 0.036849912 -0.05016652)
(1.6941121 0.037665329 -0.045625099)
(0.038535874 0.0007034135 -0.0004126488)
(0.15282501 0.0026186512 -0.0019696077)
(0.33886724 0.0054648763 -0.005896755)
(0.60632851 0.0099953707 -0.013724344)
(0.93167628 0.017382544 -0.026190951)
(1.2461638 0.027387739 -0.040467695)
(1.4759895 0.036787543 -0.050767566)
(1.6040861 0.042393909 -0.053311524)
(1.6646008 0.043989354 -0.049488265)
(0.03699799 0.00067384196 -0.00043785361)
(0.14607299 0.0025232888 -0.0020250496)
(0.3230262 0.0053181194 -0.0058544527)
(0.57758015 0.0099054746 -0.013421877)
(0.88933025 0.017668926 -0.025639742)
(1.1964832 0.028636145 -0.04028134)
(1.428445 0.039496966 -0.051896291)
(1.5642126 0.046565432 -0.055761266)
(1.6323402 0.049109584 -0.052932733)
(0.035598358 0.00059805492 -0.00043927011)
(0.13943379 0.0022653655 -0.0019937657)
(0.30680043 0.0048547672 -0.0056259731)
(0.54748955 0.0092872218 -0.01278075)
(0.84453125 0.017113323 -0.024493006)
(1.1435073 0.028658006 -0.039301691)
(1.377684 0.040793124 -0.051990756)
(1.5219902 0.049358602 -0.057286004)
(1.5981476 0.052998707 -0.055582047)
(0.034194819 0.00045346867 -0.00038725967)
(0.1325844 0.0017925391 -0.0017927739)
(0.28983788 0.0040098916 -0.0050975931)
(0.51587674 0.0080878612 -0.011699805)
(0.79739979 0.015696502 -0.022729273)
(1.0874044 0.027447451 -0.037398998)
(1.3239856 0.040657231 -0.050937512)
(1.4777311 0.050738233 -0.057771394)
(1.5622577 0.055621174 -0.057375393)
(0.032655661 0.00022504499 -0.0002522014)
(0.12519936 0.0010776755 -0.0013418198)
(0.27169739 0.0027619459 -0.0041442265)
(0.48222754 0.0063131293 -0.010025652)
(0.74734943 0.013475947 -0.020255569)
(1.0276674 0.025169313 -0.034469165)
(1.2666909 0.039232728 -0.048703174)
(1.4306599 0.050771365 -0.057153727)
(1.5238359 0.056945303 -0.058393975)
(0.03116174 -1.5967976e-07 -7.8182201e-05)
(0.11772598 0.00033822244 -0.00075347652)
(0.25293443 0.0014008467 -0.0029334341)
(0.44686171 0.0042550937 -0.0079411202)
(0.69395897 0.010698472 -0.017138732)
(0.96292861 0.021968449 -0.030558151)
(1.2034361 0.036485006 -0.04512962)
(1.3781471 0.049250449 -0.05503808)
(1.4806481 0.056821368 -0.05818824)
(0.029072037 -0.00037531823 0.00028051541)
(0.10827719 -0.00084088098 0.00036803376)
(0.2303865 -0.00072073139 -0.00082132436)
(0.40535151 0.0010478455 -0.0045311958)
(0.63144372 0.0061932733 -0.012135209)
(0.88560992 0.016141021 -0.024023445)
(1.1248238 0.030028664 -0.038223802)
(1.3104674 0.043395989 -0.049402166)
(1.4249723 0.052614237 -0.054654495)
(0.034172016 6.1908054e-05 7.8102396e-05)
(0.12380238 -0.00014371714 1.6751392e-05)
(0.25672044 -0.0010959385 -0.00044188141)
(0.44021092 -0.0034287831 -0.0017369251)
(0.67008623 -0.0078994373 -0.0046275861)
(0.92410642 -0.014935523 -0.0098541813)
(1.1632053 -0.023612123 -0.016380146)
(1.3511598 -0.032313601 -0.022655517)
(1.4668435 -0.03919691 -0.026952801)
(0.036504443 5.8892197e-06 2.5615921e-05)
(0.13356346 -0.00041300773 -0.00016630739)
(0.27876454 -0.0017864884 -0.0008527535)
(0.47889503 -0.0048748217 -0.0025851448)
(0.72606944 -0.010527106 -0.006264763)
(0.99136879 -0.019020627 -0.01259923)
(1.2297375 -0.028791453 -0.020073072)
(1.4062721 -0.037490679 -0.026452184)
(1.5105639 -0.043404822 -0.030174728)
(0.038157509 2.8107395e-05 3.674164e-05)
(0.14102048 -0.00045202102 -0.00016666915)
(0.29630131 -0.0020740289 -0.00095537779)
(0.51021866 -0.0056908187 -0.0029754717)
(0.77138192 -0.012156924 -0.007239623)
(1.0446409 -0.021542933 -0.014416454)
(1.280058 -0.031728156 -0.022512883)
(1.4455742 -0.039968483 -0.028838984)
(1.5410324 -0.044951745 -0.031927907)
(0.039795736 8.6078893e-07 9.5395884e-06)
(0.1481563 -0.00060372223 -0.00026325106)
(0.31273066 -0.0024828233 -0.0011946304)
(0.5390787 -0.0065468695 -0.0035094872)
(0.81253394 -0.013630236 -0.0083385143)
(1.0922941 -0.02350873 -0.016143976)
(1.3244909 -0.033615944 -0.02449214)
(1.4801483 -0.041154361 -0.030533717)
(1.5676849 -0.045202558 -0.032869135)
(0.041223417 -5.8306513e-05 -2.990543e-05)
(0.15451937 -0.00082808188 -0.00038599417)
(0.3275671 -0.0029678997 -0.0014564558)
(0.56536686 -0.0074216594 -0.0040363172)
(0.85033604 -0.014993072 -0.0093993786)
(1.1361983 -0.024940131 -0.017425762)
(1.3657857 -0.034588093 -0.025702794)
(1.5128236 -0.041221093 -0.03121446)
(1.5928042 -0.044232818 -0.032677873)
(0.04258174 -0.0001642275 -7.8891903e-05)
(0.16047678 -0.0011574704 -0.00051692173)
(0.34134166 -0.0035614157 -0.0016794715)
(0.58973052 -0.0083057374 -0.0044198485)
(0.88543459 -0.015955288 -0.0098634011)
(1.1771754 -0.025550964 -0.017751926)
(1.4047326 -0.034383345 -0.025620117)
(1.5441749 -0.039903871 -0.03036278)
(1.6168484 -0.04190776 -0.031018032)
(0.044022651 -0.00029210549 -0.00011558825)
(0.1663963 -0.0015175263 -0.00058941253)
(0.35453637 -0.0041214689 -0.0017359677)
(0.6126277 -0.008943085 -0.004406298)
(0.91788469 -0.016303803 -0.0095876928)
(1.2150886 -0.025166004 -0.017070255)
(1.4410531 -0.032888751 -0.024278223)
(1.5738482 -0.03722611 -0.028227827)
(1.6395933 -0.038304545 -0.028234238)
(0.045309622 -0.0003937632 -0.00012300027)
(0.17164331 -0.0017704747 -0.00056104127)
(0.3661938 -0.004427469 -0.0015808328)
(0.63286019 -0.0090191256 -0.0039481905)
(0.94664932 -0.015740979 -0.0086706418)
(1.2489543 -0.023523082 -0.015554665)
(1.4738368 -0.029922953 -0.02197559)
(1.600975 -0.033069269 -0.025184602)
(1.6603915 -0.033380295 -0.024795521)
(0.046362509 -0.00042915084 -0.00010023784)
(0.17595811 -0.0017905923 -0.00043316337)
(0.37583636 -0.0042518759 -0.0012160514)
(0.6496488 -0.0083099189 -0.0031694636)
(0.97086897 -0.014038025 -0.0073282955)
(1.2777707 -0.020429412 -0.013521151)
(1.5019931 -0.025381143 -0.019170218)
(1.6244732 -0.027453217 -0.021786665)
(1.678388 -0.027267443 -0.021333272)
(0.047179758 -0.00038463004 -5.9458055e-05)
(0.17932194 -0.0015423453 -0.00025602764)
(0.38337435 -0.0035448003 -0.00077129409)
(0.66280404 -0.0067426194 -0.0022910855)
(0.98995134 -0.011134564 -0.0058793042)
(1.300576 -0.015883146 -0.011407019)
(1.5243584 -0.019354805 -0.016407793)
(1.6431983 -0.020570793 -0.018657081)
(1.6926973 -0.02019272 -0.01841811)
(0.047971373 -0.00026711264 -1.8635738e-05)
(0.18220309 -0.0010457572 -9.0223401e-05)
(0.38930808 -0.0023574498 -0.00038049907)
(0.67257468 -0.0044081999 -0.0015468661)
(1.0036266 -0.0071725828 -0.0046782456)
(1.3165908 -0.010093444 -0.0096873655)
(1.5398946 -0.012130105 -0.014208906)
(1.6561381 -0.012735825 -0.01631031)
(1.7025501 -0.012411567 -0.016321203)
(0.04819884 -9.56972e-05 5.0913472e-06)
(0.18323202 -0.00037097035 4.4651028e-06)
(0.39173307 -0.00082947314 -0.00015892179)