/*--------------------------------*- C++ -*----------------------------------*\
| =========                 |                                                 |
| \\      /  F ield         | OpenFOAM: The Open Source CFD Toolbox           |
|  \\    /   O peration     | Version:  2406                                  |
|   \\  /    A nd           | Website:  www.openfoam.com                      |
|    \\/     M anipulation  |                                                 |
\*---------------------------------------------------------------------------*/
FoamFile
{
    version     2.0;
    format      ascii;
    arch        "LSB;label=32;scalar=64";
    class       volScalarField;
    location    "40";
    object      p;
}
// * * * * * * * * * * * * * * * * * * * * * * * * * * * * * * * * * * * * * //

dimensions      [0 2 -2 0 0 0 0];

internalField   nonuniform List<scalar> 
1176
(
0.79699976
0.79702264
0.7970463
0.79705397
0.79702244
0.79692774
0.79677051
0.79658434
0.79640514
0.79623799
0.79608337
0.79598776
0.79598776
0.79608337
0.796238
0.79640516
0.79658438
0.79677057
0.79692784
0.79702257
0.79705414
0.79704652
0.79702288
0.79700001
0.77385133
0.77380438
0.77375662
0.77373972
0.77380222
0.77400458
0.7743699
0.7748343
0.77526516
0.77555126
0.77567066
0.77570492
0.77570492
0.77567066
0.77555126
0.77526513
0.77483424
0.7743698
0.77400443
0.77380204
0.77373951
0.77375638
0.77380414
0.7738511
0.75676658
0.75678859
0.75680838
0.75680647
0.75674741
0.75658624
0.75631447
0.75598652
0.75568031
0.75546752
0.75535672
0.75530791
0.75530791
0.75535673
0.75546754
0.75568033
0.75598655
0.75631451
0.75658628
0.75674746
0.75680653
0.75680844
0.75678865
0.75676663
0.74009468
0.74010381
0.74011587
0.74013227
0.74015481
0.74017238
0.74014015
0.74000674
0.73977463
0.73950206
0.73927786
0.73915736
0.73915736
0.73927786
0.73950206
0.73977463
0.74000674
0.74014015
0.74017239
0.74015483
0.74013229
0.74011589
0.74010384
0.74009471
0.72367563
0.72367959
0.72368458
0.72369064
0.72370034
0.72372062
0.7237568
0.72379831
0.72381998
0.72379611
0.723734
0.72368137
0.72368137
0.723734
0.72379612
0.72381999
0.72379832
0.72375681
0.72372062
0.72370035
0.72369065
0.72368459
0.72367959
0.72367564
0.70721398
0.70721639
0.70721964
0.70722368
0.70722859
0.70723542
0.70724959
0.70728091
0.7073309
0.70738815
0.70743086
0.70744751
0.70744751
0.70743086
0.70738815
0.7073309
0.70728091
0.7072496
0.70723543
0.7072286
0.70722369
0.70721965
0.7072164
0.70721399
0.69080817
0.69081031
0.69081312
0.69081655
0.69082044
0.69082396
0.69082602
0.6908282
0.69083675
0.69085398
0.69087188
0.6908836
0.6908836
0.69087188
0.69085398
0.69083675
0.6908282
0.69082602
0.69082396
0.69082044
0.69081655
0.69081312
0.69081031
0.69080817
0.67442831
0.67443006
0.67443239
0.67443531
0.67443898
0.67444336
0.67444781
0.67445096
0.6744522
0.67445382
0.67445086
0.67444835
0.67444835
0.67445086
0.67445382
0.6744522
0.67445096
0.67444781
0.67444335
0.67443898
0.67443531
0.67443238
0.67443006
0.6744283
0.65807402
0.65807548
0.65807741
0.65807982
0.65808283
0.65808662
0.65809166
0.65809871
0.6581074
0.65811742
0.65812519
0.65812878
0.65812878
0.65812519
0.65811742
0.6581074
0.65809871
0.65809166
0.65808662
0.65808283
0.65807981
0.6580774
0.65807547
0.65807401
0.64173633
0.64173753
0.64173914
0.64174118
0.64174374
0.64174692
0.64175108
0.64175747
0.64176763
0.64178077
0.64179509
0.6418044
0.6418044
0.64179509
0.64178077
0.64176763
0.64175747
0.64175108
0.64174692
0.64174374
0.64174117
0.64173913
0.64173752
0.64173632
0.62541195
0.62541298
0.62541435
0.6254161
0.62541831
0.62542104
0.62542443
0.62542928
0.62543714
0.6254478
0.62546036
0.6254695
0.6254695
0.62546036
0.6254478
0.62543714
0.62542928
0.62542443
0.62542103
0.62541831
0.62541609
0.62541434
0.62541296
0.62541194
0.60909848
0.60909937
0.60910057
0.60910209
0.60910403
0.60910643
0.6091094
0.6091134
0.60911962
0.60912828
0.60913885
0.6091463
0.6091463
0.60913885
0.60912828
0.60911962
0.60911341
0.60910939
0.60910643
0.60910403
0.60910208
0.60910055
0.60909935
0.60909846
0.59279428
0.59279507
0.59279613
0.59279748
0.59279919
0.59280133
0.59280396
0.5928075
0.5928129
0.59282065
0.59283034
0.59283702
0.59283702
0.59283034
0.59282065
0.5928129
0.5928075
0.59280396
0.59280132
0.59279918
0.59279746
0.59279611
0.59279505
0.59279426
0.57649806
0.57649876
0.5764997
0.57650091
0.57650244
0.57650435
0.5765067
0.57650983
0.57651461
0.57652158
0.57653024
0.57653633
0.57653633
0.57653024
0.57652158
0.57651461
0.57650984
0.5765067
0.57650434
0.57650243
0.57650089
0.57649968
0.57649874
0.57649804
0.56020879
0.56020942
0.56021027
0.56021135
0.56021273
0.56021445
0.56021655
0.56021931
0.56022347
0.5602296
0.56023713
0.56024253
0.56024253
0.56023713
0.56022961
0.56022348
0.56021932
0.56021655
0.56021444
0.56021272
0.56021133
0.56021025
0.5602094
0.56020877
0.54392567
0.54392624
0.54392701
0.54392798
0.54392924
0.54393079
0.54393269
0.54393514
0.54393878
0.54394416
0.54395069
0.54395548
0.54395548
0.54395069
0.54394416
0.54393879
0.54393515
0.54393269
0.54393079
0.54392923
0.54392796
0.54392698
0.54392621
0.54392564
0.52764805
0.52764856
0.52764926
0.52765015
0.52765129
0.52765271
0.52765443
0.52765664
0.52765986
0.52766462
0.52767034
0.52767463
0.52767463
0.52767034
0.52766462
0.52765986
0.52765664
0.52765443
0.5276527
0.52765128
0.52765013
0.52764923
0.52764853
0.52764801
0.51137537
0.51137584
0.51137648
0.51137729
0.51137834
0.51137964
0.51138121
0.5113832
0.51138607
0.51139032
0.51139537
0.51139924
0.51139924
0.51139538
0.51139033
0.51138608
0.51138321
0.51138121
0.51137963
0.51137832
0.51137727
0.51137645
0.51137581
0.51137533
0.49510717
0.49510761
0.49510819
0.49510894
0.4951099
0.4951111
0.49511254
0.49511434
0.49511692
0.49512073
0.49512522
0.49512871
0.49512871
0.49512522
0.49512073
0.49511693
0.49511435
0.49511254
0.49511109
0.49510989
0.49510892
0.49510816
0.49510757
0.49510714
0.47884306
0.47884346
0.478844
0.47884469
0.47884558
0.47884668
0.478848
0.47884965
0.47885197
0.4788554
0.47885943
0.47886259
0.47886259
0.47885943
0.4788554
0.47885198
0.47884966
0.47884801
0.47884667
0.47884556
0.47884467
0.47884397
0.47884343
0.47884303
0.46258269
0.46258306
0.46258356
0.4625842
0.46258502
0.46258604
0.46258726
0.46258877
0.46259087
0.46259397
0.46259762
0.46260048
0.46260048
0.46259762
0.46259398
0.46259088
0.46258878
0.46258726
0.46258603
0.462585
0.46258417
0.46258353
0.46258303
0.46258265
0.44632576
0.4463261
0.44632656
0.44632715
0.44632792
0.44632886
0.44632999
0.44633138
0.4463333
0.44633611
0.44633943
0.44634204
0.44634204
0.44633943
0.44633612
0.44633331
0.44633139
0.44633
0.44632885
0.4463279
0.44632713
0.44632653
0.44632606
0.44632572
0.43007199
0.43007231
0.43007274
0.43007329
0.430074
0.43007488
0.43007593
0.43007721
0.43007896
0.43008153
0.43008457
0.43008695
0.43008695
0.43008457
0.43008154
0.43007897
0.43007722
0.43007593
0.43007487
0.43007398
0.43007326
0.43007271
0.43007227
0.43007195
0.41382116
0.41382146
0.41382185
0.41382237
0.41382303
0.41382385
0.41382482
0.41382601
0.41382762
0.41382997
0.41383276
0.41383494
0.41383494
0.41383276
0.41382998
0.41382763
0.41382602
0.41382483
0.41382384
0.41382301
0.41382234
0.41382182
0.41382142
0.41382112
0.39757304
0.39757332
0.39757369
0.39757417
0.39757479
0.39757555
0.39757646
0.39757756
0.39757904
0.39758121
0.39758378
0.39758578
0.39758578
0.39758378
0.39758121
0.39757905
0.39757757
0.39757646
0.39757554
0.39757477
0.39757414
0.39757366
0.39757328
0.397573
0.38132745
0.38132771
0.38132805
0.3813285
0.38132908
0.38132979
0.38133064
0.38133167
0.38133304
0.38133503
0.38133741
0.38133926
0.38133926
0.38133741
0.38133504
0.38133305
0.38133168
0.38133065
0.38132978
0.38132906
0.38132847
0.38132802
0.38132767
0.3813274
0.36508421
0.36508445
0.36508477
0.36508519
0.36508573
0.3650864
0.3650872
0.36508815
0.36508942
0.36509126
0.36509347
0.36509518
0.36509518
0.36509347
0.36509127
0.36508943
0.36508816
0.3650872
0.36508639
0.36508571
0.36508516
0.36508474
0.3650844
0.36508416
0.34884315
0.34884338
0.34884369
0.34884408
0.34884458
0.34884521
0.34884596
0.34884685
0.34884803
0.34884973
0.34885178
0.34885336
0.34885336
0.34885179
0.34884974
0.34884804
0.34884686
0.34884596
0.3488452
0.34884456
0.34884405
0.34884365
0.34884334
0.34884311
0.33260415
0.33260436
0.33260465
0.33260502
0.33260549
0.33260608
0.33260678
0.33260761
0.33260871
0.33261029
0.33261221
0.33261367
0.33261367
0.33261221
0.3326103
0.33260872
0.33260762
0.33260678
0.33260607
0.33260547
0.33260498
0.33260461
0.33260432
0.3326041
0.31636706
0.31636726
0.31636753
0.31636787
0.31636832
0.31636887
0.31636953
0.31637031
0.31637133
0.3163728
0.31637459
0.31637595
0.31637595
0.31637459
0.31637281
0.31637134
0.31637032
0.31636953
0.31636886
0.3163683
0.31636784
0.31636749
0.31636722
0.31636701
0.30013176
0.30013195
0.3001322
0.30013253
0.30013294
0.30013346
0.30013408
0.30013481
0.30013577
0.30013714
0.30013881
0.30014008
0.30014008
0.30013881
0.30013715
0.30013578
0.30013483
0.30013408
0.30013346
0.30013292
0.3001325
0.30013216
0.30013191
0.30013172
0.28389814
0.28389832
0.28389856
0.28389886
0.28389926
0.28389975
0.28390033
0.28390101
0.28390191
0.28390318
0.28390475
0.28390593
0.28390593
0.28390475
0.28390319
0.28390192
0.28390103
0.28390033
0.28389974
0.28389924
0.28389884
0.28389852
0.28389828
0.2838981
0.2676661
0.26766627
0.26766649
0.26766678
0.26766715
0.26766761
0.26766816
0.2676688
0.26766964
0.26767084
0.2676723
0.26767341
0.26767341
0.2676723
0.26767084
0.26766965
0.26766882
0.26766816
0.26766761
0.26766714
0.26766676
0.26766647
0.26766624
0.26766607
0.25143555
0.2514357
0.25143591
0.25143618
0.25143653
0.25143697
0.25143748
0.25143809
0.25143887
0.25143999
0.25144136
0.25144239
0.25144239
0.25144136
0.25143999
0.25143888
0.2514381
0.25143749
0.25143696
0.25143652
0.25143617
0.25143589
0.25143568
0.25143552
0.23520638
0.23520653
0.23520673
0.23520698
0.23520731
0.23520772
0.2352082
0.23520877
0.23520951
0.23521056
0.23521185
0.23521282
0.23521282
0.23521185
0.23521056
0.23520952
0.23520878
0.23520821
0.23520772
0.2352073
0.23520697
0.23520671
0.23520652
0.23520637
0.21897852
0.21897866
0.21897885
0.21897909
0.2189794
0.21897979
0.21898024
0.21898078
0.21898147
0.21898245
0.21898366
0.21898457
0.21898457
0.21898366
0.21898245
0.21898148
0.21898079
0.21898025
0.21897979
0.2189794
0.21897909
0.21897885
0.21897867
0.21897853
0.2027519
0.20275203
0.20275221
0.20275243
0.20275273
0.20275309
0.20275352
0.20275403
0.20275468
0.2027556
0.20275674
0.20275759
0.20275759
0.20275674
0.2027556
0.20275468
0.20275403
0.20275353
0.2027531
0.20275274
0.20275245
0.20275223
0.20275206
0.20275193
0.18652644
0.18652656
0.18652673
0.18652695
0.18652722
0.18652756
0.18652797
0.18652845
0.18652906
0.18652992
0.18653099
0.18653178
0.18653178
0.18653099
0.18652992
0.18652906
0.18652845
0.18652798
0.18652758
0.18652725
0.18652698
0.18652678
0.18652662
0.1865265
0.17030207
0.17030219
0.17030235
0.17030255
0.17030281
0.17030313
0.17030352
0.17030397
0.17030454
0.17030535
0.17030637
0.17030711
0.17030711
0.17030636
0.17030535
0.17030453
0.17030396
0.17030352
0.17030315
0.17030285
0.17030261
0.17030242
0.17030228
0.17030217
0.15407874
0.15407885
0.154079
0.15407919
0.15407944
0.15407974
0.15408011
0.15408053
0.15408107
0.15408183
0.15408277
0.15408346
0.15408346
0.15408276
0.15408181
0.15408105
0.15408052
0.15408011
0.15407977
0.1540795
0.15407928
0.15407911
0.15407898
0.15407889
0.13785638
0.13785648
0.13785662
0.1378568
0.13785703
0.13785732
0.13785767
0.13785807
0.13785857
0.13785929
0.13786018
0.13786084
0.13786083
0.13786017
0.13785927
0.13785855
0.13785805
0.13785767
0.13785736
0.13785712
0.13785693
0.13785677
0.13785666
0.13785658
0.12163495
0.12163505
0.12163518
0.12163535
0.12163557
0.12163584
0.12163616
0.12163654
0.12163701
0.12163767
0.12163849
0.12163908
0.12163908
0.12163847
0.12163764
0.12163698
0.12163651
0.12163617
0.12163589
0.12163568
0.12163552
0.12163538
0.12163528
0.12163521
0.10541436
0.10541446
0.10541458
0.10541474
0.10541495
0.10541521
0.10541552
0.10541587
0.10541631
0.10541693
0.10541769
0.10541825
0.10541824
0.10541767
0.10541689
0.10541626
0.10541583
0.10541551
0.10541528
0.10541509
0.10541495
0.10541483
0.10541475
0.10541469
0.089194647
0.089194736
0.089194855
0.089195008
0.089195206
0.089195449
0.089195737
0.089196067
0.089196471
0.089197012
0.089197668
0.089198137
0.08919813
0.089197645
0.089196966
0.089196406
0.089196012
0.089195732
0.089195528
0.089195379
0.089195264
0.08919516
0.089195094
0.089195041
0.072975641
0.072975724
0.072975836
0.072975981
0.072976169
0.072976403
0.072976679
0.072976994
0.072977371
0.072977868
0.072978455
0.072978855
0.072978848
0.072978429
0.072977812
0.072977292
0.072976925
0.072976671
0.072976495
0.072976372
0.07297628
0.07297619
0.072976136
0.072976093
0.05675752
0.0567576
0.056757709
0.056757847
0.056758023
0.056758239
0.056758491
0.056758775
0.056759096
0.056759473
0.056759854
0.056760072
0.056760066
0.056759828
0.056759411
0.056759005
0.056758694
0.056758478
0.056758338
0.056758246
0.056758173
0.056758093
0.056758044
0.056758005
0.040539732
0.040539802
0.0405399
0.040540031
0.040540206
0.040540431
0.040540695
0.040540986
0.040541312
0.04054172
0.040542193
0.040542506
0.040542501
0.040542168
0.040541657
0.040541214
0.040540898
0.040540679
0.040540531
0.040540433
0.040540359
0.040540282
0.040540239
0.040540204
0.024323462
0.024323545
0.024323652
0.02432378
0.024323927
0.024324088
0.024324261
0.024324443
0.024324608
0.024324687
0.024324605
0.024324381
0.024324379
0.024324586
0.024324629
0.024324516
0.024324361
0.02432425
0.024324187
0.024324137
0.024324073
0.024323984
0.024323915
0.024323857
0.0081053674
0.0081054376
0.0081055304
0.0081056518
0.0081058125
0.0081060119
0.0081062322
0.0081064706
0.0081068475
0.0081076831
0.0081091644
0.0081105381
0.0081105397
0.0081091592
0.0081076515
0.0081067875
0.0081064133
0.0081062245
0.0081060845
0.0081059644
0.0081058598
0.0081057605
0.0081056878
0.0081056287
)
;

boundaryField
{
    INLET
    {
        type            zeroGradient;
    }
    OUTLET
    {
        type            fixedValue;
        value           uniform 0;
    }
    WALL
    {
        type            zeroGradient;
    }
    frontAndBackPlanes
    {
        type            empty;
    }
}


// ************************************************************************* //
