/*--------------------------------*- C++ -*----------------------------------*\
| =========                 |                                                 |
| \\      /  F ield         | OpenFOAM: The Open Source CFD Toolbox           |
|  \\    /   O peration     | Version:  2406                                  |
|   \\  /    A nd           | Website:  www.openfoam.com                      |
|    \\/     M anipulation  |                                                 |
\*---------------------------------------------------------------------------*/
FoamFile
{
    version     2.0;
    format      ascii;
    arch        "LSB;label=32;scalar=64";
    class       surfaceScalarField;
    location    "40";
    object      phi;
}
// * * * * * * * * * * * * * * * * * * * * * * * * * * * * * * * * * * * * * //

dimensions      [0 3 -1 0 0 0 0];

oriented        oriented;

internalField   nonuniform List<scalar> 
2279
(
2.361749e-08
1.0148926e-05
2.0509766e-07
4.982375e-05
6.9331766e-07
0.00014252872
1.5784716e-06
0.00034353082
2.6788478e-06
0.00075378089
3.3472914e-06
0.0015415573
3.0435199e-06
0.0029497096
2.1516838e-06
0.005249171
1.4318031e-06
0.008582269
9.8959079e-07
0.012685995
5.1266524e-07
0.016666385
-4.2257237e-12
0.01918202
-5.1267826e-07
0.01918202
-9.8962229e-07
0.016666385
-1.4318778e-06
0.012685995
-2.1518275e-06
0.0085822692
-3.0437429e-06
0.0052491712
-3.3475713e-06
0.0029497098
-2.6791363e-06
0.0015415575
-1.5787194e-06
0.000753781
-6.9349838e-07
0.00034353087
-2.0520353e-07
0.00014252873
-2.3662268e-08
4.9823753e-05
1.0148927e-05
-9.524848e-08
1.0244175e-05
-5.3794009e-07
5.0266441e-05
-1.6230012e-06
0.00014361378
-3.5389524e-06
0.00034544677
-5.9201865e-06
0.00075616213
-7.4055024e-06
0.0015430426
-6.5847273e-06
0.0029488888
-3.9361599e-06
0.0052465224
-1.3883896e-06
0.0085797213
-6.5120379e-08
0.012684671
2.4240477e-07
0.016666078
-8.5872971e-13
0.019182263
-2.42398e-07
0.019182263
6.5155197e-08
0.016666078
1.3884792e-06
0.012684671
3.9363304e-06
0.0085797211
6.5849836e-06
0.0052465223
7.4058008e-06
0.0029488887
5.920452e-06
0.0015430425
3.5391358e-06
0.00075616204
1.6231031e-06
0.00034544673
5.3798418e-07
0.00014361376
9.5258869e-08
5.0266434e-05
1.0244173e-05
5.0139828e-08
1.0194035e-05
2.6334497e-07
5.0053236e-05
7.4910716e-07
0.00014312802
1.5314584e-06
0.00034466442
2.3366558e-06
0.00075535693
2.5476621e-06
0.0015428316
1.8390964e-06
0.0029495974
9.7567462e-07
0.0052473858
6.76957e-07
0.00858002
6.71782e-07
0.012684677
4.8415362e-07
0.016666266
-1.9823761e-11
0.019182747
-4.8419803e-07
0.019182747
-6.7183786e-07
0.016666266
-6.7702484e-07
0.012684677
-9.7575147e-07
0.00858002
-1.8391736e-06
0.0052473859
-2.5477299e-06
0.0029495974
-2.3367022e-06
0.0015428317
-1.5314781e-06
0.00075535695
-7.4910693e-07
0.00034466443
-2.6333773e-07
0.00014312802
-5.01331e-08
5.0053238e-05
1.0194036e-05
1.9586714e-08
1.0174448e-05
1.1184926e-07
4.9960974e-05
3.6128435e-07
0.00014287858
9.0504796e-07
0.00034412066
1.8716604e-06
0.00075439032
3.0948244e-06
0.0015416085
3.8987252e-06
0.0029487935
3.7285565e-06
0.005247556
2.9242119e-06
0.0085808243
1.9733757e-06
0.012685627
1.0127727e-06
0.016667226
5.2807686e-12
0.01918376
-1.0127595e-06
0.01918376
-1.9733573e-06
0.016667226
-2.9241917e-06
0.012685627
-3.7285403e-06
0.0085808243
-3.8987226e-06
0.005247556
-3.0948382e-06
0.0029487935
-1.8716824e-06
0.0015416085
-9.0506781e-07
0.00075439033
-3.6129703e-07
0.00034412066
-1.1185524e-07
0.00014287859
-1.9588425e-08
4.9960975e-05
1.0174449e-05
8.0839048e-09
1.0166364e-05
4.7141419e-08
4.9921916e-05
1.5494686e-07
0.00014277078
3.9846326e-07
0.00034387714
8.7979507e-07
0.00075390899
1.7015173e-06
0.0015407867
2.7512765e-06
0.0029477437
3.4623628e-06
0.0052468449
3.4708626e-06
0.0085808158
2.8006864e-06
0.012686298
1.5505137e-06
0.016668476
-2.3447961e-12
0.01918531
-1.5505187e-06
0.01918531
-2.8006912e-06
0.016668476
-3.4708645e-06
0.012686298
-3.4623594e-06
0.0085808158
-2.7512697e-06
0.0052468449
-1.7015105e-06
0.0029477437
-8.7978954e-07
0.0015407867
-3.9845891e-07
0.00075390899
-1.5494347e-07
0.00034387714
-4.7139155e-08
0.00014277078
-8.0828644e-09
4.9921917e-05
1.0166365e-05
4.9358467e-09
1.0161429e-05
2.8698821e-08
4.9898153e-05
9.5121455e-08
0.00014270436
2.4921452e-07
0.00034372305
5.6360991e-07
0.00075359459
1.1213759e-06
0.001540229
1.918459e-06
0.0029469467
2.6588221e-06
0.0052461046
2.8930601e-06
0.0085805816
2.478767e-06
0.012686712
1.4344262e-06
0.016669521
2.8761611e-15
0.019186745
-1.4344264e-06
0.019186745
-2.4787673e-06
0.016669521
-2.8930601e-06
0.012686712
-2.6588221e-06
0.0085805816
-1.918462e-06
0.0052461046
-1.1213818e-06
0.0029469467
-5.6361493e-07
0.001540229
-2.4921654e-07
0.00075359459
-9.5121236e-08
0.00034372305
-2.8697987e-08
0.00014270436
-4.9352177e-09
4.9898154e-05
1.0161429e-05
4.4123435e-09
1.0157016e-05
2.5525667e-08
4.987704e-05
8.3830174e-08
0.00014264605
2.1689438e-07
0.00034358999
4.8450172e-07
0.00075332698
9.5636191e-07
0.0015397571
1.6413751e-06
0.0029462616
2.3245837e-06
0.0052454214
2.5939542e-06
0.0085803122
2.2393634e-06
0.012687066
1.3066742e-06
0.016670453
1.4108113e-12
0.019188051
-1.3066717e-06
0.019188051
-2.2393611e-06
0.016670453
-2.5939506e-06
0.012687066
-2.3245802e-06
0.0085803122
-1.6413746e-06
0.0052454214
-9.5636359e-07
0.0029462616
-4.845034e-07
0.0015397571
-2.1689526e-07
0.00075332699
-8.3830801e-08
0.00034358999
-2.5526232e-08
0.00014264605
-4.4127432e-09
4.987704e-05
1.0157016e-05
3.6255259e-09
1.0153391e-05
2.1036583e-08
4.9859629e-05
6.9438161e-08
0.00014259765
1.8114169e-07
0.00034347828
4.0971492e-07
0.00075309841
8.2390496e-07
0.0015393429
1.453994e-06
0.0029456316
2.1430772e-06
0.0052447323
2.4674744e-06
0.0085799878
2.1883941e-06
0.012687346
1.2866431e-06
0.016671355
6.140563e-13
0.019189338
-1.2866421e-06
0.019189338
-2.1883927e-06
0.016671355
-2.4674717e-06
0.012687346
-2.1430739e-06
0.0085799878
-1.4539908e-06
0.0052447323
-8.2390123e-07
0.0029456316
-4.0971085e-07
0.0015393429
-1.8113876e-07
0.00075309841
-6.9437297e-08
0.00034347828
-2.1037016e-08
0.00014259765
-3.6262321e-09
4.9859629e-05
1.0153391e-05
2.9831168e-09
1.0150408e-05
1.7346982e-08
4.9845265e-05
5.7377304e-08
0.00014255762
1.5007398e-07
0.00034338559
3.409716e-07
0.00075290751
6.9193279e-07
0.001538992
1.2441104e-06
0.0029450794
1.904188e-06
0.0052440722
2.3016024e-06
0.0085795904
2.0975094e-06
0.01268755
1.2520112e-06
0.016672201
2.2098063e-13
0.01919059
-1.2520106e-06
0.01919059
-2.0975081e-06
0.016672201
-2.3016e-06
0.01268755
-1.9041846e-06
0.0085795904
-1.2441055e-06
0.0052440722
-6.9192591e-07
0.0029450794
-3.4096438e-07
0.001538992
-1.5006901e-07
0.00075290751
-5.7375698e-08
0.00034338559
-1.7347417e-08
0.00014255762
-2.9840331e-09
4.9845265e-05
1.0150408e-05
2.4654121e-09
1.0147942e-05
1.4363101e-08
4.9833367e-05
4.7626489e-08
0.00014252436
1.2502879e-07
0.00034330818
2.8558927e-07
0.00075274695
5.8418019e-07
0.0015386934
1.0641857e-06
0.0029445994
1.6641598e-06
0.0052434722
2.0898765e-06
0.0085791647
1.9528961e-06
0.012687687
1.1802455e-06
0.016672973
1.7025664e-14
0.01919177
-1.1802452e-06
0.01919177
-1.9528948e-06
0.016672973
-2.089874e-06
0.012687687
-1.6641558e-06
0.0085791647
-1.064179e-06
0.0052434722
-5.841706e-07
0.0029445994
-2.8557947e-07
0.0015386934
-1.2502215e-07
0.00075274695
-4.7624261e-08
0.00034330818
-1.4363522e-08
0.00014252436
-2.4664989e-09
4.9833367e-05
1.0147942e-05
2.1024454e-09
1.014584e-05
1.2258066e-08
4.9823212e-05
4.0688286e-08
0.00014249593
1.0699027e-07
0.00034324188
2.4507864e-07
0.00075260887
5.0385337e-07
0.0015384346
9.2623559e-07
0.002944177
1.4715127e-06
0.005242927
1.8909102e-06
0.0085787453
1.8050242e-06
0.012687772
1.103691e-06
0.016673675
1.6189926e-13
0.019192874
-1.1036903e-06
0.019192874
-1.8050226e-06
0.016673675
-1.8909075e-06
0.012687772
-1.4715081e-06
0.0085787453
-9.2622737e-07
0.005242927
-5.0384166e-07
0.002944177
-2.4506669e-07
0.0015384346
-1.0698215e-07
0.00075260887
-4.0685467e-08
0.00034324188
-1.2258461e-08
0.00014249593
-2.1036899e-09
4.9823212e-05
1.014584e-05
1.828243e-09
1.0144011e-05
1.0665518e-08
4.9814374e-05
3.5430329e-08
0.00014247116
9.3283017e-08
0.00034318403
2.1413913e-07
0.00075248801
4.4192754e-07
0.0015382068
8.1811376e-07
0.0029438008
1.3163814e-06
0.0052424287
1.7244953e-06
0.0085783372
1.6780442e-06
0.012687819
1.0378055e-06
0.016674315
3.7525701e-13
0.019193912
-1.0378045e-06
0.019193912
-1.6780425e-06
0.016674315
-1.7244925e-06
0.012687819
-1.3163764e-06
0.0085783372
-8.1810433e-07
0.0052424287
-4.4191399e-07
0.0029438008
-2.1412526e-07
0.0015382068
-9.3273569e-08
0.00075248801
-3.5427059e-08
0.00034318403
-1.0665997e-08
0.00014247116
-1.8297083e-09
4.9814374e-05
1.0144011e-05
1.6105067e-09
1.0142401e-05
9.3997005e-09
4.9806585e-05
3.1244443e-08
0.00014244932
8.2340362e-08
0.00034313293
1.8932051e-07
0.00075238103
3.9182273e-07
0.0015380043
7.2924131e-07
0.0029434634
1.1851459e-06
0.0052419728
1.5781762e-06
0.0085779441
1.5623405e-06
0.012687835
9.7669905e-07
0.0166749
5.0954934e-13
0.019194888
-9.766979e-07
0.019194888
-1.562339e-06
0.0166749
-1.5781737e-06
0.012687835
-1.1851405e-06
0.0085779441
-7.2923074e-07
0.0052419728
-3.9180726e-07
0.0029434634
-1.8930457e-07
0.0015380043
-8.2329532e-08
0.00075238103
-3.1240776e-08
0.00034313293
-9.400352e-09
0.00014244932
-1.612256e-09
4.9806585e-05
1.0142401e-05
1.4323378e-09
1.0140969e-05
8.3630659e-09
4.9799655e-05
2.781266e-08
0.00014242987
7.3352762e-08
0.00034308739
1.6886862e-07
0.00075228551
3.5026773e-07
0.0015378229
6.5458283e-07
0.0029431591
1.0720594e-06
0.0052415553
1.4464342e-06
0.0085775698
1.4548772e-06
0.012687826
9.1881037e-07
0.016675437
5.9040943e-13
0.019195807
-9.1880926e-07
0.019195807
-1.4548761e-06
0.016675437
-1.4464321e-06
0.012687826
-1.0720539e-06
0.0085775698
-6.5457114e-07
0.0052415553
-3.5025015e-07
0.0029431591
-1.6885042e-07
0.0015378229
-7.3340453e-08
0.00075228551
-2.7808597e-08
0.00034308739
-8.3639234e-09
0.00014242987
-1.4343997e-09
4.9799655e-05
1.0140969e-05
1.28503e-09
1.0139684e-05
7.5051391e-09
4.9793434e-05
2.4968915e-08
0.0001424124
6.589115e-08
0.00034304647
1.51838e-07
0.00075219957
3.1548526e-07
0.0015376593
5.9149667e-07
0.0029428831
9.7478735e-07
0.005241172
1.3297055e-06
0.0085772149
1.3567881e-06
0.012687799
8.6525296e-07
0.016675928
6.4413629e-13
0.019196672
-8.6525198e-07
0.019196672
-1.3567875e-06
0.016675928
-1.329704e-06
0.012687799
-9.7478189e-07
0.0085772149
-5.9148384e-07
0.005241172
-3.1546548e-07
0.0029428831
-1.5181744e-07
0.0015376593
-6.5877333e-08
0.00075219957
-2.4964451e-08
0.00034304647
-7.5061993e-09
0.0001424124
-1.2873997e-09
4.9793434e-05
1.0139684e-05
1.1615169e-09
1.0138522e-05
6.7852685e-09
4.9787811e-05
2.2580541e-08
0.00014239661
5.9615459e-08
0.00034300943
1.3748111e-07
0.0007521217
2.860467e-07
0.0015375107
5.3771127e-07
0.0029426314
8.9070665e-07
0.005240819
1.2263987e-06
0.0085768792
1.2674909e-06
0.012687758
8.1592781e-07
0.01667638
6.6486729e-13
0.019197488
-8.1592699e-07
0.019197488
-1.2674907e-06
0.01667638
-1.2263978e-06
0.012687758
-8.9070126e-07
0.0085768792
-5.3769735e-07
0.005240819
-2.8602475e-07
0.0029426314
-1.3745828e-07
0.0015375107
-5.9600193e-08
0.0007521217
-2.2575681e-08
0.00034300943
-6.7865028e-09
0.00014239661
-1.1641647e-09
4.9787811e-05
1.0138522e-05
1.0561785e-09
1.0137466e-05
6.1710463e-09
4.9782696e-05
2.0541427e-08
0.00014238224
5.4252172e-08
0.00034297572
1.2519078e-07
0.00075205076
2.6076804e-07
0.0015373751
4.9125204e-07
0.0029424009
8.1722586e-07
0.005240493
1.1341847e-06
0.0085765622
1.1857919e-06
0.012687707
7.70216e-07
0.016676795
6.6444481e-13
0.019198259
-7.7021535e-07
0.019198259
-1.1857923e-06
0.016676795
-1.1341844e-06
0.012687707
-8.1722061e-07
0.0085765622
-4.9123714e-07
0.005240493
-2.6074413e-07
0.0029424009
-1.2516589e-07
0.0015373751
-5.4235594e-08
0.00075205076
-2.0536192e-08
0.00034297572
-6.1724162e-09
0.00014238224
-1.0590611e-09
4.9782696e-05
1.0137466e-05
9.6518042e-10
1.0136501e-05
5.6402335e-09
4.9778021e-05
1.8778339e-08
0.0001423691
4.9611263e-08
0.00034294489
1.1454159e-07
0.00075198583
2.3881095e-07
0.0015372509
4.5070421e-07
0.002942189
7.5248343e-07
0.0052401913
1.0515009e-06
0.0085762632
1.1108329e-06
0.012687647
7.2768991e-07
0.016677178
6.4659761e-13
0.019198986
-7.2768945e-07
0.019198986
-1.1108338e-06
0.016677178
-1.0515013e-06
0.012687647
-7.5247837e-07
0.0085762632
-4.5068849e-07
0.0052401913
-2.3878535e-07
0.002942189
-1.1451492e-07
0.0015372509
-4.9593549e-08
0.00075198583
-1.8772766e-08
0.00034294489
-5.6417013e-09
0.0001423691
-9.6825248e-10
4.9778021e-05
1.0136501e-05
8.8584284e-10
1.0135615e-05
5.1772651e-09
4.9773729e-05
1.7239893e-08
0.00014235704
4.5558854e-08
0.00034291657
1.0523206e-07
0.00075192616
2.195763e-07
0.0015371365
4.1504228e-07
0.0029419936
6.9508959e-07
0.0052399112
9.7709512e-07
0.0085759812
1.0418687e-06
0.012687582
6.8800628e-07
0.016677532
5.7521529e-13
0.019199674
-6.8800603e-07
0.019199674
-1.04187e-06
0.016677532
-9.7709611e-07
0.012687582
-6.9508477e-07
0.0085759812
-4.1502593e-07
0.0052399112
-2.195493e-07
0.0029419936
-1.0520391e-07
0.0015371365
-4.5540183e-08
0.00075192616
-1.7234019e-08
0.00034291657
-5.1787988e-09
0.00014235704
-8.8906401e-10
4.9773729e-05
1.0135615e-05
8.1606838e-10
1.0134799e-05
4.7699757e-09
4.9769775e-05
1.5885959e-08
0.00014234592
4.1990418e-08
0.00034289047
9.7026496e-08
0.00075187112
2.0259319e-07
0.0015370309
3.8344866e-07
0.0029418127
6.4389582e-07
0.0052396508
9.0984347e-07
0.0085757152
9.7823709e-07
0.012687514
6.5086742e-07
0.01667786
4.717714e-13
0.019200325
-6.5086745e-07
0.019200325
-9.7823892e-07
0.01667786
-9.098451e-07
0.012687514
-6.4389127e-07
0.0085757152
-3.8343181e-07
0.0052396508
-2.0256505e-07
0.0029418127
-9.6997113e-08
0.0015370309
-4.1970942e-08
0.00075187112
-1.587982e-08
0.00034289047
-4.7715515e-09
0.00014234592
-8.1940744e-10
4.9769775e-05
1.0134799e-05
7.5420501e-10
1.0134045e-05
4.4087754e-09
4.9766121e-05
1.4684872e-08
0.00014233564
3.882334e-08
0.00034286633
8.973807e-08
0.00075182021
1.8748637e-07
0.0015369332
3.5526489e-07
0.0029416449
5.9795819e-07
0.0052394081
8.4878885e-07
0.0085754644
9.1936771e-07
0.012687443
6.1601152e-07
0.016678163
3.605396e-13
0.019200941
-6.1601185e-07
0.019200941
-9.1937009e-07
0.016678163
-8.4879112e-07
0.012687443
-5.9795393e-07
0.0085754644
-3.5524765e-07
0.0052394081
-1.8745728e-07
0.0029416449
-8.9707646e-08
0.0015369332
-3.8803165e-08
0.00075182021
-1.4678492e-08
0.00034286633
-4.4103783e-09
0.00014233564
-7.5764178e-10
4.9766121e-05
1.0134045e-05
6.9896282e-10
1.0133346e-05
4.0861671e-09
4.9762734e-05
1.3611837e-08
0.00014232612
3.5992787e-08
0.00034284395
8.3219675e-08
0.00075177298
1.7395869e-07
0.0015368425
3.2996443e-07
0.0029414889
5.5650689e-07
0.0052391815
7.9312088e-07
0.0085752278
8.6476906e-07
0.012687372
5.8323254e-07
0.016678444
2.2359634e-13
0.019201524
-5.8323324e-07
0.019201524
-8.64772e-07
0.016678444
-7.9312376e-07
0.012687372
-5.565029e-07
0.0085752278
-3.2994685e-07
0.0052391815
-1.7392877e-07
0.0029414889
-8.3188322e-08
0.0015368425
-3.5971977e-08
0.00075177298
-1.3605232e-08
0.00034284395
-4.0877915e-09
0.00014232612
-7.0248855e-10
4.9762733e-05
1.0133346e-05
6.4932502e-10
1.0132697e-05
3.7962368e-09
4.9759587e-05
1.2647278e-08
0.00014231727
3.3447492e-08
0.00034282315
7.7354722e-08
0.00075172907
1.6177381e-07
0.001536758
3.071257e-07
0.0029413436
5.1891872e-07
0.0052389697
7.4217272e-07
0.0085750045
8.1401458e-07
0.0126873
5.5234339e-07
0.016678706
4.1997518e-14
0.019202077
-5.5234455e-07
0.019202077
-8.1401815e-07
0.016678706
-7.4217621e-07
0.0126873
-5.1891499e-07
0.0085750045
-3.0710782e-07
0.0052389698
-1.617431e-07
0.0029413436
-7.732249e-08
0.001536758
-3.3426072e-08
0.00075172907
-1.2640458e-08
0.00034282315
-3.7978868e-09
0.00014231727
-6.5294155e-10
4.9759587e-05
1.0132697e-05
6.044773e-10
1.0132092e-05
3.5342455e-09
4.9756657e-05
1.1775494e-08
0.00014230903
3.1146301e-08
0.00034280378
7.2049443e-08
0.00075168817
1.5074098e-07
0.0015366793
2.8640631e-07
0.0029412079
4.8468051e-07
0.0052387715
6.9538035e-07
0.0085747938
7.6674433e-07
0.012687229
5.2320531e-07
0.01667895
-2.1404267e-13
0.0192026
-5.2320706e-07
0.0192026
-7.6674861e-07
0.01667895
-6.9538449e-07
0.012687229
-4.8467705e-07
0.0085747938
-2.8638813e-07
0.0052387715
-1.5070951e-07
0.0029412079
-7.2016333e-08
0.0015366794
-3.1124269e-08
0.00075168817
-1.1768467e-08
0.00034280378
-3.535934e-09
0.00014230903
-6.0819497e-10
4.9756657e-05
1.0132092e-05
5.6376101e-10
1.0131528e-05
3.2963579e-09
4.9753924e-05
1.0983775e-08
0.00014230134
2.9055867e-08
0.0003427857
6.7227772e-08
0.00075165
1.4070515e-07
0.0015366059
2.6752683e-07
0.0029410811
4.5337083e-07
0.0052385856
6.522749e-07
0.0085745949
7.2263642e-07
0.012687158
4.9567475e-07
0.016679177
-5.5040483e-13
0.019203096
-4.9567721e-07
0.019203096
-7.226415e-07
0.016679177
-6.5227974e-07
0.012687158
-4.5336767e-07
0.0085745949
-2.6750838e-07
0.0052385856
-1.4067293e-07
0.0029410811
-6.7193768e-08
0.0015366059
-2.9033215e-08
0.00075165
-1.0976554e-08
0.0003427857
-3.2981058e-09
0.00014230134
-5.6759526e-10
4.9753924e-05
1.0131528e-05
5.2663698e-10
1.0131002e-05
3.0794332e-09
4.9751372e-05
1.0261706e-08
0.00014229416
2.7148843e-08
0.00034276882
6.2827241e-08
0.00075161432
1.3153867e-07
0.0015365372
2.5025594e-07
0.0029409624
4.2463611e-07
0.0052384112
6.1245222e-07
0.0085744071
6.8142301e-07
0.012687089
4.6965772e-07
0.016679388
-9.9816268e-13
0.019203565
-4.696611e-07
0.019203565
-6.8142907e-07
0.016679388
-6.1245788e-07
0.012687089
-4.2463335e-07
0.0085744071
-2.5023728e-07
0.0052384113
-1.315057e-07
0.0029409624
-6.2792342e-08
0.0015365372
-2.7125583e-08
0.00075161432
-1.0254317e-08
0.00034276882
-3.0812664e-09
0.00014229416
-5.3060352e-10
4.9751371e-05
1.0131002e-05
4.9266087e-10
1.0130509e-05
2.8808811e-09
4.9748983e-05
9.6006929e-09
0.00014228744
2.5402665e-08
0.00034275301
5.8796286e-08
0.00075158092
1.2313605e-07
0.0015364728
2.3440221e-07
0.0029408511
3.981834e-07
0.0052382475
5.7557582e-07
0.0085742297
6.4285196e-07
0.012687022
4.4503287e-07
0.016679586
-1.5590667e-12
0.01920401
-4.4503739e-07
0.01920401
-6.4285917e-07
0.016679586
-5.7558248e-07
0.012687022
-3.9818121e-07
0.0085742297
-2.3438346e-07
0.0052382475
-1.2310241e-07
0.0029408511
-5.8760551e-08
0.0015364728
-2.5378856e-08
0.00075158093
-9.5931856e-09
0.00034275301
-2.8828277e-09
0.00014228744
-4.9676948e-10
4.9748983e-05
1.0130509e-05
4.614614e-10
1.0130048e-05
2.698537e-09
4.9746746e-05
8.9935539e-09
0.00014228114
2.379845e-08
0.00034273821
5.509169e-08
0.00075154963
1.1540867e-07
0.0015364125
2.1980388e-07
0.0029407467
3.7376135e-07
0.0052380935
5.4134819e-07
0.0085740621
6.0672305e-07
0.012686957
4.2174068e-07
0.016679771
-2.2343037e-12
0.019204432
-4.2174657e-07
0.019204432
-6.0673164e-07
0.016679771
-5.4135607e-07
0.012686957
-3.7375994e-07
0.0085740621
-2.1978525e-07
0.0052380935
-1.1537454e-07
0.0029407467
-5.5055297e-08
0.0015364125
-2.377424e-08
0.00075154963
-8.986012e-09
0.00034273821
-2.7006235e-09
0.00014228114
-4.6570896e-10
4.9746746e-05
1.0130048e-05
4.3272651e-10
1.0129615e-05
2.5305798e-09
4.9744649e-05
8.4342445e-09
0.00014227524
2.232032e-08
0.00034272432
5.1677137e-08
0.00075152027
1.0828208e-07
0.0015363559
2.0632517e-07
0.0029406487
3.5115989e-07
0.0052379487
5.0952122e-07
0.0085739038
5.7282849e-07
0.012686893
3.9966657e-07
0.016679944
-3.033994e-12
0.019204832
-3.9967407e-07
0.019204832
-5.7283869e-07
0.016679944
-5.0953059e-07
0.012686893
-3.5115958e-07
0.0085739038
-2.06307e-07
0.0052379487
-1.0824783e-07
0.0029406487
-5.1640447e-08
0.0015363559
-2.2295988e-08
0.00075152027
-8.4267999e-09
0.00034272432
-2.5328271e-09
0.00014227524
-4.3708905e-10
4.9744648e-05
1.0129615e-05
4.061913e-10
1.0129209e-05
2.3754648e-09
4.9742679e-05
7.9176354e-09
0.0001422697
2.0954773e-08
0.00034271129
4.852166e-08
0.00075149271
1.0169257e-07
0.0015363027
1.9384905e-07
0.0029405565
3.3019444e-07
0.0052378123
4.7986984e-07
0.0085737541
5.4102167e-07
0.012686832
3.7878276e-07
0.016680107
-3.9378066e-12
0.01920521
-3.7879208e-07
0.01920521
-5.4103373e-07
0.016680107
-4.7988101e-07
0.012686832
-3.3019563e-07
0.0085737541
-1.9383184e-07
0.0052378123
-1.0165879e-07
0.0029405565
-4.8485286e-08
0.0015363027
-2.0930775e-08
0.00075149271
-7.9104818e-09
0.00034271128
-2.3778833e-09
0.00014226969
-4.1061527e-10
4.9742679e-05
1.0129209e-05
3.8162848e-10
1.0128828e-05
2.2318632e-09
4.9740829e-05
7.4393156e-09
0.00014226449
1.9690226e-08
0.00034269903
4.5598781e-08
0.0007514668
9.5585808e-08
0.0015362527
1.8227608e-07
0.0029404698
3.1070979e-07
0.0052376839
4.522056e-07
0.0085736126
5.1111938e-07
0.012686773
3.5896802e-07
0.016680259
-4.9278632e-12
0.019205569
-3.5897935e-07
0.019205569
-5.1113352e-07
0.016680259
-4.5221891e-07
0.012686773
-3.1071299e-07
0.0085736126
-1.8226056e-07
0.0052376839
-9.5553437e-08
0.0029404698
-4.5563675e-08
0.0015362527
-1.9667252e-08
0.0007514668
-7.432727e-09
0.00034269903
-2.23445e-09
0.00014226449
-3.8602266e-10
4.9740828e-05
1.0128827e-05
3.5884421e-10
1.0128469e-05
2.0986466e-09
4.9739089e-05
6.9955354e-09
0.00014225959
1.8516784e-08
0.00034268751
4.2885717e-08
0.00075144243
8.9914717e-08
0.0015362057
1.7151924e-07
0.0029403882
2.9256696e-07
0.0052375628
4.2635569e-07
0.0085734788
4.8302383e-07
0.012686717
3.4023029e-07
0.016680402
-5.9770056e-12
0.01920591
-3.4024377e-07
0.01920591
-4.8304026e-07
0.016680402
-4.2637149e-07
0.012686717
-2.9257281e-07
0.0085734788
-1.715064e-07
0.0052375629
-8.988507e-08
0.0029403882
-4.2853241e-08
0.0015362057
-1.8495804e-08
0.00075144243
-6.989881e-09
0.00034268751
-2.1013807e-09
0.00014225959
-3.6307058e-10
4.9739088e-05
1.0128469e-05
3.3766661e-10
1.0128131e-05
1.9748066e-09
4.9737452e-05
6.5829473e-09
0.00014225498
1.742568e-08
0.00034267667
4.0362502e-08
0.00075141949
8.4638406e-08
0.0015361614
1.6150345e-07
0.0029403113
2.7564757e-07
0.0052374487
4.0217099e-07
0.0085733523
4.5655779e-07
0.012686662
3.2242699e-07
0.016680536
-7.0549006e-12
0.019206232
-3.2244269e-07
0.019206232
-4.5657666e-07
0.016680536
-4.0218964e-07
0.012686662
-2.756568e-07
0.0085733523
-1.6149457e-07
0.0052374487
-8.4613271e-08
0.0029403113
-4.0334508e-08
0.0015361614
-1.7407995e-08
0.00075141949
-6.5787037e-09
0.00034267667
-1.9776418e-09
0.00014225498
-3.4153031e-10
4.9737451e-05
1.0128131e-05
3.1795289e-10
1.0127813e-05
1.8595176e-09
4.9735911e-05
6.1988061e-09
0.00014225064
1.6409621e-08
0.00034266646
3.8012179e-08
0.00075139789
7.9721523e-08
0.0015361197
1.5216303e-07
0.0029402389
2.5984612e-07
0.005237341
3.7952086e-07
0.0085732326
4.3167659e-07
0.01268661
3.0561275e-07
0.016680662
-8.1112067e-12
0.019206538
-3.0563063e-07
0.019206538
-4.3169795e-07
0.016680662
-3.7954268e-07
0.01268661
-2.5985959e-07
0.0085732326
-1.5215974e-07
0.005237341
-7.9703225e-08
0.0029402389
-3.7991081e-08
0.0015361197
-1.6396914e-08
0.00075139788
-6.1965744e-09
0.00034266645
-1.8623797e-09
0.00014225064
-3.2119424e-10
4.9735909e-05
1.0127813e-05
2.9956591e-10
1.0127514e-05
1.7519676e-09
4.9734458e-05
5.8404187e-09
0.00014224655
1.5461618e-08
0.00034265684
3.5819028e-08
0.00075137753
7.5132141e-08
0.0015360804
1.434391e-07
0.0029401706
2.4506778e-07
0.0052372394
3.5827764e-07
0.0085731194
4.0818661e-07
0.01268656
2.8960422e-07
0.01668078
-9.084469e-12
0.019206827
-2.8962414e-07
0.019206827
-4.0821039e-07
0.01668078
-3.5830287e-07
0.01268656
-2.4508642e-07
0.0085731194
-1.4344337e-07
0.0052372394
-7.5123593e-08
0.0029401706
-3.5807867e-08
0.0015360804
-1.5455993e-08
0.00075137752
-5.8409356e-09
0.00034265683
-1.7547487e-09
0.00014224655
-3.0185187e-10
4.9734456e-05
1.0127514e-05
2.8240563e-10
1.0127232e-05
1.6515927e-09
4.9733089e-05
5.5059051e-09
0.0001422427
1.457656e-08
0.00034264777
3.3770796e-08
0.00075135833
7.0844115e-08
0.0015360433
1.3528292e-07
0.0029401061
2.3123565e-07
0.0052371434
3.3835328e-07
0.0085730123
3.8611244e-07
0.012686512
2.7452287e-07
0.016680892
-9.8791115e-12
0.019207102
-2.7454445e-07
0.019207102
-3.8613836e-07
0.016680892
-3.3838203e-07
0.012686512
-2.3126043e-07
0.0085730123
-1.3529705e-07
0.0052371434
-7.0848843e-08
0.0029401061
-3.3773274e-08
0.0015360433
-1.4580564e-08
0.00075135832
-5.5100421e-09
0.00034264776
-1.6541408e-09
0.0001422427
-2.833206e-10
4.9733087e-05
1.0127231e-05
2.6635056e-10
1.0126965e-05
1.5576565e-09
4.9731798e-05
5.19283e-09
0.00014223906
1.3748277e-08
0.00034263921
3.1854081e-08
0.00075134023
6.6830918e-08
0.0015360084
1.2764515e-07
0.0029400453
2.1826585e-07
0.0052370528
3.1961989e-07
0.0085729109
3.6521176e-07
0.012686467
2.6011639e-07
0.016680997
-1.0391168e-11
0.019207362
-2.6013906e-07
0.019207362
-3.652393e-07
0.016680997
-3.1965204e-07
0.012686467
-2.1829772e-07
0.0085729109
-1.2767176e-07
0.0052370528
-6.685305e-08
0.0029400453
-3.1874545e-08
0.0015360083
-1.3764872e-08
0.00075134021
-5.2015586e-09
0.0003426392
-1.5597499e-09
0.00014223906
-2.6538359e-10
4.9731795e-05
1.0126965e-05
2.513502e-10
1.0126714e-05
1.4699114e-09
4.9730579e-05
4.9003538e-09
0.00014223563
1.2974162e-08
0.00034263114
3.006163e-08
0.00075132314
6.3075555e-08
0.0015359753
1.204941e-07
0.0029399879
2.0611406e-07
0.0052369672
3.0204785e-07
0.008572815
3.456134e-07
0.012686423
2.4660685e-07
0.016681096
-1.0453311e-11
0.019207609
-2.4662965e-07
0.019207609
-3.4564165e-07
0.016681096
-3.0208296e-07
0.012686423
-2.0615385e-07
0.008572815
-1.2053606e-07
0.0052369672
-6.3119845e-08
0.0029399879
-3.0105128e-08
0.0015359753
-1.3006775e-08
0.00075132312
-4.9147886e-09
0.00034263113
-1.4712847e-09
0.00014223563
-2.4790711e-10
4.9730576e-05
1.0126713e-05
2.3727014e-10
1.0126477e-05
1.3875066e-09
4.9729429e-05
4.6256791e-09
0.0001422324
1.2247458e-08
0.00034262351
2.8379832e-08
0.00075130701
5.9552783e-08
0.0015359442
1.1378225e-07
0.0029399337
1.9469001e-07
0.0052368863
2.8547431e-07
0.0085727242
3.269748e-07
0.012686382
2.3363054e-07
0.016681189
-9.9056771e-12
0.019207842
-2.3365223e-07
0.019207842
-3.2700252e-07
0.016681189
-2.8551156e-07
0.012686382
-1.9473831e-07
0.0085727242
-1.1384255e-07
0.0052368863
-5.962445e-08
0.0029399336
-2.8451983e-08
0.0015359441
-1.2299907e-08
0.00075130698
-4.647045e-09
0.0003426235
-1.3878474e-09
0.00014223239
-2.3068108e-10
4.9729426e-05
1.0126476e-05
2.2415049e-10
1.0126253e-05
1.3107876e-09
4.9728343e-05
4.3698983e-09
0.00014222934
1.1570016e-08
0.00034261631
2.6809705e-08
0.00075129177
5.6259512e-08
0.0015359147
1.0750349e-07
0.0029398824
1.8400282e-07
0.0052368098
2.6997328e-07
0.0085726383
3.095971e-07
0.012686342
2.2156588e-07
0.016681277
-8.586072e-12
0.019208064
-2.2158477e-07
0.019208064
-3.0962247e-07
0.016681277
-2.7001126e-07
0.012686342
-1.8405977e-07
0.0085726383
-1.0758495e-07
0.0052368097
-5.6363839e-08
0.0029398824
-2.6916212e-08
0.0015359147
-1.1646044e-08
0.00075129174
-4.3992174e-09
0.0003426163
-1.3095904e-09
0.00014222933
-2.1363312e-10
4.9728339e-05
1.0126252e-05
2.1177091e-10
1.0126041e-05
1.2383049e-09
4.9727316e-05
4.1282958e-09
0.00014222645
1.0931056e-08
0.00034260951
2.5331584e-08
0.00075127736
5.3163152e-08
0.0015358869
1.0159711e-07
0.002939834
1.7392254e-07
0.0052367375
2.5528264e-07
0.0085725569
2.9295421e-07
0.012686304
2.0987505e-07
0.01668136
-6.3771618e-12
0.019208274
-2.0988922e-07
0.019208274
-2.9297508e-07
0.01668136
-2.5531947e-07
0.012686304
-1.7398784e-07
0.0085725569
-1.0170233e-07
0.0052367374
-5.3305496e-08
0.0029398339
-2.5478251e-08
0.0015358868
-1.1034378e-08
0.00075127733
-4.1664595e-09
0.0003426095
-1.234935e-09
0.00014222644
-1.9646001e-10
4.9727312e-05
1.012604e-05
2.0041138e-10
1.0125841e-05
1.1719601e-09
4.9726345e-05
3.9069799e-09
0.00014222371
1.0343793e-08
0.00034260307
2.3966866e-08
0.00075126374
5.0292959e-08
0.0015358606
9.6113347e-08
0.0029397882
1.6457243e-07
0.005236669
2.4168669e-07
0.0085724798
2.7764879e-07
0.012686268
1.9918721e-07
0.016681439
-3.2986135e-12
0.019208473
-1.9919455e-07
0.019208473
-2.7766235e-07
0.016681439
-2.4171948e-07
0.012686269
-1.6464466e-07
0.0085724798
-9.6244065e-08
0.0052366689
-5.047805e-08
0.0029397881
-2.4159092e-08
0.0015358605
-1.0477924e-08
0.00075126371
-3.9548798e-09
0.00034260306
-1.1658907e-09
0.0001422237
-1.7955366e-10
4.9726341e-05
1.012584e-05
1.8946749e-10
1.0125652e-05
1.1078279e-09
4.9725426e-05
3.6933619e-09
0.00014222113
9.7801563e-09
0.00034259699
2.2666869e-08
0.00075125085
4.7575603e-08
0.0015358356
9.0928871e-08
0.0029397448
1.5569943e-07
0.0052366042
2.286978e-07
0.0085724068
2.6284804e-07
0.012686234
1.8870871e-07
0.016681513
9.811132e-14
0.019208662
-1.8870744e-07
0.019208662
-2.6285143e-07
0.016681513
-2.2872298e-07
0.012686234
-1.5577591e-07
0.0085724068
-9.1084897e-08
0.0052366041
-4.7805731e-08
0.0029397447
-2.2907397e-08
0.0015358356
-9.9463486e-09
0.00075125082
-3.7505008e-09
0.00034259697
-1.0979567e-09
0.00014222112
-1.6221391e-10
4.9725423e-05
1.0125651e-05
1.8007265e-10
1.0125472e-05
1.0531567e-09
4.9724553e-05
3.5104958e-09
0.00014221867
9.2912734e-09
0.0003425912
2.1519507e-08
0.00075123862
4.5140397e-08
0.001535812
8.6249699e-08
0.0029397037
1.4770155e-07
0.0052365428
2.1704817e-07
0.0085723374
2.497034e-07
0.012686202
1.7948994e-07
0.016681583
4.1248409e-12
0.019208841
-1.7947861e-07
0.019208841
-2.4969363e-07
0.016681583
-2.1706089e-07
0.012686202
-1.4777701e-07
0.0085723374
-8.6427525e-08
0.0052365427
-4.5413835e-08
0.0029397036
-2.1806513e-08
0.0015358119
-9.4866952e-09
0.00075123859
-3.5738863e-09
0.0003425912
-1.0374363e-09
0.00014221867
-1.4552296e-10
4.9724552e-05
1.0125471e-05
1.6893438e-10
1.0125303e-05
9.8819945e-10
4.9723734e-05
3.2971227e-09
0.00014221636
8.7419647e-09
0.00034258576
2.0292923e-08
0.00075122707
4.2661022e-08
0.0015357897
8.1639324e-08
0.0029396647
1.3992149e-07
0.0052364845
2.0571541e-07
0.0085722716
2.3675929e-07
0.012686171
1.703151e-07
0.01668165
8.9575887e-12
0.019209011
-1.7029323e-07
0.019209011
-2.3673499e-07
0.01668165
-2.0571106e-07
0.012686171
-1.3998787e-07
0.0085722716
-8.1830135e-08
0.0052364844
-4.2969955e-08
0.0029396646
-2.0619127e-08
0.0015357895
-8.9604182e-09
0.00075122704
-3.3631863e-09
0.00034258576
-9.6553534e-10
0.00014221636
-1.2726596e-10
4.9723735e-05
1.0125303e-05
1.640944e-10
1.0125139e-05
9.6024385e-10
4.9722938e-05