/*--------------------------------*- C++ -*----------------------------------*\
| =========                 |                                                 |
| \\      /  F ield         | OpenFOAM: The Open Source CFD Toolbox           |
|  \\    /   O peration     | Version:  2406                                  |
|   \\  /    A nd           | Website:  www.openfoam.com                      |
|    \\/     M anipulation  |                                                 |
\*---------------------------------------------------------------------------*/
FoamFile
{
    version     2.0;
    format      ascii;
    arch        "LSB;label=32;scalar=64";
    class       volVectorField;
    location    "40";
    object      U;
}
// * * * * * * * * * * * * * * * * * * * * * * * * * * * * * * * * * * * * * //

dimensions      [0 1 -1 0 0 0 0];

internalField   nonuniform List<vector> 
1176
(
(0.019493789 7.0786418e-07 0)
(0.066677318 8.1696546e-06 0)
(0.13357994 3.9503166e-05 0)
(0.22724701 0.00010873576 0)
(0.35591522 0.00021176026 0)
(0.52772023 0.00030396285 0)
(0.74780387 0.00031818018 0)
(1.0136216 0.00024904585 0)
(1.3093323 0.00016666987 0)
(1.6017081 0.00011264665 0)
(1.8421723 7.0213862e-05 0)
(1.9793239 2.3940451e-05 0)
(1.9793239 -2.3941388e-05 0)
(1.8421723 -7.0215968e-05 0)
(1.6017081 -0.00011265175 0)
(1.3093323 -0.00016668066 0)
(1.0136216 -0.0002490647 0)
(0.74780389 -0.00031820719 0)
(0.52772026 -0.00030399411 0)
(0.35591524 -0.00021178845 0)
(0.22724701 -0.00010875766 0)
(0.13357994 -3.9510598e-05 0)
(0.066677314 -8.1823647e-06 0)
(0.019493788 -7.0718632e-07 0)
(0.020187017 -3.7419174e-06 0)
(0.068813532 -2.4638643e-05 0)
(0.13732107 -9.6548551e-05 0)
(0.23247391 -0.0002483946 0)
(0.36204617 -0.00047268781 0)
(0.53373556 -0.00067421184 0)
(0.75267407 -0.00069486945 0)
(1.0170176 -0.00049687372 0)
(1.3116385 -0.00023345928 0)
(1.6034438 -4.9824599e-05 0)
(1.8436588 1.9764464e-05 0)
(1.9807026 1.3427562e-05 0)
(1.9807026 -1.3427344e-05 0)
(1.8436588 -1.9762562e-05 0)
(1.6034438 4.9830612e-05 0)
(1.3116385 0.000233472 0)
(1.0170177 0.00049689501 0)
(0.75267408 0.00069489797 0)
(0.53373557 0.00067424126 0)
(0.36204618 0.00047271026 0)
(0.23247391 0.00024840831 0)
(0.13732107 9.6552732e-05 0)
(0.068813528 2.4643283e-05 0)
(0.020187015 3.7417181e-06 0)
(0.020018442 2.0918374e-06 0)
(0.068327405 1.2720769e-05 0)
(0.13655404 4.6877259e-05 0)
(0.23159544 0.00011389739 0)
(0.36138709 0.00019769268 0)
(0.53366969 0.00023903236 0)
(0.75344344 0.00020559813 0)
(1.0184881 0.00011361108 0)
(1.3134639 7.43134e-05 0)
(1.6053464 7.9532462e-05 0)
(1.8455118 7.0515707e-05 0)
(1.9825245 2.7824197e-05 0)
(1.9825245 -2.7828013e-05 0)
(1.8455118 -7.0520366e-05 0)
(1.6053464 -7.9538415e-05 0)
(1.3134639 -7.4320701e-05 0)
(1.0184881 -0.00011361905 0)
(0.75344342 -0.00020560522 0)
(0.53366967 -0.00023903784 0)
(0.36138707 -0.00019769548 0)
(0.23159543 -0.00011389779 0)
(0.13655404 -4.6877477e-05 0)
(0.068327404 -1.2719362e-05 0)
(0.020018441 -2.0919718e-06 0)
(0.019966547 7.0076491e-07 0)
(0.068159231 4.6870477e-06 0)
(0.13624021 1.9355445e-05 0)
(0.2311194 5.6456179e-05 0)
(0.36078093 0.00013444568 0)
(0.53306293 0.00025829321 0)
(0.75295637 0.00035344745 0)
(1.0181104 0.00036912006 0)
(1.313184 0.00030758876 0)
(1.6051633 0.00022777243 0)
(1.8453995 0.00014555953 0)
(1.9824491 4.9997554e-05 0)
(1.9824491 -4.9996477e-05 0)
(1.8453995 -0.00014555803 0)
(1.6051633 -0.00022777049 0)
(1.313184 -0.00030758713 0)
(1.0181104 -0.00036911911 0)
(0.75295638 -0.00035344811 0)
(0.53306294 -0.00025829512 0)
(0.36078093 -0.00013444786 0)
(0.2311194 -5.6457752e-05 0)
(0.13624021 -1.9356141e-05 0)
(0.068159234 -4.6874976e-06 0)
(0.019966548 -7.0075818e-07 0)
(0.019942203 2.907693e-07 0)
(0.068078703 1.987199e-06 0)
(0.13608628 8.2361195e-06 0)
(0.23087699 2.369933e-05 0)
(0.36044744 5.6881645e-05 0)
(0.53266448 0.00012306889 0)
(0.75256878 0.00022681822 0)
(1.017808 0.00032272222 0)
(1.3129044 0.00034572461 0)
(1.604912 0.00030729974 0)
(1.8452029 0.00021095304 0)
(1.9822898 7.4614396e-05 0)
(1.9822898 -7.4614781e-05 0)
(1.8452029 -0.00021095349 0)
(1.604912 -0.00030730028 0)
(1.3129044 -0.00034572456 0)
(1.017808 -0.00032272163 0)
(0.75256878 -0.00022681748 0)
(0.53266448 -0.00012306813 0)
(0.36044744 -5.6881091e-05 0)
(0.23087699 -2.3698924e-05 0)
(0.13608628 -8.2360922e-06 0)
(0.068078703 -1.9868217e-06 0)
(0.019942204 -2.9080239e-07 0)
(0.019933132 1.7181578e-07 0)
(0.068047755 1.1940708e-06 0)
(0.13602489 5.0652022e-06 0)
(0.23077535 1.4968868e-05 0)
(0.36029898 3.6219573e-05 0)
(0.5324792 7.69443e-05 0)
(0.75239427 0.00014713779 0)
(1.0177222 0.00023749036 0)
(1.3129292 0.00028525603 0)
(1.6049746 0.00027441497 0)
(1.8452865 0.00019644627 0)
(1.9823834 7.1177043e-05 0)
(1.9823834 -7.1177018e-05 0)
(1.8452865 -0.00019644629 0)
(1.6049746 -0.00027441507 0)
(1.3129292 -0.0002852561 0)
(1.0177222 -0.00023749036 0)
(0.75239427 -0.00014713825 0)
(0.5324792 -7.694483e-05 0)
(0.36029899 -3.6219883e-05 0)
(0.23077535 -1.4968926e-05 0)
(0.13602489 -5.0651793e-06 0)
(0.068047756 -1.1939756e-06 0)
(0.019933132 -1.7182285e-07 0)
(0.0199234 1.5587627e-07 0)
(0.068015507 1.0700732e-06 0)
(0.13596286 4.4934693e-06 0)
(0.23067607 1.3195475e-05 0)
(0.36015773 3.1857163e-05 0)
(0.53230178 6.6958305e-05 0)
(0.75221429 0.00012411898 0)
(1.0176105 0.00019917063 0)
(1.3129358 0.00025490856 0)
(1.6050904 0.00024595183 0)
(1.8454579 0.00018127912 0)
(1.9825798 6.6548708e-05 0)
(1.9825798 -6.6548418e-05 0)
(1.8454579 -0.0001812789 0)
(1.6050904 -0.00024595162 0)
(1.3129358 -0.0002549082 0)
(1.0176105 -0.00019917041 0)
(0.75221429 -0.00012411905 0)
(0.53230178 -6.6958527e-05 0)
(0.36015773 -3.1857324e-05 0)
(0.23067607 -1.3195596e-05 0)
(0.13596286 -4.4933758e-06 0)
(0.068015507 -1.0702854e-06 0)
(0.0199234 -1.5585064e-07 0)
(0.019915697 1.2758697e-07 0)
(0.067989792 8.7801368e-07 0)
(0.13591293 3.6960047e-06 0)
(0.23059503 1.0901613e-05 0)
(0.36003987 2.6613378e-05 0)
(0.53214753 5.7237181e-05 0)
(0.75204133 0.00010911059 0)
(1.0174723 0.00017936641 0)
(1.3128926 0.00023802492 0)
(1.6051414 0.00023746769 0)
(1.8455877 0.00017750693 0)
(1.9827514 6.553955e-05 0)
(1.9827514 -6.5539403e-05 0)
(1.8455877 -0.00017750683 0)
(1.6051414 -0.00023746753 0)
(1.3128926 -0.00023802462 0)
(1.0174723 -0.00017936607 0)
(0.75204133 -0.00010911027 0)
(0.53214753 -5.7236864e-05 0)
(0.36003987 -2.6613087e-05 0)
(0.23059503 -1.0901515e-05 0)
(0.13591293 -3.6957673e-06 0)
(0.067989793 -8.7832277e-07 0)
(0.019915697 -1.2754397e-07 0)
(0.019909217 1.046592e-07 0)
(0.067968141 7.2313128e-07 0)
(0.13587084 3.0521076e-06 0)
(0.23052654 9.0118372e-06 0)
(0.35993984 2.1999902e-05 0)
(0.53201542 4.7473488e-05 0)
(0.75188901 9.2014153e-05 0)
(1.0173341 0.00015618202 0)
(1.3128278 0.00021699692 0)
(1.6051595 0.00022709644 0)
(1.8456699 0.00017232647 0)
(1.982868 6.4147807e-05 0)
(1.982868 -6.4147739e-05 0)
(1.8456699 -0.00017232639 0)
(1.6051595 -0.00022709628 0)
(1.3128278 -0.0002169966 0)
(1.0173341 -0.0001561816 0)
(0.75188901 -9.2013609e-05 0)
(0.53201542 -4.7472874e-05 0)
(0.35993984 -2.1999367e-05 0)
(0.23052654 -9.0116287e-06 0)
(0.13587084 -3.0517776e-06 0)
(0.067968141 -7.2352041e-07 0)
(0.019909217 -1.0460285e-07 0)
(0.019903971 8.6127924e-08 0)
(0.067950552 5.9695776e-07 0)
(0.13583649 2.5273822e-06 0)
(0.2304703 7.4916207e-06 0)
(0.35985692 1.8376321e-05 0)
(0.53190436 3.9835736e-05 0)
(0.75175836 7.7712243e-05 0)
(1.0172122 0.00013432449 0)
(1.3127613 0.00019323389 0)
(1.6051772 0.00021058367 0)
(1.8457533 0.00016272989 0)
(1.9829863 6.1084334e-05 0)
(1.9829863 -6.1084315e-05 0)
(1.8457533 -0.00016272982 0)
(1.6051772 -0.00021058348 0)
(1.3127613 -0.00019323352 0)
(1.0172122 -0.00013432395 0)
(0.75175836 -7.7711477e-05 0)
(0.53190436 -3.9834871e-05 0)
(0.35985692 -1.8375589e-05 0)
(0.2304703 -7.491325e-06 0)
(0.13583649 -2.526972e-06 0)
(0.067950552 -5.9741597e-07 0)
(0.019903971 -8.6059797e-08 0)
(0.019899543 7.3357527e-08 0)
(0.067935688 5.0896e-07 0)
(0.13580742 2.1568923e-06 0)
(0.23042259 6.402771e-06 0)
(0.35978626 1.5747609e-05 0)
(0.5318089 3.4277858e-05 0)
(0.75164409 6.7204667e-05 0)
(1.0171021 0.00011723005 0)
(1.3126976 0.00017262482 0)
(1.6051928 0.00019308925 0)
(1.8458371 0.00015219884 0)
(1.9831061 5.7544869e-05 0)
(1.9831061 -5.7544839e-05 0)
(1.8458371 -0.00015219873 0)
(1.6051928 -0.00019308901 0)
(1.3126976 -0.00017262441 0)
(1.0171021 -0.00011722941 0)
(0.75164409 -6.7203731e-05 0)
(0.5318089 -3.4276796e-05 0)
(0.35978626 -1.5746711e-05 0)
(0.23042259 -6.4023989e-06 0)
(0.13580742 -2.1563993e-06 0)
(0.067935688 -5.0949036e-07 0)
(0.019899543 -7.3277337e-08 0)
(0.019895721 6.3727399e-08 0)
(0.06792285 4.4252288e-07 0)
(0.13578228 1.8767409e-06 0)
(0.23038125 5.5765349e-06 0)
(0.35972483 1.3738695e-05 0)
(0.53172535 2.9998025e-05 0)
(0.75154264 5.9111594e-05 0)
(1.0170011 0.00010388826 0)
(1.3126344 0.00015540294 0)
(1.6052015 0.00017849546 0)
(1.8459125 0.00014271571 0)
(1.9832185 5.4330686e-05 0)
(1.9832185 -5.4330629e-05 0)
(1.8459125 -0.00014271557 0)
(1.6052015 -0.00017849519 0)
(1.3126344 -0.00015540251 0)
(1.0170011 -0.00010388754 0)
(0.75154264 -5.9110517e-05 0)
(0.53172535 -2.9996798e-05 0)
(0.35972483 -1.3737653e-05 0)
(0.23038125 -5.5761049e-06 0)
(0.13578228 -1.8761632e-06 0)
(0.06792285 -4.4314811e-07 0)
(0.019895721 -6.3633073e-08 0)
(0.019892371 5.6089877e-08 0)
(0.067911586 3.8978209e-07 0)
(0.13576021 1.6541262e-06 0)
(0.2303449 4.9187715e-06 0)
(0.35967069 1.2132018e-05 0)
(0.53165136 2.6542443e-05 0)
(0.7514519 5.2498784e-05 0)
(1.0169086 9.2875728e-05 0)
(1.3125728 0.00014061499 0)
(1.605205 0.00016529633 0)
(1.8459798 0.00013398943 0)
(1.9833221 5.1387521e-05 0)
(1.9833221 -5.1387448e-05 0)
(1.8459798 -0.00013398929 0)
(1.605205 -0.00016529608 0)
(1.3125728 -0.00014061454 0)
(1.0169086 -9.2874926e-05 0)
(0.7514519 -5.2497567e-05 0)
(0.53165136 -2.6541044e-05 0)
(0.35967069 -1.2130827e-05 0)
(0.2303449 -4.9182875e-06 0)
(0.13576021 -1.6534603e-06 0)
(0.067911586 -3.905203e-07 0)
(0.019892371 -5.5979629e-08 0)
(0.019889403 4.984854e-08 0)
(0.067901607 3.4662272e-07 0)
(0.13574064 1.4717643e-06 0)
(0.23031264 4.3793946e-06 0)
(0.35962253 1.0812312e-05 0)
(0.53158531 2.3691404e-05 0)
(0.75137029 4.6984134e-05 0)
(1.016824 8.3546316e-05 0)
(1.3125139 0.00012773753 0)
(1.6052051 0.0001529336 0)
(1.8460415 0.00012582051 0)
(1.9834196 4.8616571e-05 0)
(1.9834196 -4.8616495e-05 0)
(1.8460415 -0.00012582039 0)
(1.6052051 -0.00015293339 0)
(1.3125139 -0.0001277371 0)
(1.016824 -8.3545449e-05 0)
(0.75137029 -4.698277e-05 0)
(0.53158531 -2.3689816e-05 0)
(0.35962253 -1.0810958e-05 0)
(0.23031264 -4.3788533e-06 0)
(0.13574064 -1.4710091e-06 0)
(0.067901607 -3.4747966e-07 0)
(0.019889403 -4.9721828e-08 0)
(0.019886752 4.4698383e-08 0)
(0.067892685 3.1094909e-07 0)
(0.13572313 1.3208175e-06 0)
(0.23028375 3.9322101e-06 0)
(0.35957935 9.7158816e-06 0)
(0.53152592 2.1315591e-05 0)
(0.75129648 4.2360262e-05 0)
(1.0167465 7.5619918e-05 0)
(1.3124581 0.00011654242 0)
(1.6052027 0.00014169885 0)
(1.8460982 0.00011827115 0)
(1.9835117 4.6031635e-05 0)
(1.9835117 -4.6031564e-05 0)
(1.8460982 -0.00011827105 0)
(1.6052027 -0.00014169868 0)
(1.3124581 -0.000116542 0)
(1.0167465 -7.5618993e-05 0)
(0.75129648 -4.2358747e-05 0)
(0.53152592 -2.1313803e-05 0)
(0.35957935 -9.7143581e-06 0)
(0.23028375 -3.9316085e-06 0)
(0.13572313 -1.3199769e-06 0)
(0.067892685 -3.1191958e-07 0)
(0.019886752 -4.4555931e-08 0)
(0.019884362 4.0385924e-08 0)
(0.067884644 2.8104463e-07 0)
(0.13570735 1.1941554e-06 0)
(0.23025769 3.5564906e-06 0)
(0.35954035 8.7928973e-06 0)
(0.53147216 1.9310038e-05 0)
(0.75122934 3.8440182e-05 0)
(1.0166753 6.8838992e-05 0)
(1.3124053 0.00010678363 0)
(1.6051983 0.00013155243 0)
(1.8461504 0.00011132815 0)
(1.9835985 4.3631217e-05 0)
(1.9835985 -4.3631155e-05 0)
(1.8461504 -0.00011132808 0)
(1.6051983 -0.0001315523 0)
(1.3124053 -0.00010678324 0)
(1.0166753 -6.8838016e-05 0)
(0.75122934 -3.8438519e-05 0)
(0.53147216 -1.9308053e-05 0)
(0.35954035 -8.7912087e-06 0)
(0.23025769 -3.5558284e-06 0)
(0.13570735 -1.1932371e-06 0)
(0.067884644 -2.8211571e-07 0)
(0.019884362 -4.0229408e-08 0)
(0.019882195 3.6710878e-08 0)
(0.067877349 2.5554421e-07 0)
(0.13569303 1.0860782e-06 0)
(0.23023403 3.2356333e-06 0)
(0.3595049 8.0035868e-06 0)
(0.5314232 1.7590941e-05 0)
(0.75116796 3.5067254e-05 0)
(1.0166096 6.2964207e-05 0)
(1.3123553 9.8203323e-05 0)
(1.6051923 0.00012233377 0)
(1.8461982 0.0001049133 0)
(1.9836803 4.1390523e-05 0)
(1.9836803 -4.1390474e-05 0)
(1.8461982 -0.00010491325 0)
(1.6051923 -0.00012233369 0)
(1.3123553 -9.8202957e-05 0)
(1.0166096 -6.296319e-05 0)
(0.75116797 -3.5065457e-05 0)
(0.5314232 -1.7588775e-05 0)
(0.3595049 -8.0017472e-06 0)
(0.23023403 -3.2349139e-06 0)
(0.13569303 -1.0850924e-06 0)
(0.067877348 -2.5669938e-07 0)
(0.019882195 -3.654244e-08 0)
(0.019880219 3.3538045e-08 0)
(0.067870695 2.3351753e-07 0)
(0.13567996 9.9267247e-07 0)
(0.23021243 2.9581569e-06 0)
(0.35947252 7.3202979e-06 0)
(0.53137842 1.6100145e-05 0)
(0.75111164 3.2133031e-05 0)
(1.0165488 5.7823456e-05 0)
(1.3123082 9.0602589e-05 0)
(1.6051852 0.00011395357 0)
(1.8462423 9.8956114e-05 0)
(1.9837576 3.9289007e-05 0)
(1.9837576 -3.9288975e-05 0)
(1.8462423 -9.8956099e-05 0)
(1.6051852 -0.00011395354 0)
(1.3123082 -9.0602255e-05 0)
(1.0165488 -5.782241e-05 0)
(0.75111164 -3.2131119e-05 0)
(0.53137842 -1.6097822e-05 0)
(0.35947252 -7.3183271e-06 0)
(0.23021243 -2.957386e-06 0)
(0.13567996 -9.9162965e-07 0)
(0.067870695 -2.3474041e-07 0)
(0.019880219 -3.3359844e-08 0)
(0.019878409 3.0773311e-08 0)
(0.0678646 2.1431533e-07 0)
(0.13566798 9.1120109e-07 0)
(0.23019263 2.7159924e-06 0)
(0.35944282 6.7234295e-06 0)
(0.53133728 1.4796019e-05 0)
(0.75105976 2.9559707e-05 0)
(1.0164925 5.3292595e-05 0)
(1.3122638 8.3831693e-05 0)
(1.6051772 0.00010632421 0)
(1.846283 9.3403377e-05 0)
(1.9838307 3.7312466e-05 0)
(1.9838307 -3.7312454e-05 0)
(1.846283 -9.3403391e-05 0)
(1.6051772 -0.00010632421 0)
(1.3122638 -8.3831396e-05 0)
(1.0164925 -5.3291531e-05 0)
(0.75105977 -2.9557702e-05 0)
(0.53133728 -1.4793564e-05 0)
(0.35944282 -6.721348e-06 0)
(0.23019263 -2.7151768e-06 0)
(0.13566798 -9.1011069e-07 0)
(0.067864599 -2.1559198e-07 0)
(0.019878409 -3.0587198e-08 0)
(0.019876745 2.8342897e-08 0)
(0.067858993 1.9742931e-07 0)
(0.13565697 8.3952514e-07 0)
(0.23017441 2.5028392e-06 0)
(0.35941547 6.1976577e-06 0)
(0.53129936 1.3645806e-05 0)
(0.75101183 2.728533e-05 0)
(1.0164401 4.9271781e-05 0)
(1.3122219 7.776782e-05 0)
(1.6051688 9.9356284e-05 0)
(1.8463207 8.8213694e-05 0)
(1.9838998 3.5449526e-05 0)
(1.9838998 -3.5449535e-05 0)
(1.8463207 -8.821374e-05 0)
(1.6051688 -9.9356338e-05 0)
(1.3122219 -7.7767563e-05 0)
(1.0164401 -4.9270708e-05 0)
(0.75101184 -2.7283249e-05 0)
(0.53129936 -1.3643242e-05 0)
(0.35941547 -6.1954835e-06 0)
(0.23017441 -2.5019849e-06 0)
(0.13565697 -8.3839417e-07 0)
(0.067858992 -1.9874948e-07 0)
(0.019876745 -2.8150231e-08 0)
(0.019875208 2.6188797e-08 0)
(0.067853818 1.8245895e-07 0)
(0.1356468 7.7595803e-07 0)
(0.23015758 2.3137256e-06 0)
(0.3593902 5.7308825e-06 0)
(0.5312643 1.2623575e-05 0)
(0.75096742 2.5260369e-05 0)
(1.0163914 4.5679599e-05 0)
(1.3121824 7.2308176e-05 0)
(1.6051599 9.2973539e-05 0)
(1.8463555 8.3350454e-05 0)
(1.9839652 3.3689531e-05 0)
(1.9839652 -3.3689566e-05 0)
(1.8463555 -8.3350538e-05 0)
(1.6051599 -9.2973644e-05 0)
(1.3121824 -7.2307962e-05 0)
(1.0163914 -4.5678521e-05 0)
(0.75096742 -2.5258225e-05 0)
(0.5312643 -1.262092e-05 0)
(0.3593902 -5.7286289e-06 0)
(0.23015758 -2.3128371e-06 0)
(0.13564679 -7.747907e-07 0)
(0.067853817 -1.8381658e-07 0)
(0.019875208 -2.5990374e-08 0)
(0.019873786 2.4265842e-08 0)
(0.067849027 1.6909166e-07 0)
(0.13563738 7.1918116e-07 0)
(0.230142 2.1447562e-06 0)
(0.35936679 5.3136011e-06 0)
(0.53123178 1.1708902e-05 0)
(0.75092616 2.3445598e-05 0)
(1.016346 4.2450596e-05 0)
(1.3121452 6.7367729e-05 0)
(1.6051509 8.7107698e-05 0)
(1.8463878 7.8785318e-05 0)
(1.9840271 3.2023903e-05 0)
(1.9840271 -3.202397e-05 0)
(1.8463878 -7.8785445e-05 0)
(1.6051509 -8.7107856e-05 0)
(1.3121452 -6.7367557e-05 0)
(1.016346 -4.2449516e-05 0)
(0.75092617 -2.34434e-05 0)
(0.53123178 -1.1706166e-05 0)
(0.35936679 -5.311276e-06 0)
(0.230142 -2.1438369e-06 0)
(0.13563738 -7.1797894e-07 0)
(0.067849027 -1.7048484e-07 0)
(0.019873786 -2.4061908e-08 0)
(0.019872467 2.2538479e-08 0)
(0.067844581 1.5708109e-07 0)
(0.13562864 6.6815426e-07 0)
(0.23012754 1.9928541e-06 0)
(0.35934505 4.9382909e-06 0)
(0.53120156 1.088558e-05 0)
(0.75088776 2.1809797e-05 0)
(1.0163035 3.9532255e-05 0)
(1.31211 6.2876612e-05 0)
(1.6051418 8.1702255e-05 0)
(1.8464178 7.4492051e-05 0)
(1.9840857 3.0444497e-05 0)
(1.9840857 -3.0444602e-05 0)
(1.8464178 -7.4492229e-05 0)
(1.6051418 -8.170247e-05 0)
(1.31211 -6.287648e-05 0)
(1.0163035 -3.9531172e-05 0)
(0.75088776 -2.1807548e-05 0)
(0.53120157 -1.0882768e-05 0)
(0.35934505 -4.9358984e-06 0)
(0.23012754 -1.991906e-06 0)
(0.13562864 -6.6691651e-07 0)
(0.067844581 -1.5851151e-07 0)
(0.019872467 -2.2328812e-08 0)
(0.01987124 2.0978249e-08 0)
(0.067840446 1.4623e-07 0)
(0.13562051 6.2204383e-07 0)
(0.23011408 1.8555513e-06 0)
(0.35932481 4.5989086e-06 0)
(0.53117342 1.0140547e-05 0)
(0.75085195 2.032771e-05 0)
(1.0162638 3.6881881e-05 0)
(1.3120768 5.8777112e-05 0)
(1.6051327 7.6706936e-05 0)
(1.8464458 7.0451538e-05 0)
(1.9841412 2.8945268e-05 0)
(1.9841412 -2.8945422e-05 0)
(1.8464458 -7.0451777e-05 0)
(1.6051327 -7.6707214e-05 0)
(1.3120768 -5.8777022e-05 0)
(1.0162638 -3.6880795e-05 0)
(0.75085195 -2.0325413e-05 0)
(0.53117342 -1.0137663e-05 0)
(0.35932481 -4.5964494e-06 0)
(0.23011408 -1.8545758e-06 0)
(0.13562051 -6.2076869e-07 0)
(0.067840445 -1.4770193e-07 0)
(0.01987124 -2.0762319e-08 0)
(0.019870096 1.9562137e-08 0)
(0.067836592 1.3637885e-07 0)
(0.13561293 5.8017512e-07 0)
(0.23010153 1.7308492e-06 0)
(0.35930594 4.290556e-06 0)
(0.53114716 9.4632064e-06 0)
(0.75081849 1.8978783e-05 0)
(1.0162266 3.4464484e-05 0)
(1.3120455 5.5021098e-05 0)
(1.6051237 7.2080953e-05 0)
(1.8464718 6.6643004e-05 0)
(1.9841938 2.7519781e-05 0)
(1.9841938 -2.7520001e-05 0)
(1.8464718 -6.6643318e-05 0)
(1.6051237 -7.2081302e-05 0)
(1.3120455 -5.5021053e-05 0)
(1.0162266 -3.4463399e-05 0)
(0.75081849 -1.8976439e-05 0)
(0.53114716 -9.4602492e-06 0)
(0.35930594 -4.28803e-06 0)
(0.23010153 -1.7298478e-06 0)
(0.13561293 -5.7886092e-07 0)
(0.067836592 -1.378976e-07 0)
(0.019870096 -1.9339336e-08 0)
(0.019869029 1.8271306e-08 0)
(0.067832994 1.2739709e-07 0)
(0.13560586 5.4199559e-07 0)
(0.23008981 1.6171098e-06 0)
(0.35928831 4.0092137e-06 0)
(0.53112262 8.844842e-06 0)
(0.75078719 1.7746065e-05 0)
(1.0161917 3.2251124e-05 0)
(1.3120159 5.156837e-05 0)
(1.6051149 6.7786466e-05 0)
(1.846496 6.3053228e-05 0)
(1.9842436 2.6164002e-05 0)
(1.9842436 -2.6164309e-05 0)
(1.846496 -6.3053634e-05 0)
(1.6051149 -6.7786899e-05 0)
(1.3120159 -5.1568382e-05 0)
(1.0161917 -3.2250047e-05 0)
(0.7507872 -1.7743678e-05 0)
(0.53112262 -8.8418142e-06 0)
(0.35928832 -4.0066223e-06 0)
(0.23008981 -1.6160852e-06 0)
(0.13560586 -5.4064255e-07 0)
(0.067832994 -1.2896694e-07 0)
(0.019869029 -1.8041245e-08 0)
(0.019868031 1.7090226e-08 0)
(0.067829631 1.1917712e-07 0)
(0.13559924 5.0704938e-07 0)
(0.23007886 1.5129816e-06 0)
(0.35927183 3.7515653e-06 0)
(0.53109966 8.2782615e-06 0)
(0.75075787 1.6615546e-05 0)
(1.0161589 3.0217713e-05 0)
(1.311988 4.8384901e-05 0)
(1.6051063 6.3793862e-05 0)
(1.8465187 5.9664014e-05 0)
(1.9842909 2.4872571e-05 0)
(1.9842909 -2.4872988e-05 0)
(1.8465186 -5.9664531e-05 0)
(1.6051063 -6.3794396e-05 0)
(1.311988 -4.8384983e-05 0)
(1.0161589 -3.0216657e-05 0)
(0.75075788 -1.6613127e-05 0)
(0.53109966 -8.2751705e-06 0)
(0.35927183 -3.7489148e-06 0)
(0.23007886 -1.5119391e-06 0)
(0.13559924 -5.0566172e-07 0)
(0.06782963 -1.2079876e-07 0)
(0.019868031 -1.6853107e-08 0)
(0.019867097 1.6005916e-08 0)
(0.067826482 1.116291e-07 0)
(0.13559305 4.7495566e-07 0)
(0.2300686 1.4173347e-06 0)
(0.35925639 3.5148329e-06 0)
(0.53107814 7.7574252e-06 0)
(0.75073038 1.5575436e-05 0)
(1.0161281 2.8343996e-05 0)
(1.3119617 4.5442035e-05 0)
(1.6050979 6.0073627e-05 0)
(1.8465398 5.6466915e-05 0)
(1.9843356 2.364317e-05 0)
(1.9843356 -2.3643722e-05 0)
(1.8465398 -5.6467565e-05 0)
(1.6050979 -6.0074282e-05 0)
(1.3119617 -4.544221e-05 0)
(1.0161281 -2.8342982e-05 0)
(0.75073038 -1.5573005e-05 0)
(0.53107814 -7.7542882e-06 0)
(0.35925639 -3.5121388e-06 0)
(0.2300686 -1.4162833e-06 0)
(0.13559305 -4.7354397e-07 0)
(0.067826482 -1.1329679e-07 0)
(0.019867096 -1.5762954e-08 0)
(0.019866221 1.5007457e-08 0)
(0.067823531 1.0467746e-07 0)
(0.13558724 4.4539377e-07 0)
(0.23005898 1.3292183e-06 0)
(0.35924191 3.2966822e-06 0)
(0.53105796 7.2772648e-06 0)
(0.75070457 1.4615828e-05 0)
(1.0160992 2.6612784e-05 0)
(1.3119367 4.2714932e-05 0)
(1.6050897 5.6604089e-05 0)
(1.8465596 5.3444355e-05 0)
(1.984378 2.247082e-05 0)
(1.984378 -2.2471531e-05 0)
(1.8465596 -5.3445158e-05 0)
(1.6050897 -5.6604891e-05 0)
(1.3119367 -4.2715228e-05 0)
(1.0160992 -2.6611845e-05 0)
(0.75070458 -1.4613418e-05 0)
(0.53105796 -7.2741149e-06 0)
(0.35924191 -3.2939738e-06 0)
(0.23005898 -1.3281731e-06 0)
(0.13558724 -4.439777e-07 0)
(0.06782353 -1.0637582e-07 0)
(0.019866221 -1.476135e-08 0)
(0.0198654 1.4085579e-08 0)
(0.067820761 9.8258173e-08 0)
(0.1355818 4.1809193e-07 0)
(0.23004995 1.2478251e-06 0)
(0.35922832 3.0951244e-06 0)
(0.53103901 6.8334433e-06 0)
(0.75068032 1.3728229e-05 0)
(1.0160719 2.5009444e-05 0)
(1.3119132 4.0182699e-05 0)
(1.6050818 5.3361318e-05 0)
(1.8465781 5.0592518e-05 0)
(1.9844182 2.1354768e-05 0)
(1.9844182 -2.1355658e-05 0)
(1.8465781 -5.0593498e-05 0)
(1.6050818 -5.3362291e-05 0)
(1.3119132 -4.0183152e-05 0)
(1.0160719 -2.5008627e-05 0)
(0.75068033 -1.3725894e-05 0)
(0.53103901 -6.8303355e-06 0)
(0.35922832 -3.0924502e-06 0)
(0.23004995 -1.2468088e-06 0)
(0.13558179 -4.1670293e-07 0)
(0.067820761 -9.9958833e-08 0)
(0.019865399 -1.3841003e-08 0)
(0.019864628 1.3232324e-08 0)
(0.067818161 9.2316139e-08 0)
(0.13557668 3.9281604e-07 0)
(0.23004148 1.1724613e-06 0)
(0.35921555 2.9084581e-06 0)
(0.5310212 6.4222683e-06 0)
(0.75065752 1.29054e-05 0)
(1.0160463 2.3521272e-05 0)
(1.3118909 3.7826517e-05 0)
(1.6050743 5.0329488e-05 0)
(1.8465955 4.7892665e-05 0)
(1.9844563 2.0289707e-05 0)
(1.9844563 -2.0290792e-05 0)
(1.8465955 -4.7893842e-05 0)
(1.6050743 -5.0330662e-05 0)
(1.3118909 -3.782717e-05 0)
(1.0160463 -2.352064e-05 0)
(0.75065752 -1.2903219e-05 0)
(0.5310212 -6.4192866e-06 0)
(0.35921555 -2.9058917e-06 0)
(0.23004148 -1.171507e-06 0)
(0.13557668 -3.9150039e-07 0)
(0.06781816 -9.3974433e-08 0)
(0.019864628 -1.299644e-08 0)
(0.019863903 1.2440908e-08 0)
(0.067815716 8.6804638e-08 0)
(0.13557187 3.6936772e-07 0)
(0.23003351 1.1025364e-06 0)
(0.35920355 2.7352221e-06 0)
(0.53100445 6.0405381e-06 0)
(0.75063606 1.2141054e-05 0)
(1.0160221 2.2137463e-05 0)
(1.3118699 3.5631003e-05 0)
(1.6050669 4.7488559e-05 0)
(1.8466118 4.5346314e-05 0)
(1.9844924 1.9276593e-05 0)
(1.9844924 -1.9277885e-05 0)
(1.8466118 -4.5347704e-05 0)
(1.6050669 -4.7489962e-05 0)
(1.3118699 -3.5631907e-05 0)
(1.0160221 -2.2137097e-05 0)
(0.75063606 -1.2139135e-05 0)
(0.53100445 -6.0378026e-06 0)
(0.35920355 -2.7328682e-06 0)
(0.23003351 -1.1016896e-06 0)
(0.13557187 -3.6818952e-07 0)
(0.067815715 -8.835603e-08 0)
(0.019863903 -1.2223879e-08 0)
(0.019863221 1.1705315e-08 0)
(0.067813417 8.1681819e-08 0)
(0.13556735 3.4756898e-07 0)
(0.23002601 1.0375242e-06 0)
(0.35919226 2.5741324e-06 0)
(0.53098868 5.6854769e-06 0)
(0.75061585 1.1429733e-05 0)
(1.0159993 2.0848268e-05 0)
(1.31185 3.3581202e-05 0)
(1.6050599 4.4827007e-05 0)
(1.8466272 4.2931558e-05 0)
(1.9845266 1.8309e-05 0)
(1.9845266 -1.8310504e-05 0)
(1.8466271 -4.2933172e-05 0)
(1.6050599 -4.4828664e-05 0)
(1.31185 -3.3582417e-05 0)
(1.0159993 -2.0848272e-05 0)
(0.75061585 -1.1428222e-05 0)
(0.53098868 -5.6831498e-06 0)
(0.35919225 -2.5721316e-06 0)
(0.23002601 -1.0368448e-06 0)
(0.13556734 -3.4661285e-07 0)
(0.067813415 -8.3038162e-08 0)
(0.01986322 -1.1520806e-08 0)
(0.019862579 1.1020563e-08 0)
(0.067811252 7.6913551e-08 0)
(0.13556309 3.2727524e-07 0)
(0.23001895 9.7699164e-07 0)
(0.35918162 2.4241055e-06 0)
(0.53097384 5.3546846e-06 0)
(0.75059681 1.0766709e-05 0)
(1.0159778 1.9645676e-05 0)
(1.3118312 3.1666041e-05 0)
(1.6050532 4.2327852e-05 0)
(1.8466415 4.0656823e-05 0)
(1.984559 1.7390113e-05 0)
(1.984559 -1.7391824e-05 0)
(1.8466415 -4.0658662e-05 0)
(1.6050532 -4.2329787e-05 0)
(1.3118312 -3.1667631e-05 0)
(1.0159778 -1.9646176e-05 0)
(0.75059681 -1.0765793e-05 0)
(0.53097384 -5.3529771e-06 0)
(0.35918162 -2.4226405e-06 0)
(0.23001895 -9.765561e-07 0)
(0.13556308 -3.2664913e-07 0)
(0.06781125 -7.795992e-08 0)
(0.019862578 -1.0886155e-08 0)
(0.019861974 1.0381867e-08 0)
(0.067809213 7.2466002e-08 0)
(0.13555908 3.0834254e-07 0)
(0.2300123 9.2051645e-07 0)
(0.3591716 2.284126e-06 0)
(0.53095985 5.0459957e-06 0)
(0.75057886 1.0147718e-05 0)
(1.0159575 1.8521819e-05 0)
(1.3118134 2.9872711e-05 0)
(1.6050467 3.9982332e-05 0)
(1.8466551 3.8494397e-05 0)
(1.9845898 1.6511377e-05 0)
(1.9845898 -1.6513277e-05 0)
(1.8466551 -3.8496453e-05 0)
(1.6050467 -3.9984557e-05 0)
(1.3118134 -2.9874743e-05 0)
(1.0159575 -1.8522963e-05 0)
(0.75057886 -1.0147625e-05 0)
(0.53095985 -5.0451725e-06 0)
(0.3591716 -2.2834259e-06 0)
(0.2300123 -9.2041964e-07 0)
(0.13555907 -3.0818012e-07 0)
(0.067809211 -7.305733e-08 0)
(0.019861973 -1.0319383e-08 0)
(0.019861404 9.7857653e-09 0)
(0.067807292 6.8315935e-08 0)
(0.13555529 2.9067333e-07 0)
(0.23000603 8.6780021e-07 0)
(0.35916216 2.1534204e-06 0)
(0.53094666 4.7576407e-06 0)
(0.75056194 9.5692531e-06 0)
(1.0159384 1.7471012e-05 0)
(1.3117965 2.8194168e-05 0)
(1.6050405 3.7776767e-05 0)
(1.8466678 3.6462326e-05 0)
(1.9846188 1.5679222e-05 0)
(1.9846188 -1.5681273e-05 0)
(1.8466677 -3.6464568e-05 0)
(1.6050405 -3.7779283e-05 0)
(1.3117965 -2.8196707e-05 0)
(1.0159384 -1.7472968e-05 0)
(0.75056194 -9.5702552e-06 0)
(0.53094666 -4.7580227e-06 0)
(0.35916215 -2.1537629e-06 0)
(0.23000603 -8.6815567e-07 0)
(0.13555529 -2.9113523e-07 0)
(0.067807289 -6.8273569e-08 0)
(0.019861403 -9.8213773e-09 0)
(0.019860867 9.2280417e-09 0)
(0.067805479 6.4432391e-08 0)
(0.13555173 2.7413574e-07 0)
(0.23000012 8.1846358e-07 0)
(0.35915325 2.0311111e-06 0)
(0.53093422 4.4878178e-06 0)
(0.75054596 9.0277728e-06 0)
(1.0159203 1.6486321e-05 0)
(1.3117806 2.6617948e-05 0)
(1.6050346 3.5702929e-05 0)
(1.8466798 3.4523352e-05 0)
(1.9846465 1.4881502e-05 0)
(1.9846465 -1.4883647e-05 0)
(1.8466798 -3.4525732e-05 0)
(1.6050346 -3.5705714e-05 0)
(1.3117806 -2.6621051e-05 0)
(1.0159203 -1.6489271e-05 0)
(0.75054596 -9.0301843e-06 0)
(0.53093421 -4.4897795e-06 0)
(0.35915324 -2.0328195e-06 0)
(0.23000012 -8.1940003e-07 0)
(0.13555172 -2.754076e-07 0)
(0.067805476 -6.3540273e-08 0)
(0.019860866 -9.3917539e-09 0)
(0.01986036 8.7070165e-09 0)
(0.067803771 6.0805489e-08 0)
(0.13554837 2.5869018e-07 0)
(0.22999455 7.7236822e-07 0)
(0.35914485 1.9167661e-06 0)
(0.53092248 4.2353954e-06 0)
(0.75053089 8.5209774e-06 0)
(1.0159032 1.5564564e-05 0)
(1.3117655 2.5141964e-05 0)
(1.605029 3.375247e-05 0)
(1.846691 3.2709514e-05 0)
(1.9846726 1.4129645e-05 0)
(1.9846726 -1.4131792e-05 0)
(1.846691 -3.2711942e-05 0)
(1.605029 -3.3755473e-05 0)
(1.3117655 -2.5145669e-05 0)
(1.0159032 -1.5568698e-05 0)
(0.75053088 -8.5251529e-06 0)
(0.53092247 -4.2393703e-06 0)
(0.35914484 -1.9202158e-06 0)
(0.22999454 -7.7403574e-07 0)
(0.13554836 -2.6098282e-07 0)
(0.067803767 -5.881189e-08 0)
(0.019860359 -9.0305283e-09 0)
(0.019859881 8.2180204e-09 0)
(0.067802156 5.7398895e-08 0)
(0.13554519 2.4418133e-07 0)
(0.22998928 7.2908367e-07 0)
(0.35913691 1.8094633e-06 0)
(0.53091139 3.9986372e-06 0)
(0.75051664 8.0455194e-06 0)
(1.0158871 1.4698543e-05 0)
(1.3117512 2.3751484e-05 0)
(1.6050236 3.1913677e-05 0)
(1.8467017 3.0968553e-05 0)
(1.9846975 1.3405709e-05 0)
(1.9846975 -1.3407734e-05 0)
(1.8467017 -3.0970916e-05 0)
(1.6050236 -3.1916813e-05 0)
(1.3117512 -2.3755802e-05 0)
(1.0158871 -1.4704046e-05 0)
(0.75051663 -8.0518377e-06 0)
(0.53091138 -4.005103e-06 0)
(0.3591369 -1.8150714e-06 0)
(0.22998927 -7.3165193e-07 0)
(0.13554518 -2.4772547e-07 0)
(0.067802152 -5.4010112e-08 0)
(0.01985988 -8.7282929e-09 0)
(0.01985943 7.7626599e-09 0)
(0.067800635 5.4228173e-08 0)
(0.13554219 2.3067962e-07 0)
(0.22998432 6.8876624e-07 0)
(0.35912943 1.7093606e-06 0)
(0.53090093 3.7774173e-06 0)
(0.75050321 7.6009025e-06 0)
(1.0158719 1.3888958e-05 0)
(1.3117377 2.2452571e-05 0)
(1.6050185 3.0188999e-05 0)
(1.8467117 2.9353486e-05 0)
(1.9847208 1.2729037e-05 0)
(1.9847208 -1.2730781e-05 0)
(1.8467117 -2.9355612e-05 0)
(1.6050185 -3.0192135e-05 0)
(1.3117377 -2.2457465e-05 0)
(1.0158719 -1.3895983e-05 0)
(0.75050319 -7.6097315e-06 0)
(0.53090092 -3.7868504e-06 0)
(0.35912942 -1.7175378e-06 0)
(0.22998431 -6.9238855e-07 0)
(0.13554219 -2.3570149e-07 0)
(0.06780063 -4.9103611e-08 0)
(0.019859428 -8.4799027e-09 0)
(0.019859003 7.3331622e-09 0)
(0.067799193 5.1230403e-08 0)
(0.13553936 2.1791585e-07 0)
(0.22997961 6.5069913e-07 0)
(0.35912234 1.6150514e-06 0)
(0.53089102 3.5694e-06 0)
(0.75049047 7.1829063e-06 0)
(1.0158574 1.3126077e-05 0)
(1.3117249 2.1223447e-05 0)
(1.6050136 2.8555714e-05 0)
(1.8467212 2.7789236e-05 0)
(1.9847433 1.2072584e-05 0)
(1.9847433 -1.2073854e-05 0)
(1.8467212 -2.7790941e-05 0)
(1.6050136 -2.8558674e-05 0)
(1.3117249 -2.1228839e-05 0)
(1.0158574 -1.3134747e-05 0)
(0.75049045 -7.194606e-06 0)
(0.530891 -3.582283e-06 0)
(0.35912232 -1.6262098e-06 0)
(0.2299796 -6.5549243e-07 0)
(0.13553935 -2.2465002e-07 0)
(0.067799188 -4.4112007e-08 0)
(0.019859 -8.3415013e-09 0)
(0.0198586 6.9399332e-09 0)
(0.067797836 4.8488713e-08 0)
(0.13553669 2.0624883e-07 0)
(0.22997518 6.1580166e-07 0)
(0.35911566 1.5281863e-06 0)
(0.5308817 3.3768962e-06 0)
(0.75047849 6.7951277e-06 0)
(1.0158438 1.2418843e-05 0)
(1.3117128 2.0086488e-05 0)
(1.605009 2.7039303e-05 0)
(1.84673 2.6361214e-05 0)
(1.9847642 1.1468569e-05 0)
(1.9847642 -1.1469162e-05 0)
(1.84673 -2.6362263e-05 0)
(1.605009 -2.7041843e-05 0)
(1.3117128 -2.0092197e-05 0)
(1.0158438 -1.2429177e-05 0)
(0.75047846 -6.8099827e-06 0)