/*--------------------------------*- C++ -*----------------------------------*\
| =========                 |                                                 |
| \\      /  F ield         | OpenFOAM: The Open Source CFD Toolbox           |
|  \\    /   O peration     | Version:  2406                                  |
|   \\  /    A nd           | Website:  www.openfoam.com                      |
|    \\/     M anipulation  |                                                 |
\*---------------------------------------------------------------------------*/
FoamFile
{
    version     2.0;
    format      ascii;
    arch        "LSB;label=32;scalar=64";
    class       volScalarField;
    location    "18";
    object      p;
}
// * * * * * * * * * * * * * * * * * * * * * * * * * * * * * * * * * * * * * //

dimensions      [0 2 -2 0 0 0 0];

internalField   nonuniform List<scalar> 
1176
(
0.7969998
0.79702267
0.79704633
0.797054
0.79702247
0.79692777
0.79677054
0.79658438
0.79640518
0.79623802
0.7960834
0.79598779
0.7959878
0.7960834
0.79623803
0.79640518
0.79658437
0.79677051
0.79692772
0.79702238
0.79705387
0.79704617
0.79702249
0.79699961
0.77385137
0.77380441
0.77375665
0.77373975
0.77380225
0.77400461
0.77436993
0.77483433
0.77526519
0.7755513
0.77567069
0.77570495
0.77570496
0.7756707
0.77555131
0.77526522
0.77483436
0.77436997
0.77400466
0.77380232
0.77373983
0.77375674
0.7738045
0.77385146
0.75676661
0.75678862
0.75680841
0.75680651
0.75674744
0.75658627
0.7563145
0.75598655
0.75568034
0.75546755
0.75535675
0.75530793
0.75530793
0.75535675
0.75546756
0.75568035
0.75598655
0.75631449
0.75658625
0.75674742
0.75680648
0.75680839
0.75678859
0.75676658
0.74009472
0.74010384
0.7401159
0.7401323
0.74015485
0.74017242
0.74014018
0.74000677
0.73977466
0.73950209
0.73927789
0.73915739
0.73915739
0.7392779
0.73950211
0.73977467
0.74000678
0.74014019
0.74017242
0.74015484
0.7401323
0.74011589
0.74010384
0.74009471
0.72367567
0.72367962
0.72368461
0.72369067
0.72370038
0.72372065
0.72375683
0.72379835
0.72382001
0.72379614
0.72373402
0.72368139
0.72368139
0.72373403
0.72379615
0.72382002
0.72379835
0.72375684
0.72372065
0.72370038
0.72369068
0.72368462
0.72367962
0.72367567
0.70721401
0.70721643
0.70721967
0.70722371
0.70722862
0.70723546
0.70724962
0.70728094
0.70733093
0.70738817
0.70743088
0.70744754
0.70744754
0.70743088
0.70738818
0.70733093
0.70728094
0.70724962
0.70723546
0.70722862
0.70722371
0.70721967
0.70721643
0.70721401
0.6908082
0.69081034
0.69081315
0.69081658
0.69082047
0.69082399
0.69082605
0.69082823
0.69083678
0.69085401
0.69087191
0.69088362
0.69088362
0.69087191
0.69085401
0.69083678
0.69082823
0.69082605
0.69082399
0.69082047
0.69081658
0.69081315
0.69081034
0.6908082
0.67442834
0.67443009
0.67443242
0.67443534
0.67443901
0.67444339
0.67444784
0.67445099
0.67445223
0.67445385
0.67445089
0.67444838
0.67444838
0.67445089
0.67445384
0.67445223
0.67445099
0.67444784
0.67444338
0.67443901
0.67443534
0.67443242
0.67443009
0.67442834
0.65807405
0.65807551
0.65807743
0.65807985
0.65808286
0.65808665
0.65809169
0.65809874
0.65810742
0.65811745
0.65812522
0.65812881
0.65812881
0.65812522
0.65811745
0.65810742
0.65809874
0.65809169
0.65808665
0.65808286
0.65807984
0.65807743
0.6580755
0.65807405
0.64173636
0.64173756
0.64173917
0.6417412
0.64174377
0.64174695
0.64175111
0.6417575
0.64176766
0.64178079
0.64179512
0.64180442
0.64180442
0.64179512
0.64178079
0.64176766
0.6417575
0.64175111
0.64174695
0.64174377
0.6417412
0.64173917
0.64173756
0.64173636
0.62541198
0.62541301
0.62541438
0.62541613
0.62541834
0.62542106
0.62542446
0.62542931
0.62543717
0.62544783
0.62546039
0.62546953
0.62546952
0.62546039
0.62544783
0.62543717
0.6254293
0.62542446
0.62542106
0.62541834
0.62541612
0.62541438
0.625413
0.62541198
0.6090985
0.6090994
0.60910059
0.60910212
0.60910406
0.60910646
0.60910942
0.60911343
0.60911965
0.60912831
0.60913887
0.60914632
0.60914632
0.60913887
0.60912831
0.60911965
0.60911343
0.60910942
0.60910646
0.60910406
0.60910212
0.60910059
0.60909939
0.6090985
0.59279431
0.59279509
0.59279615
0.5927975
0.59279922
0.59280135
0.59280398
0.59280752
0.59281293
0.59282067
0.59283036
0.59283704
0.59283704
0.59283036
0.59282067
0.59281292
0.59280752
0.59280398
0.59280135
0.59279922
0.5927975
0.59279615
0.59279509
0.59279431
0.57649809
0.57649879
0.57649973
0.57650093
0.57650247
0.57650437
0.57650672
0.57650986
0.57651463
0.5765216
0.57653027
0.57653635
0.57653635
0.57653027
0.5765216
0.57651463
0.57650985
0.57650672
0.57650437
0.57650247
0.57650093
0.57649973
0.57649879
0.57649808
0.56020882
0.56020944
0.56021029
0.56021137
0.56021276
0.56021447
0.56021657
0.56021934
0.5602235
0.56022963
0.56023715
0.56024255
0.56024255
0.56023715
0.56022963
0.56022349
0.56021934
0.56021657
0.56021447
0.56021275
0.56021137
0.56021029
0.56020944
0.56020881
0.54392569
0.54392626
0.54392703
0.54392801
0.54392926
0.54393081
0.54393271
0.54393516
0.5439388
0.54394418
0.54395071
0.5439555
0.5439555
0.54395071
0.54394418
0.5439388
0.54393516
0.54393271
0.54393081
0.54392926
0.543928
0.54392702
0.54392626
0.54392569
0.52764807
0.52764858
0.52764928
0.52765017
0.52765131
0.52765273
0.52765445
0.52765666
0.52765988
0.52766464
0.52767036
0.52767465
0.52767465
0.52767036
0.52766464
0.52765988
0.52765666
0.52765445
0.52765273
0.52765131
0.52765017
0.52764928
0.52764858
0.52764806
0.51137539
0.51137586
0.51137649
0.51137731
0.51137836
0.51137965
0.51138123
0.51138322
0.51138609
0.51139034
0.51139539
0.51139926
0.51139926
0.51139539
0.51139034
0.51138609
0.51138322
0.51138123
0.51137965
0.51137836
0.51137731
0.51137649
0.51137586
0.51137538
0.49510719
0.49510762
0.49510821
0.49510896
0.49510992
0.49511111
0.49511255
0.49511436
0.49511693
0.49512074
0.49512524
0.49512873
0.49512873
0.49512524
0.49512074
0.49511694
0.49511436
0.49511255
0.49511111
0.49510992
0.49510895
0.4951082
0.49510762
0.49510718
0.47884308
0.47884348
0.47884402
0.47884471
0.47884559
0.47884669
0.47884802
0.47884967
0.47885199
0.47885541
0.47885945
0.4788626
0.4788626
0.47885945
0.47885541
0.47885199
0.47884967
0.47884802
0.47884669
0.47884559
0.4788447
0.47884401
0.47884347
0.47884307
0.4625827
0.46258307
0.46258357
0.46258421
0.46258503
0.46258605
0.46258727
0.46258878
0.46259089
0.46259398
0.46259763
0.4626005
0.4626005
0.46259763
0.46259399
0.46259089
0.46258878
0.46258727
0.46258605
0.46258503
0.46258421
0.46258357
0.46258307
0.4625827
0.44632577
0.44632611
0.44632657
0.44632717
0.44632793
0.44632887
0.44633001
0.44633139
0.44633331
0.44633612
0.44633944
0.44634205
0.44634205
0.44633944
0.44633613
0.44633331
0.4463314
0.44633
0.44632887
0.44632792
0.44632716
0.44632657
0.44632611
0.44632576
0.430072
0.43007232
0.43007275
0.4300733
0.43007401
0.43007489
0.43007594
0.43007722
0.43007897
0.43008154
0.43008458
0.43008696
0.43008696
0.43008458
0.43008155
0.43007897
0.43007722
0.43007594
0.43007489
0.43007401
0.4300733
0.43007274
0.43007231
0.430072
0.41382117
0.41382147
0.41382186
0.41382238
0.41382304
0.41382386
0.41382483
0.41382602
0.41382763
0.41382998
0.41383277
0.41383495
0.41383495
0.41383277
0.41382999
0.41382763
0.41382602
0.41382483
0.41382385
0.41382303
0.41382237
0.41382186
0.41382146
0.41382116
0.39757305
0.39757333
0.3975737
0.39757418
0.3975748
0.39757556
0.39757647
0.39757757
0.39757905
0.39758122
0.39758379
0.39758579
0.3975858
0.39758379
0.39758122
0.39757906
0.39757758
0.39757647
0.39757556
0.39757479
0.39757417
0.39757369
0.39757332
0.39757304
0.38132746
0.38132772
0.38132806
0.38132851
0.38132909
0.3813298
0.38133065
0.38133168
0.38133304
0.38133504
0.38133742
0.38133927
0.38133927
0.38133742
0.38133504
0.38133305
0.38133168
0.38133065
0.3813298
0.38132908
0.3813285
0.38132805
0.3813277
0.38132744
0.36508421
0.36508446
0.36508478
0.3650852
0.36508574
0.36508641
0.3650872
0.36508816
0.36508943
0.36509127
0.36509348
0.36509518
0.36509519
0.36509348
0.36509127
0.36508943
0.36508816
0.3650872
0.3650864
0.36508573
0.36508519
0.36508477
0.36508444
0.3650842
0.34884316
0.34884339
0.34884369
0.34884409
0.34884459
0.34884522
0.34884596
0.34884686
0.34884803
0.34884974
0.34885179
0.34885337
0.34885337
0.34885179
0.34884974
0.34884804
0.34884686
0.34884596
0.34884521
0.34884458
0.34884407
0.34884368
0.34884337
0.34884314
0.33260416
0.33260437
0.33260466
0.33260502
0.3326055
0.33260609
0.33260679
0.33260762
0.33260871
0.3326103
0.33261221
0.33261368
0.33261368
0.33261222
0.33261031
0.33260872
0.33260763
0.33260679
0.33260608
0.33260548
0.33260501
0.33260464
0.33260435
0.33260414
0.31636707
0.31636727
0.31636753
0.31636788
0.31636833
0.31636888
0.31636953
0.31637032
0.31637134
0.31637281
0.31637459
0.31637596
0.31637596
0.3163746
0.31637282
0.31637135
0.31637032
0.31636953
0.31636887
0.31636831
0.31636786
0.31636751
0.31636724
0.31636704
0.30013177
0.30013196
0.30013221
0.30013253
0.30013295
0.30013347
0.30013409
0.30013482
0.30013577
0.30013714
0.30013881
0.30014008
0.30014009
0.30013882
0.30013715
0.30013578
0.30013483
0.30013409
0.30013346
0.30013293
0.30013251
0.30013218
0.30013193
0.30013174
0.28389815
0.28389833
0.28389856
0.28389887
0.28389926
0.28389975
0.28390033
0.28390102
0.28390191
0.28390319
0.28390475
0.28390593
0.28390594
0.28390476
0.2839032
0.28390192
0.28390103
0.28390033
0.28389974
0.28389924
0.28389884
0.28389853
0.28389829
0.28389812
0.26766611
0.26766627
0.2676665
0.26766679
0.26766716
0.26766762
0.26766816
0.26766881
0.26766964
0.26767084
0.2676723
0.26767341
0.26767341
0.26767231
0.26767085
0.26766966
0.26766882
0.26766816
0.2676676
0.26766713
0.26766675
0.26766646
0.26766624
0.26766607
0.25143555
0.2514357
0.25143592
0.25143619
0.25143654
0.25143697
0.25143748
0.25143809
0.25143887
0.25143999
0.25144136
0.25144239
0.2514424
0.25144137
0.25144001
0.25143889
0.2514381
0.25143748
0.25143695
0.25143651
0.25143615
0.25143587
0.25143566
0.2514355
0.23520638
0.23520653
0.23520673
0.23520698
0.23520731
0.23520772
0.2352082
0.23520877
0.23520951
0.23521055
0.23521185
0.23521282
0.23521282
0.23521186
0.23521058
0.23520953
0.23520879
0.2352082
0.2352077
0.23520728
0.23520694
0.23520668
0.23520648
0.23520633
0.21897852
0.21897866
0.21897885
0.21897909
0.2189794
0.21897978
0.21898024
0.21898078
0.21898147
0.21898245
0.21898366
0.21898456
0.21898457
0.21898367
0.21898247
0.2189815
0.2189808
0.21898024
0.21897977
0.21897936
0.21897904
0.21897879
0.2189786
0.21897846
0.2027519
0.20275203
0.2027522
0.20275243
0.20275272
0.20275309
0.20275352
0.20275403
0.20275467
0.20275559
0.20275674
0.20275759
0.20275759
0.20275675
0.20275562
0.2027547
0.20275405
0.20275352
0.20275307
0.20275268
0.20275238
0.20275214
0.20275196
0.20275183
0.18652644
0.18652656
0.18652673
0.18652694
0.18652722
0.18652756
0.18652797
0.18652844
0.18652905
0.18652991
0.18653098
0.18653178
0.18653178
0.186531
0.18652994
0.18652909
0.18652847
0.18652797
0.18652754
0.18652717
0.18652688
0.18652665
0.18652648
0.18652636
0.17030207
0.17030218
0.17030234
0.17030254
0.1703028
0.17030313
0.17030351
0.17030396
0.17030453
0.17030534
0.17030635
0.17030711
0.17030711
0.17030638
0.17030538
0.17030457
0.17030399
0.17030351
0.1703031
0.17030275
0.17030247
0.17030226
0.17030209
0.17030197
0.15407873
0.15407884
0.15407899
0.15407918
0.15407943
0.15407974
0.1540801
0.15408052
0.15408106
0.15408181
0.15408275
0.15408345
0.15408346
0.15408278
0.15408186
0.15408111
0.15408056
0.1540801
0.15407971
0.15407937
0.1540791
0.1540789
0.15407874
0.15407863
0.13785637
0.13785647
0.13785661
0.13785679
0.13785703
0.13785731
0.13785766
0.13785806
0.13785856
0.13785927
0.13786016
0.13786082
0.13786083
0.13786019
0.13785932
0.13785861
0.13785809
0.13785766
0.13785728
0.13785696
0.1378567
0.13785651
0.13785636
0.13785625
0.12163494
0.12163504
0.12163517
0.12163534
0.12163556
0.12163583
0.12163616
0.12163653
0.121637
0.12163766
0.12163847
0.12163907
0.12163908
0.1216385
0.12163771
0.12163706
0.12163657
0.12163616
0.12163579
0.12163548
0.12163524
0.12163505
0.12163491
0.12163481
0.10541436
0.10541445
0.10541457
0.10541474
0.10541494
0.1054152
0.10541551
0.10541586
0.1054163
0.10541691
0.10541767
0.10541823
0.10541824
0.10541771
0.10541697
0.10541637
0.10541591
0.10541551
0.10541516
0.10541485
0.10541462
0.10541444
0.10541431
0.10541421
0.08919464
0.089194729
0.089194848
0.089195001
0.089195198
0.089195442
0.08919573
0.08919606
0.089196462
0.089197
0.089197649
0.089198115
0.089198127
0.089197686
0.089197061
0.089196531
0.089196107
0.08919573
0.089195388
0.089195098
0.089194869
0.0891947
0.08919457
0.089194476
0.072975635
0.072975718
0.07297583
0.072975975
0.072976163
0.072976398
0.072976674
0.072976989
0.072977364
0.072977856
0.072978435
0.07297883
0.072978842
0.072978473
0.07297792
0.072977436
0.072977037
0.072976671
0.072976336
0.072976053
0.072975831
0.072975669
0.072975546
0.072975458
0.056757515
0.056757596
0.056757704
0.056757842
0.056758019
0.056758235
0.056758488
0.056758772
0.056759092
0.056759463
0.056759833
0.056760044
0.056760056
0.056759871
0.056759527
0.056759165
0.056758819
0.056758482
0.056758169
0.056757902
0.056757692
0.056757538
0.056757418
0.056757333
0.040539729
0.0405398
0.040539898
0.040540028
0.040540204
0.040540429
0.040540694
0.040540986
0.04054131
0.040541712
0.040542172
0.040542476
0.040542486
0.040542208
0.040541773
0.040541379
0.04054103
0.040540685
0.04054036
0.040540086
0.040539879
0.040539735
0.040539628
0.040539553
0.024323461
0.024323544
0.024323651
0.024323779
0.024323927
0.024324088
0.024324262
0.024324444
0.024324609
0.024324681
0.024324586
0.024324351
0.02432436
0.024324617
0.024324734
0.024324666
0.024324476
0.024324245
0.02432402
0.024323819
0.024323647
0.024323509
0.024323395
0.02432331
0.0081053671
0.0081054374
0.0081055303
0.0081056518
0.0081058129
0.0081060129
0.0081062341
0.0081064734
0.0081068498
0.0081076815
0.008109154
0.0081105185
0.0081105243
0.0081091727
0.0081077132
0.0081068825
0.0081064872
0.0081062159
0.0081059635
0.0081057422
0.0081055704
0.0081054458
0.0081053515
0.0081052816
)
;

boundaryField
{
    INLET
    {
        type            zeroGradient;
    }
    OUTLET
    {
        type            fixedValue;
        value           uniform 0;
    }
    WALL
    {
        type            zeroGradient;
    }
    frontAndBackPlanes
    {
        type            empty;
    }
}


// ************************************************************************* //
