/*--------------------------------*- C++ -*----------------------------------*\
| =========                 |                                                 |
| \\      /  F ield         | OpenFOAM: The Open Source CFD Toolbox           |
|  \\    /   O peration     | Version:  2406                                  |
|   \\  /    A nd           | Website:  www.openfoam.com                      |
|    \\/     M anipulation  |                                                 |
\*---------------------------------------------------------------------------*/
FoamFile
{
    version     2.0;
    format      ascii;
    arch        "LSB;label=32;scalar=64";
    class       surfaceScalarField;
    location    "18";
    object      phi;
}
// * * * * * * * * * * * * * * * * * * * * * * * * * * * * * * * * * * * * * //

dimensions      [0 3 -1 0 0 0 0];

oriented        oriented;

internalField   nonuniform List<scalar> 
2279
(
2.3617491e-08
1.0148926e-05
2.0509762e-07
4.982375e-05
6.933175e-07
0.00014252872
1.5784712e-06
0.00034353082
2.6788471e-06
0.00075378089
3.3472904e-06
0.0015415573
3.043519e-06
0.0029497096
2.1516835e-06
0.005249171
1.4318035e-06
0.008582269
9.8959163e-07
0.012685995
5.126665e-07
0.016666385
-1.2471931e-12
0.01918202
-5.1266659e-07
0.01918202
-9.8958048e-07
0.016666385
-1.431765e-06
0.012685995
-2.1516083e-06
0.008582269
-3.0433932e-06
0.0052491709
-3.3471222e-06
0.0029497095
-2.6786834e-06
0.0015415572
-1.5783594e-06
0.00075378084
-6.9326468e-07
0.00034353081
-2.0508155e-07
0.00014252872
-2.3616107e-08
4.9823753e-05
1.0148927e-05
-9.5248473e-08
1.0244175e-05
-5.379401e-07
5.0266441e-05
-1.6230013e-06
0.00014361378
-3.5389526e-06
0.00034544677
-5.9201869e-06
0.00075616213
-7.4055027e-06
0.0015430426
-6.5847274e-06
0.0029488888
-3.9361593e-06
0.0052465224
-1.3883878e-06
0.0085797213
-6.511728e-08
0.012684671
2.4240746e-07
0.016666078
-4.9228308e-12
0.019182263
-2.4242442e-07
0.019182263
6.5077235e-08
0.016666078
1.3883074e-06
0.012684671
3.9360278e-06
0.0085797214
6.5845503e-06
0.0052465225
7.405312e-06
0.0029488889
5.9200292e-06
0.0015430427
3.5388584e-06
0.00075616217
1.6229625e-06
0.0003454468
5.3793158e-07
0.00014361379
9.525115e-08
5.0266446e-05
1.0244176e-05
5.013984e-08
1.0194035e-05
2.6334498e-07
5.0053236e-05
7.4910717e-07
0.00014312802
1.5314584e-06
0.00034466442
2.3366559e-06
0.00075535693
2.5476624e-06
0.0015428316
1.839097e-06
0.0029495974
9.7567579e-07
0.0052473859
6.7696009e-07
0.00858002
6.7178959e-07
0.012684677
4.8417002e-07
0.016666266
1.2619475e-11
0.019182747
-4.8413987e-07
0.019182747
-6.7174668e-07
0.016666266
-6.7690339e-07
0.012684677
-9.7559494e-07
0.00858002
-1.8390035e-06
0.0052473858
-2.5475858e-06
0.0029495974
-2.3366115e-06
0.0015428316
-1.5314409e-06
0.00075535692
-7.4910326e-07
0.00034466442
-2.6334538e-07
0.00014312802
-5.0141184e-08
5.0053235e-05
1.0194035e-05
1.9586714e-08
1.0174448e-05
1.1184925e-07
4.9960974e-05
3.612843e-07
0.00014287858
9.0504787e-07
0.00034412066
1.8716602e-06
0.00075439032
3.0948241e-06
0.0015416085
3.898725e-06
0.0029487935
3.7285562e-06
0.005247556
2.924211e-06
0.0085808243
1.9733736e-06
0.012685627
1.0127673e-06
0.016667226
-8.1275231e-12
0.01918376
-1.0127883e-06
0.01918376
-1.9734056e-06
0.016667226
-2.9242479e-06
0.012685627
-3.7285815e-06
0.0085808243
-3.8987277e-06
0.005247556
-3.0948095e-06
0.0029487935
-1.8716395e-06
0.0015416085
-9.0503231e-07
0.00075439032
-3.6127638e-07
0.00034412066
-1.1184653e-07
0.00014287859
-1.958632e-08
4.9960974e-05
1.0174448e-05
8.083924e-09
1.0166364e-05
4.7141457e-08
4.9921916e-05
1.5494691e-07
0.00014277078
3.9846333e-07
0.00034387714
8.797952e-07
0.00075390899
1.7015176e-06
0.0015407867
2.7512769e-06
0.0029477437
3.4623634e-06
0.0052468449
3.4708635e-06
0.0085808158
2.8006878e-06
0.012686298
1.5505147e-06
0.016668476
-3.3960454e-12
0.01918531
-1.5505234e-06
0.01918531
-2.8006992e-06
0.016668476
-3.4708732e-06
0.012686298
-3.4623696e-06
0.0085808158
-2.7512849e-06
0.0052468449
-1.7015293e-06
0.0029477438
-8.7980701e-07
0.0015407868
-3.9847113e-07
0.00075390899
-1.5495049e-07
0.00034387714
-4.7142539e-08
0.00014277078
-8.0839884e-09
4.9921917e-05
1.0166365e-05
4.9358693e-09
1.0161429e-05
2.8698869e-08
4.9898153e-05
9.5121527e-08
0.00014270436
2.4921462e-07
0.00034372305
5.6361004e-07
0.00075359459
1.1213761e-06
0.001540229
1.9184591e-06
0.0029469467
2.658822e-06
0.0052461046
2.8930604e-06
0.0085805816
2.4787678e-06
0.012686712
1.4344268e-06
0.016669521
-8.6622072e-13
0.019186745
-1.4344295e-06
0.019186745
-2.4787717e-06
0.016669521
-2.8930629e-06
0.012686712
-2.6588215e-06
0.0085805816
-1.9184584e-06
0.0052461046
-1.1213761e-06
0.0029469467
-5.63611e-07
0.001540229
-2.4921589e-07
0.00075359459
-9.5122497e-08
0.00034372305
-2.8699386e-08
0.00014270436
-4.9360718e-09
4.9898153e-05
1.0161429e-05
4.4123549e-09
1.0157016e-05
2.5525681e-08
4.987704e-05
8.3830173e-08
0.00014264605
2.1689433e-07
0.00034358999
4.8450161e-07
0.00075332699
9.5636173e-07
0.0015397571
1.6413749e-06
0.0029462617
2.3245836e-06
0.0052454214
2.5939544e-06
0.0085803122
2.2393639e-06
0.012687066
1.306674e-06
0.016670453
-5.6365409e-13
0.019188051
-1.3066759e-06
0.019188051
-2.2393668e-06
0.016670453
-2.5939569e-06
0.012687066
-2.3245857e-06
0.0085803122
-1.641378e-06
0.0052454214
-9.5636472e-07
0.0029462617
-4.8450368e-07
0.0015397571
-2.1689551e-07
0.00075332699
-8.3830773e-08
0.00034358999
-2.5525952e-08
0.00014264605
-4.4124419e-09
4.987704e-05
1.0157016e-05
3.6255375e-09
1.0153391e-05
2.1036596e-08
4.9859629e-05
6.9438153e-08
0.00014259765
1.8114161e-07
0.00034347828
4.0971473e-07
0.00075309841
8.2390467e-07
0.0015393429
1.4539937e-06
0.0029456316
2.1430771e-06
0.0052447323
2.4674745e-06
0.0085799878
2.1883943e-06
0.012687346
1.2866429e-06
0.016671355
-3.6773193e-13
0.019189338
-1.2866435e-06
0.019189338
-2.1883944e-06
0.016671355
-2.4674741e-06
0.012687346
-2.1430789e-06
0.0085799878
-1.4539976e-06
0.0052447323
-8.2390871e-07
0.0029456316
-4.0971764e-07
0.0015393429
-1.8114323e-07
0.00075309841
-6.9438884e-08
0.00034347828
-2.103686e-08
0.00014259765
-3.625588e-09
4.9859629e-05
1.0153391e-05
2.9831333e-09
1.0150408e-05
1.734701e-08
4.9845265e-05
5.7377327e-08
0.00014255762
1.5007397e-07
0.00034338559
3.4097152e-07
0.00075290752
6.9193266e-07
0.001538992
1.2441103e-06
0.0029450794
1.9041881e-06
0.0052440722
2.3016027e-06
0.0085795904
2.0975097e-06
0.01268755
1.2520111e-06
0.016672201
-2.9825581e-13
0.01919059
-1.2520113e-06
0.01919059
-2.0975091e-06
0.016672201
-2.3016019e-06
0.01268755
-1.9041894e-06
0.0085795904
-1.2441128e-06
0.0052440722
-6.9193502e-07
0.0029450794
-3.4097316e-07
0.001538992
-1.5007489e-07
0.00075290752
-5.7377765e-08
0.00034338559
-1.7347181e-08
0.00014255762
-2.983175e-09
4.9845265e-05
1.0150408e-05
2.4654278e-09
1.0147942e-05
1.4363131e-08
4.9833368e-05
4.7626535e-08
0.00014252436
1.2502886e-07
0.00034330819
2.855894e-07
0.00075274696
5.8418046e-07
0.0015386934
1.0641862e-06
0.0029445994
1.6641605e-06
0.0052434722
2.0898773e-06
0.0085791647
1.9528966e-06
0.012687687
1.1802457e-06
0.016672973
-2.9569095e-13
0.01919177
-1.1802459e-06
0.01919177
-1.9528963e-06
0.016672973
-2.089877e-06
0.012687687
-1.6641614e-06
0.0085791647
-1.0641877e-06
0.0052434722
-5.8418184e-07
0.0029445994
-2.855904e-07
0.0015386934
-1.2502944e-07
0.00075274696
-4.7626821e-08
0.00034330818
-1.4363248e-08
0.00014252436
-2.4654593e-09
4.9833368e-05
1.0147942e-05
2.1024531e-09
1.014584e-05
1.2258085e-08
4.9823212e-05
4.0688338e-08
0.00014249593
1.0699041e-07
0.00034324188
2.4507899e-07
0.00075260887
5.038541e-07
0.0015384346
9.2623678e-07
0.002944177
1.4715142e-06
0.005242927
1.8909116e-06
0.0085787453
1.8050251e-06
0.012687773
1.1036913e-06
0.016673675
-2.0441632e-13
0.019192874
-1.1036914e-06
0.019192874
-1.8050248e-06
0.016673675
-1.8909113e-06
0.012687773
-1.4715145e-06
0.0085787453
-9.2623757e-07
0.005242927
-5.0385502e-07
0.002944177
-2.4507974e-07
0.0015384346
-1.0699088e-07
0.00075260887
-4.0688572e-08
0.00034324188
-1.2258178e-08
0.00014249593
-2.1024765e-09
4.9823212e-05
1.014584e-05
1.8282411e-09
1.0144012e-05
1.0665524e-08
4.9814375e-05
3.5430382e-08
0.00014247116
9.3283212e-08
0.00034318403
2.1413966e-07
0.00075248801
4.4192864e-07
0.0015382068
8.1811552e-07
0.0029438008
1.3163836e-06
0.0052424287
1.7244972e-06
0.0085783372
1.6780455e-06
0.012687819
1.037806e-06
0.016674315
-1.405955e-14
0.019193912
-1.0378058e-06
0.019193912
-1.6780449e-06
0.016674315
-1.7244966e-06
0.012687819
-1.3163834e-06
0.0085783372
-8.1811584e-07
0.0052424287
-4.4192919e-07
0.0029438008
-2.1414016e-07
0.0015382068
-9.3283528e-08
0.00075248801
-3.5430528e-08
0.00034318403
-1.0665575e-08
0.00014247116
-1.8282507e-09
4.9814375e-05
1.0144011e-05
1.6104985e-09
1.0142401e-05
9.3997012e-09
4.9806586e-05
3.1244502e-08
0.00014244932
8.2340601e-08
0.00034313294
1.8932115e-07
0.00075238103
3.9182405e-07
0.0015380043
7.292434e-07
0.0029434634
1.1851485e-06
0.0052419728
1.5781786e-06
0.0085779442
1.5623422e-06
0.012687835
9.7669975e-07
0.0166749
2.002387e-13
0.019194888
-9.7669916e-07
0.019194888
-1.5623412e-06
0.0166749
-1.5781776e-06
0.012687835
-1.185148e-06
0.0085779442
-7.2924346e-07
0.0052419728
-3.9182435e-07
0.0029434634
-1.8932141e-07
0.0015380043
-8.2340712e-08
0.00075238103
-3.1244516e-08
0.00034313293
-9.3996862e-09
0.00014244932
-1.6104858e-09
4.9806586e-05
1.0142401e-05
1.4323272e-09
1.0140969e-05
8.3630666e-09
4.9799655e-05
2.7812728e-08
0.00014242987
7.3353024e-08
0.0003430874
1.6886931e-07
0.00075228552
3.5026911e-07
0.0015378229
6.5458503e-07
0.0029431591
1.0720621e-06
0.0052415553
1.4464368e-06
0.0085775698
1.4548791e-06
0.012687826
9.1881127e-07
0.016675437
4.8841966e-13
0.019195807
-9.1881015e-07
0.019195807
-1.4548778e-06
0.016675437
-1.4464355e-06
0.012687826
-1.0720615e-06
0.0085775698
-6.5458493e-07
0.0052415553
-3.5026919e-07
0.0029431591
-1.6886927e-07
0.0015378229
-7.3352864e-08
0.00075228552
-2.7812562e-08
0.00034308739
-8.3629632e-09
0.00014242987
-1.4322855e-09
4.9799655e-05
1.0140969e-05
1.2850191e-09
1.0139684e-05
7.5051413e-09
4.9793435e-05
2.4968986e-08
0.0001424124
6.5891414e-08
0.00034304647
1.5183867e-07
0.00075219957
3.154866e-07
0.0015376593
5.9149881e-07
0.0029428831
9.7479006e-07
0.005241172
1.3297082e-06
0.0085772149
1.3567902e-06
0.012687799
8.6525404e-07
0.016675928
8.2292462e-13
0.019196672
-8.6525233e-07
0.019196672
-1.3567884e-06
0.016675928
-1.3297067e-06
0.012687799
-9.747893e-07
0.0085772149
-5.9149857e-07
0.005241172
-3.1548637e-07
0.0029428831
-1.5183822e-07
0.0015376593
-6.5890898e-08
0.00075219957
-2.4968591e-08
0.00034304647
-7.5049273e-09
0.0001424124
-1.2849427e-09
4.9793435e-05
1.0139684e-05
1.1615058e-09
1.0138522e-05
6.7852702e-09
4.9787811e-05
2.258061e-08
0.00014239661
5.9615711e-08
0.00034300944
1.3748174e-07
0.00075212171
2.8604796e-07
0.0015375107
5.377133e-07
0.0029426314
8.9070925e-07
0.005240819
1.2264014e-06
0.0085768792
1.2674929e-06
0.012687758
8.1592903e-07
0.01667638
1.1398845e-12
0.019197488
-8.1592677e-07
0.019197488
-1.2674908e-06
0.01667638
-1.2263998e-06
0.012687758
-8.9070845e-07
0.0085768792
-5.3771288e-07
0.005240819
-2.8604733e-07
0.0029426314
-1.374808e-07
0.0015375107
-5.9614762e-08
0.0007521217
-2.257994e-08
0.00034300944
-6.784925e-09
0.00014239661
-1.161389e-09
4.9787811e-05
1.0138522e-05
1.0561657e-09
1.0137466e-05
6.1710446e-09
4.9782696e-05
2.0541491e-08
0.00014238224
5.4252415e-08
0.00034297573
1.2519139e-07
0.00075205077
2.6076924e-07
0.0015373751
4.9125396e-07
0.0029424009
8.1722836e-07
0.0052404931
1.1341873e-06
0.0085765622
1.185794e-06
0.012687707
7.7021734e-07
0.016676795
1.4164555e-12
0.019198259
-7.7021464e-07
0.019198259
-1.1857917e-06
0.016676795
-1.1341857e-06
0.012687707
-8.1722757e-07
0.0085765622
-4.9125334e-07
0.0052404931
-2.6076813e-07
0.0029424009
-1.2518985e-07
0.0015373751
-5.4250961e-08
0.00075205077
-2.0540503e-08
0.00034297573
-6.1705485e-09
0.00014238224
-1.0560026e-09
4.9782696e-05
1.0137466e-05
9.6516404e-10
1.0136501e-05
5.6402259e-09
4.9778021e-05
1.8778398e-08
0.0001423691
4.9611506e-08
0.00034294489
1.1454221e-07
0.00075198584
2.3881215e-07
0.0015372509
4.507061e-07
0.002942189
7.5248587e-07
0.0052401913
1.0515035e-06
0.0085762632
1.1108351e-06
0.012687647
7.2769138e-07
0.016677178
1.6478498e-12
0.019198986
-7.2768831e-07
0.019198986
-1.1108327e-06
0.016677178
-1.051502e-06
0.012687647
-7.524851e-07
0.0085762632
-4.5070521e-07
0.0052401913
-2.3881047e-07
0.002942189
-1.1453997e-07
0.0015372509
-4.9609475e-08
0.00075198584
-1.877705e-08
0.00034294489
-5.6395589e-09
0.0001423691
-9.6494853e-10
4.9778021e-05
1.0136501e-05
8.8582094e-10
1.0135615e-05
5.1772497e-09
4.977373e-05
1.7239949e-08
0.00014235704
4.5559112e-08
0.00034291658
1.0523272e-07
0.00075192616
2.1957755e-07
0.0015371365
4.1504423e-07
0.0029419936
6.9509205e-07
0.0052399112
9.7709768e-07
0.0085759812
1.0418708e-06
0.012687582
6.880079e-07
0.016677532
1.8381908e-12
0.019199674
-6.8800455e-07
0.019199674
-1.0418684e-06
0.016677532
-9.7709627e-07
0.012687582
-6.9509129e-07
0.0085759812
-4.1504301e-07
0.0052399112
-2.195752e-07
0.0029419936
-1.0522969e-07
0.0015371365
-4.555643e-08
0.00075192616
-1.7238197e-08
0.00034291658
-5.1763911e-09
0.00014235704
-8.8554669e-10
4.977373e-05
1.0135615e-05
8.1603954e-10
1.0134799e-05
4.7699517e-09
4.9769776e-05
1.5886016e-08
0.00014234592
4.1990703e-08
0.00034289047
9.7027214e-08
0.00075187113
2.0259455e-07
0.001537031
3.8345072e-07
0.0029418127
6.4389838e-07
0.0052396508
9.0984613e-07
0.0085757153
9.782394e-07
0.012687514
6.5086924e-07
0.01667786
1.9917673e-12
0.019200325
-6.5086568e-07
0.019200325
-9.7823694e-07
0.01667786
-9.0984489e-07
0.012687514
-6.4389763e-07
0.0085757153
-3.8344912e-07
0.0052396508
-2.0259143e-07
0.0029418127
-9.7023304e-08
0.001537031
-4.1987294e-08
0.00075187113
-1.5883813e-08
0.00034289047
-4.7688797e-09
0.00014234592
-8.1569988e-10
4.9769776e-05
1.0134799e-05
7.5416849e-10
1.0134045e-05
4.4087424e-09
4.9766121e-05
1.4684931e-08
0.00014233565
3.8823659e-08
0.00034286633
8.9738868e-08
0.00075182021
1.8748784e-07
0.0015369332
3.5526709e-07
0.0029416449
5.9796089e-07
0.0052394081
8.4879164e-07
0.0085754644
9.1937019e-07
0.012687444
6.1601354e-07
0.016678163
2.1139966e-12
0.019200941
-6.1600984e-07
0.019200941
-9.1936781e-07
0.016678163
-8.487906e-07
0.012687444
-5.9796015e-07
0.0085754644
-3.5526506e-07
0.0052394081
-1.8748387e-07
0.0029416449
-8.9733964e-08
0.0015369332
-3.8819439e-08
0.00075182021
-1.4682226e-08
0.00034286633
-4.407433e-09
0.00014233565
-7.5375609e-10
4.9766121e-05
1.0134045e-05
6.9891855e-10
1.0133346e-05
4.0861253e-09
4.9762734e-05
1.36119e-08
0.00014232612
3.599314e-08
0.00034284395
8.3220552e-08
0.00075177299
1.7396029e-07
0.0015368425
3.2996677e-07
0.0029414889
5.5650974e-07
0.0052391816
7.9312382e-07
0.0085752278
8.6477172e-07
0.012687372
5.8323478e-07
0.016678444
2.2016931e-12
0.019201524
-5.8323102e-07
0.019201524
-8.6476947e-07
0.016678445
-7.9312301e-07
0.012687372
-5.5650901e-07
0.0085752278
-3.2996426e-07
0.0052391816
-1.7395536e-07
0.0029414889
-8.3214542e-08
0.0015368425
-3.5988017e-08
0.00075177299
-1.3608636e-08
0.00034284395
-4.0845516e-09
0.00014232612
-6.9842502e-10
4.9762734e-05
1.0133346e-05
6.4927348e-10
1.0132697e-05
3.7961869e-09
4.9759587e-05
1.2647344e-08
0.00014231727
3.3447878e-08
0.00034282315
7.7355672e-08
0.00075172908
1.6177552e-07
0.001536758
3.0712818e-07
0.0029413436
5.1892172e-07
0.0052389698
7.4217582e-07
0.0085750046
8.1401745e-07
0.0126873
5.5234587e-07
0.016678706
2.261186e-12
0.019202077
-5.5234209e-07
0.019202077
-8.140154e-07
0.016678706
-7.4217529e-07
0.0126873
-5.18921e-07
0.0085750046
-3.0712512e-07
0.0052389698
-1.6176951e-07
0.0029413436
-7.7348429e-08
0.001536758
-3.3441747e-08
0.00075172908
-1.2643454e-08
0.00034282315
-3.7943171e-09
0.00014231727
-6.4868888e-10
4.9759587e-05
1.0132697e-05
6.0441935e-10
1.0132092e-05
3.5341886e-09
4.9756658e-05
1.1775563e-08
0.00014230903
3.1146714e-08
0.00034280378
7.2050452e-08
0.00075168818
1.5074278e-07
0.0015366794
2.8640891e-07
0.0029412079
4.8468366e-07
0.0052387715
6.9538363e-07
0.0085747939
7.6674741e-07
0.012687229
5.2320807e-07
0.01667895
2.2948684e-12
0.0192026
-5.2320433e-07
0.0192026
-7.6674562e-07
0.01667895
-6.9538343e-07
0.012687229
-4.8468297e-07
0.0085747939
-2.8640525e-07
0.0052387715
-1.5073559e-07
0.0029412079
-7.2041832e-08
0.0015366794
-3.1139451e-08
0.00075168818
-1.177097e-08
0.00034280378
-3.5319843e-09
0.00014230903
-6.037316e-10
4.9756658e-05
1.0132092e-05
5.6369769e-10
1.0131529e-05
3.2962951e-09
4.9753925e-05
1.0983846e-08
0.00014230134
2.9056302e-08
0.00034278571
6.7228828e-08
0.00075165
1.4070703e-07
0.0015366059
2.6752953e-07
0.0029410811
4.5337411e-07
0.0052385857
6.5227837e-07
0.008574595
7.2263975e-07
0.012687158
4.9567782e-07
0.016679177
2.3089887e-12
0.019203096
-4.9567416e-07
0.019203096
-7.2263828e-07
0.016679177
-6.5227856e-07
0.012687158
-4.5337347e-07
0.008574595
-2.6752522e-07
0.0052385857
-1.4069851e-07
0.0029410811
-6.7218657e-08
0.0015366059
-2.9047756e-08
0.00075165
-1.0978452e-08
0.00034278571
-3.2937095e-09
0.00014230134
-5.6289197e-10
4.9753925e-05
1.0131529e-05
5.2656934e-10
1.0131002e-05
3.0793656e-09
4.9751372e-05
1.0261778e-08
0.00014229416
2.7149293e-08
0.00034276882
6.2828329e-08
0.00075161432
1.315406e-07
0.0015365372
2.5025872e-07
0.0029409624
4.2463953e-07
0.0052384113
6.1245591e-07
0.0085744072
6.8142666e-07
0.012687089
4.6966119e-07
0.016679388
2.3151129e-12
0.019203565
-4.6965765e-07
0.019203565
-6.8142556e-07
0.016679388
-6.1245655e-07
0.012687089
-4.2463896e-07
0.0085744072
-2.502537e-07
0.0052384113
-1.315306e-07
0.0029409624
-6.2816398e-08
0.0015365372
-2.7139283e-08
0.00075161432
-1.0255465e-08
0.00034276882
-3.0763413e-09
0.00014229416
-5.256275e-10
4.9751372e-05
1.0131002e-05
4.9258978e-10
1.0130509e-05
2.8808095e-09
4.9748984e-05
9.6007653e-09
0.00014228744
2.5403125e-08
0.00034275302
5.8797396e-08
0.00075158093
1.2313802e-07
0.0015364728
2.3440508e-07
0.0029408511
3.98187e-07
0.0052382475
5.755798e-07
0.0085742298
6.4285603e-07
0.012687022
4.4503688e-07
0.016679586
2.3295318e-12
0.01920401
-4.4503345e-07
0.01920401
-6.4285535e-07
0.016679586
-5.7558094e-07
0.012687022
-3.9818652e-07
0.0085742298
-2.3439926e-07
0.0052382475
-1.2312633e-07
0.0029408511
-5.8783445e-08
0.0015364728
-2.5391425e-08
0.00075158093
-9.59339e-09
0.00034275302
-2.8772766e-09
0.00014228744
-4.914898e-10
4.9748984e-05
1.0130509e-05
4.6138749e-10
1.0130048e-05
2.698462e-09
4.9746747e-05
8.9936257e-09
0.00014228114
2.3798917e-08
0.00034273821
5.5092817e-08
0.00075154964
1.1541068e-07
0.0015364125
2.1980685e-07
0.0029407467
3.7376517e-07
0.0052380935
5.4135256e-07
0.0085740622
6.0672767e-07
0.012686957
4.2174536e-07
0.016679771
2.3689854e-12
0.019204432
-4.2174202e-07
0.019204432
-6.0672742e-07
0.016679771
-5.4135426e-07
0.012686957
-3.7376478e-07
0.0085740622
-2.1980012e-07
0.0052380935
-1.1539704e-07
0.0029407467
-5.5076527e-08
0.0015364125
-2.3785254e-08
0.00075154964
-8.9850132e-09
0.00034273821
-2.6943363e-09
0.00014228114
-4.6010301e-10
4.9746747e-05
1.0130048e-05
4.326501e-10
1.0129615e-05
2.5305014e-09
4.9744649e-05
8.4343151e-09
0.00014227524
2.2320792e-08
0.00034272433
5.1678283e-08
0.00075152028
1.0828414e-07
0.0015363559
2.0632829e-07
0.0029406487
3.5116403e-07
0.0052379487
5.095261e-07
0.0085739038
5.7283383e-07
0.012686893
3.9967212e-07
0.016679944
2.4496216e-12
0.019204832
-3.9966882e-07
0.019204832
-5.7283403e-07
0.016679944
-5.095284e-07
0.012686893
-3.5116372e-07
0.0085739038
-2.0632049e-07
0.0052379487
-1.0826824e-07
0.0029406487
-5.1659265e-08
0.0015363559
-2.2304837e-08
0.00075152028
-8.4242572e-09
0.00034272433
-2.5256832e-09
0.00014227524
-4.3115e-10
4.9744649e-05
1.0129615e-05
4.0611235e-10
1.0129209e-05
2.3753828e-09
4.974268e-05
7.9177044e-09
0.0001422697
2.0955251e-08
0.00034271129
4.8522831e-08
0.00075149271
1.016947e-07
0.0015363027
1.9385237e-07
0.0029405565
3.3019898e-07
0.0052378124
4.7987539e-07
0.0085737542
5.4102793e-07
0.012686832
3.7878937e-07
0.016680107
2.5863178e-12
0.019205211
-3.7878604e-07
0.019205211
-5.4102857e-07
0.016680107
-4.7987832e-07
0.012686832
-3.3019875e-07
0.0085737542
-1.9384331e-07
0.0052378124
-1.0167615e-07
0.0029405565
-4.8500621e-08
0.0015363027
-2.0936615e-08
0.00075149271
-7.9059569e-09
0.00034271129
-2.3697556e-09
0.0001422697
-4.0436055e-10
4.974268e-05
1.0129209e-05
3.8154667e-10
1.0128828e-05
2.2317771e-09
4.974083e-05
7.4393828e-09
0.00014226449
1.9690712e-08
0.00034269904
4.559999e-08
0.0007514668
9.5588058e-08
0.0015362527
1.8227967e-07
0.0029404698
3.1071485e-07
0.0052376839
4.52212e-07
0.0085736127
5.1112675e-07
0.012686773
3.589759e-07
0.016680259
2.7899323e-12
0.019205569
-3.5897244e-07
0.019205569
-5.1112783e-07
0.016680259
-4.5221559e-07
0.012686773
-3.1071466e-07
0.0085736127
-1.8226911e-07
0.0052376839
-9.5566388e-08
0.0029404698
-4.5574042e-08
0.0015362527
-1.9668945e-08
0.0007514668
-7.4256646e-09
0.00034269904
-2.2252074e-09
0.00014226449
-3.7950206e-10
4.974083e-05
1.0128828e-05
3.5875894e-10
1.0128469e-05
2.0985555e-09
4.973909e-05
6.995601e-09
0.00014225959
1.8517283e-08
0.00034268752
4.2886979e-08
0.00075144243
8.9917116e-08
0.0015362057
1.7152317e-07
0.0029403882
2.9257267e-07
0.0052375629
4.2636309e-07
0.0085734789
4.8303253e-07
0.012686717
3.4023964e-07
0.016680402
3.0508429e-12
0.01920591
-3.4023597e-07
0.01920591
-4.8303406e-07
0.016680402
-4.2636743e-07
0.012686717
-2.9257249e-07
0.0085734789
-1.7151084e-07
0.0052375629
-8.9891791e-08
0.0029403882
-4.2856668e-08
0.0015362057
-1.849187e-08
0.00075144243
-6.9795938e-09
0.00034268752
-2.090893e-09
0.00014225959
-3.5637552e-10
4.973909e-05
1.0128469e-05
3.3757711e-10
1.0128131e-05
1.9747095e-09
4.9737453e-05
6.5830115e-09
0.00014225498
1.7426198e-08
0.00034267667
4.0363833e-08
0.0007514195
8.4640988e-08
0.0015361614
1.6150778e-07
0.0029403114
2.7565402e-07
0.0052374487
4.0217954e-07
0.0085733523
4.56568e-07
0.012686662
3.2243797e-07
0.016680536
3.3722664e-12
0.019206232
-3.2243403e-07
0.019206232
-4.5657003e-07
0.016680536
-4.0218473e-07
0.012686662
-2.7565384e-07
0.0085733524
-1.6149336e-07
0.0052374488
-8.4611403e-08
0.0029403114
-4.0328459e-08
0.0015361614
-1.7396567e-08
0.00075141949
-6.5643626e-09
0.00034267667
-1.9657883e-09
0.00014225498
-3.3480433e-10
4.9737453e-05
1.0128131e-05
3.1785829e-10
1.0127814e-05
1.8594134e-09
4.9735911e-05
6.1988686e-09
0.00014225064
1.641016e-08
0.00034266646
3.8013591e-08
0.00075139789
7.9724313e-08
0.0015361197
1.5216781e-07
0.0029402389
2.5985339e-07
0.0052373411
3.7953068e-07
0.0085732327
4.3168844e-07
0.01268661
3.0562547e-07
0.016680662
3.7185766e-12
0.019206538
-3.0562126e-07
0.019206538
-4.316911e-07
0.016680662
-3.7953689e-07
0.01268661
-2.5985323e-07
0.0085732327
-1.5215098e-07
0.0052373411
-7.9689803e-08
0.0029402389
-3.7972386e-08
0.0015361197
-1.6375688e-08
0.00075139789
-6.1771941e-09
0.00034266646
-1.8490534e-09
0.00014225064
-3.1464166e-10
4.9735911e-05
1.0127814e-05
2.9946541e-10
1.0127514e-05
1.7518552e-09
4.9734459e-05
5.840479e-09
0.00014224656
1.5462181e-08
0.00034265684
3.5820526e-08
0.00075137754
7.5135147e-08
0.0015360804
1.4344433e-07
0.0029401706
2.4507588e-07
0.0052372394
3.5828877e-07
0.0085731195
4.0820018e-07
0.01268656
2.8961873e-07
0.01668078
4.0612651e-12
0.019206827
-2.8961434e-07
0.019206827
-4.0820369e-07
0.01668078
-3.5829627e-07
0.01268656
-2.4507581e-07
0.0085731195
-1.4342475e-07
0.0052372394
-7.5095001e-08
0.0029401706
-3.5772666e-08
0.0015360804
-1.5422197e-08
0.00075137753
-5.8153696e-09
0.00034265684
-1.7398652e-09
0.00014224656
-2.9574742e-10
4.9734459e-05
1.0127514e-05
2.8229859e-10
1.0127232e-05
1.6514709e-09
4.973309e-05
5.5059614e-09
0.0001422427
1.4577142e-08
0.00034264777
3.377237e-08
0.00075135834
7.0847315e-08
0.0015360433
1.3528857e-07
0.0029401062
2.3124455e-07
0.0052371435
3.3836571e-07
0.0085730123
3.8612771e-07
0.012686512
2.7453908e-07
0.016680892
4.3248563e-12
0.019207102
-2.7453473e-07
0.019207102
-3.8613241e-07
0.016680892
-3.3837486e-07
0.012686512
-2.3124468e-07
0.0085730124
-1.352659e-07
0.0052371435
-7.0800788e-08
0.0029401062
-3.3716987e-08
0.0015360433
-1.4530946e-08
0.00075135834
-5.4769895e-09
0.00034264777
-1.6376524e-09
0.0001422427
-2.7802014e-10
4.973309e-05
1.0127232e-05
2.6623667e-10
1.0126966e-05
1.5575243e-09
4.9731799e-05
5.1928788e-09
0.00014223907
1.374887e-08
0.00034263921
3.1855707e-08
0.00075134024
6.6834259e-08
0.0015360084
1.2765113e-07
0.0029400454
2.1827544e-07
0.0052370528
3.196335e-07
0.008572911
3.6522861e-07
0.012686467
2.601341e-07
0.016680997
4.4655533e-12
0.019207362
-2.6013011e-07
0.019207362
-3.6523497e-07
0.016680997
-3.1964477e-07
0.012686467
-2.1827595e-07
0.008572911
-1.2762505e-07
0.0052370529
-6.6780579e-08
0.0029400454
-3.1791899e-08
0.0015360084
-1.3695733e-08
0.00075134023
-5.1596028e-09
0.00034263921
-1.541673e-09
0.00014223907
-2.6133773e-10
4.9731799e-05
1.0126966e-05
2.5122962e-10
1.0126714e-05
1.469768e-09
4.973058e-05
4.9003895e-09
0.00014223564
1.2974746e-08
0.00034263114
3.006326e-08
0.00075132315
6.307894e-08
0.0015359754
1.2050026e-07
0.0029399879
2.0612414e-07
0.0052369672
3.0206243e-07
0.0085728151
3.4563158e-07
0.012686423
2.4662568e-07
0.016681096
4.3845606e-12
0.019207609
-2.4662257e-07
0.019207609
-3.4564022e-07
0.016681096
-3.020764e-07
0.012686423
-2.0612528e-07
0.0085728151
-1.2047045e-07
0.0052369673
-6.3017335e-08
0.0029399879
-2.9990127e-08
0.0015359753
-1.2913946e-08
0.00075132314
-4.8623738e-09
0.00034263114
-1.451683e-09
0.00014223564
-2.456517e-10
4.973058e-05
1.0126714e-05
2.3714368e-10
1.0126477e-05
1.3873511e-09
4.972943e-05
4.6256933e-09
0.0001422324
1.2248005e-08
0.00034262352
2.8381395e-08
0.00075130701
5.9556076e-08
0.0015359442
1.1378837e-07
0.0029399337
1.9470029e-07
0.0052368863
2.8548953e-07
0.0085727243
3.2699397e-07
0.012686382
2.3364999e-07
0.016681189
4.0464791e-12
0.019207842
-2.3364834e-07
0.019207842
-3.2700559e-07
0.016681189
-2.8550686e-07
0.012686382
-1.9470234e-07
0.0085727243
-1.1375452e-07
0.0052368864
-5.948577e-08
0.0029399337
-2.829805e-08
0.0015359442
-1.2178849e-08
0.000751307
-4.582527e-09
0.00034262351
-1.3668461e-09
0.0001422324
-2.3083226e-10
4.972943e-05
1.0126477e-05
2.2401986e-10
1.0126253e-05
1.3106196e-09
4.9728343e-05
4.3698796e-09
0.00014222934
1.1570485e-08
0.00034261632
2.6811105e-08
0.00075129177
5.6262531e-08
0.0015359147
1.075093e-07
0.0029398825
1.8401297e-07
0.0052368098
2.6998877e-07
0.0085726383
3.096168e-07
0.012686342
2.2158529e-07
0.016681277
3.3609211e-12
0.019208064
-2.2158585e-07
0.019208064
-3.0963223e-07
0.016681277
-2.7001016e-07
0.012686342
-1.8401619e-07
0.0085726384
-1.0747108e-07
0.0052368099
-5.6182744e-08
0.0029398825
-2.6716684e-08
0.0015359147
-1.1492313e-08
0.00075129176
-4.3211829e-09
0.00034261631
-1.2875281e-09
0.00014222934
-2.1692816e-10
4.9728343e-05
1.0126253e-05
2.1163906e-10
1.0126042e-05
1.2381251e-09
4.9727317e-05
4.1282303e-09
0.00014222645
1.0931395e-08
0.00034260951
2.5332701e-08
0.00075127737
5.3165679e-08
0.0015358869
1.0160227e-07
0.002939834
1.7393216e-07
0.0052367375
2.5529797e-07
0.0085725569
2.9297395e-07
0.012686304
2.098937e-07
0.016681361
2.3656337e-12
0.019208274
-2.0989715e-07
0.019208274
-2.9299396e-07
0.016681361
-2.5532411e-07
0.012686305
-1.7393686e-07
0.008572557
-1.0155944e-07
0.0052367375
-5.3075786e-08
0.002939834
-2.5226523e-08
0.0015358869
-1.0843693e-08
0.00075127736
-4.0737091e-09
0.00034260951
-1.2123186e-09
0.00014222645
-2.0373265e-10
4.9727317e-05
1.0126042e-05
2.00283e-10
1.0125841e-05
1.1717709e-09
4.9726345e-05
3.906852e-09
0.00014222371
1.0343942e-08
0.00034260308
2.3967558e-08
0.00075126375
5.0294747e-08
0.0015358606
9.6117534e-08
0.0029397882
1.6458112e-07
0.005236669
2.4170148e-07
0.0085724798
2.7766817e-07
0.012686269
1.992045e-07
0.016681439
1.0566111e-12
0.019208473
-1.9921153e-07
0.019208473
-2.7769348e-07
0.016681439
-2.4173289e-07
0.012686269
-1.6458738e-07
0.0085724799
-9.6069728e-08
0.0052366691
-5.0194199e-08
0.0029397882
-2.3849155e-08
0.0015358605
-1.0246434e-08
0.00075126373
-3.8463844e-09
0.00034260307
-1.143209e-09
0.00014222371
-1.9155532e-10
4.9726345e-05
1.0125841e-05
1.8934952e-10
1.0125652e-05
1.1076345e-09
4.9725427e-05
3.6931565e-09
0.00014222113
9.7800463e-09
0.00034259699
2.2666978e-08
0.00075125086
4.7576386e-08
0.0015358357
9.0931723e-08
0.0029397448
1.5570681e-07
0.0052366043
2.2871169e-07
0.0085724068
2.6286673e-07
0.012686234
1.8872419e-07
0.016681513
-4.3008833e-13
0.019208662
-1.8873524e-07
0.019208662
-2.6289784e-07
0.016681513
-2.2874864e-07
0.012686234
-1.5571437e-07
0.0085724069
-9.0878183e-08
0.0052366043
-4.7464343e-08
0.0029397448
-2.2535847e-08
0.0015358356
-9.6726242e-09
0.00075125084
-3.6268392e-09
0.00034259698
-1.0764309e-09
0.00014222113
-1.7986e-10
4.9725427e-05
1.0125652e-05
1.7997464e-10
1.0125472e-05
1.0529682e-09
4.9724554e-05
3.5101999e-09
0.00014221867
9.2908336e-09
0.00034259121
2.151887e-08
0.00075123863
4.5139908e-08
0.001535812
8.6250878e-08
0.0029397037
1.4770731e-07
0.0052365428
2.17061e-07
0.0085723375
2.4972142e-07
0.012686202
1.7950369e-07
0.016681583
-1.7275887e-12
0.019208841
-1.7951864e-07
0.019208841
-2.4975855e-07
0.016681583
-2.1710347e-07
0.012686202
-1.4771538e-07
0.0085723376
-8.6190248e-08
0.0052365429
-4.5015183e-08
0.0029397037
-2.1374538e-08
0.001535812
-9.1736626e-09
0.00075123861
-3.4384291e-09
0.0003425912
-1.0194339e-09
0.00014221867
-1.6986384e-10
4.9724554e-05
1.0125472e-05
1.6886877e-10
1.0125303e-05
9.8803154e-10
4.9723734e-05
3.2967359e-09
0.00014221636
8.7411455e-09
0.00034258576
2.0291413e-08
0.00075122708
4.2659046e-08
0.0015357897
8.1638551e-08
0.0029396648
1.3992533e-07
0.0052364845
2.0572694e-07
0.0085722717
2.3677654e-07
0.012686171
1.7032716e-07
0.01668165
-2.3930161e-12
0.019209011
-1.7034515e-07
0.019209011
-2.368195e-07
0.01668165
-2.0577503e-07
0.012686171
-1.3993378e-07
0.0085722718
-8.1570858e-08
0.0052364846
-4.2522698e-08
0.0029396648
-2.0135975e-08
0.0015357896
-8.6164832e-09
0.00075122706
-3.221172e-09
0.00034258576
-9.530503e-10
0.00014221636
-1.5843882e-10
4.9723735e-05
1.0125303e-05
1.6407279e-10
1.0125139e-05
9.6011569e-10
4.9722938e-05
3.1975398e-09
0.00014221412
8.446073e-09