/*--------------------------------*- C++ -*----------------------------------*\
| =========                 |                                                 |
| \\      /  F ield         | OpenFOAM: The Open Source CFD Toolbox           |
|  \\    /   O peration     | Version:  2406                                  |
|   \\  /    A nd           | Website:  www.openfoam.com                      |
|    \\/     M anipulation  |                                                 |
\*---------------------------------------------------------------------------*/
FoamFile
{
    version     2.0;
    format      ascii;
    arch        "LSB;label=32;scalar=64";
    class       volVectorField;
    location    "18";
    object      U;
}
// * * * * * * * * * * * * * * * * * * * * * * * * * * * * * * * * * * * * * //

dimensions      [0 1 -1 0 0 0 0];

internalField   nonuniform List<vector> 
1176
(
(0.019493789 7.0786372e-07 0)
(0.066677318 8.1696551e-06 0)
(0.13357994 3.9503157e-05 0)
(0.22724701 0.00010873573 0)
(0.35591522 0.00021176021 0)
(0.52772023 0.00030396276 0)
(0.74780387 0.00031818008 0)
(1.0136216 0.00024904578 0)
(1.3093323 0.00016666988 0)
(1.6017081 0.00011264672 0)
(1.8421723 7.0213961e-05 0)
(1.9793239 2.394061e-05 0)
(1.9793239 -2.394074e-05 0)
(1.8421723 -7.0213409e-05 0)
(1.6017081 -0.00011264416 0)
(1.3093323 -0.00016666376 0)
(1.0136216 -0.00024903438 0)
(0.74780386 -0.00031816271 0)
(0.52772023 -0.00030394304 0)
(0.35591523 -0.00021174575 0)
(0.22724701 -0.00010872781 0)
(0.13357995 -3.9503687e-05 0)
(0.066677327 -8.1668171e-06 0)
(0.019493792 -7.0923231e-07 0)
(0.020187017 -3.7419182e-06 0)
(0.068813532 -2.463864e-05 0)
(0.13732107 -9.6548559e-05 0)
(0.23247391 -0.00024839462 0)
(0.36204617 -0.00047268784 0)
(0.53373557 -0.00067421188 0)
(0.75267407 -0.00069486948 0)
(1.0170176 -0.00049687372 0)
(1.3116385 -0.00023345918 0)
(1.6034438 -4.9824366e-05 0)
(1.8436588 1.9764752e-05 0)
(1.9807026 1.3427524e-05 0)
(1.9807026 -1.3428655e-05 0)
(1.8436588 -1.9767145e-05 0)
(1.6034438 4.9819017e-05 0)
(1.3116385 0.0002334488 0)
(1.0170176 0.00049685752 0)
(0.75267406 0.00069484971 0)
(0.53373555 0.00067419345 0)
(0.36204617 0.00047267575 0)
(0.23247391 0.00024838884 0)
(0.13732108 9.6547633e-05 0)
(0.068813542 2.4637872e-05 0)
(0.02018702 3.7422815e-06 0)
(0.020018442 2.0918372e-06 0)
(0.068327405 1.2720773e-05 0)
(0.13655405 4.6877258e-05 0)
(0.23159544 0.00011389739 0)
(0.36138709 0.00019769268 0)
(0.53366969 0.00023903238 0)
(0.75344344 0.00020559819 0)
(1.0184881 0.00011361114 0)
(1.3134639 7.4313576e-05 0)
(1.6053464 7.9532927e-05 0)
(1.8455118 7.0516768e-05 0)
(1.9825245 2.7826375e-05 0)
(1.9825245 -2.7823902e-05 0)
(1.8455118 -7.0513316e-05 0)
(1.6053464 -7.9528007e-05 0)
(1.3134639 -7.4306799e-05 0)
(1.0184882 -0.00011360268 0)
(0.75344345 -0.00020558899 0)
(0.5336697 -0.00023902663 0)
(0.36138709 -0.00019769023 0)
(0.23159544 -0.00011389669 0)
(0.13655404 -4.6876817e-05 0)
(0.068327402 -1.27211e-05 0)
(0.020018441 -2.0916709e-06 0)
(0.019966547 7.0076565e-07 0)
(0.068159232 4.6870469e-06 0)
(0.13624021 1.9355444e-05 0)
(0.2311194 5.6456175e-05 0)
(0.36078093 0.00013444567 0)
(0.53306293 0.00025829319 0)
(0.75295637 0.00035344741 0)
(1.0181104 0.00036912004 0)
(1.313184 0.00030758871 0)
(1.6051633 0.00022777229 0)
(1.8453995 0.00014555921 0)
(1.9824491 4.9996763e-05 0)
(1.9824491 -4.9998292e-05 0)
(1.8453995 -0.00014556151 0)
(1.6051633 -0.00022777575 0)
(1.313184 -0.00030759202 0)
(1.0181104 -0.00036912141 0)
(0.75295636 -0.00035344696 0)
(0.53306293 -0.00025829116 0)
(0.36078093 -0.00013444365 0)
(0.2311194 -5.6455024e-05 0)
(0.13624021 -1.935515e-05 0)
(0.068159233 -4.6868179e-06 0)
(0.019966548 -7.0082038e-07 0)
(0.019942204 2.9076956e-07 0)
(0.068078703 1.9872039e-06 0)
(0.13608628 8.2361221e-06 0)
(0.23087699 2.3699337e-05 0)
(0.36044744 5.6881658e-05 0)
(0.53266449 0.00012306892 0)
(0.75256878 0.00022681825 0)
(1.017808 0.00032272226 0)
(1.3129044 0.00034572466 0)
(1.604912 0.00030729984 0)
(1.8452029 0.00021095316 0)
(1.9822898 7.4614417e-05 0)
(1.9822898 -7.461501e-05 0)
(1.8452029 -0.00021095404 0)
(1.604912 -0.00030730107 0)
(1.3129044 -0.00034572557 0)
(1.017808 -0.00032272275 0)
(0.75256878 -0.00022681952 0)
(0.53266449 -0.00012307017 0)
(0.36044744 -5.6882624e-05 0)
(0.23087699 -2.3699871e-05 0)
(0.13608628 -8.2362636e-06 0)
(0.068078703 -1.9872738e-06 0)
(0.019942204 -2.9076261e-07 0)
(0.019933132 1.7181584e-07 0)
(0.068047756 1.1940772e-06 0)
(0.13602489 5.0652054e-06 0)
(0.23077535 1.4968877e-05 0)
(0.36029899 3.6219586e-05 0)
(0.5324792 7.6944318e-05 0)
(0.75239428 0.00014713781 0)
(1.0177222 0.00023749036 0)
(1.3129292 0.00028525602 0)
(1.6049746 0.00027441499 0)
(1.8452865 0.00019644633 0)
(1.9823834 7.1177045e-05 0)
(1.9823834 -7.1177174e-05 0)
(1.8452865 -0.0001964466 0)
(1.6049746 -0.00027441537 0)
(1.3129292 -0.00028525625 0)
(1.0177222 -0.00023749016 0)
(0.75239428 -0.00014713781 0)
(0.5324792 -7.6944428e-05 0)
(0.36029899 -3.6219734e-05 0)
(0.23077535 -1.4969004e-05 0)
(0.13602489 -5.0652598e-06 0)
(0.068047755 -1.1941108e-06 0)
(0.019933132 -1.7181883e-07 0)
(0.0199234 1.5587636e-07 0)
(0.068015507 1.0700762e-06 0)
(0.13596286 4.4934688e-06 0)
(0.23067607 1.3195474e-05 0)
(0.36015773 3.1857157e-05 0)
(0.53230178 6.6958295e-05 0)
(0.75221429 0.00012411897 0)
(1.0176105 0.00019917062 0)
(1.3129358 0.00025490854 0)
(1.6050904 0.00024595186 0)
(1.8454579 0.00018127911 0)
(1.9825798 6.6548603e-05 0)
(1.9825798 -6.6548688e-05 0)
(1.8454579 -0.00018127934 0)
(1.6050904 -0.00024595216 0)
(1.3129358 -0.0002549088 0)
(1.0176105 -0.00019917088 0)
(0.75221429 -0.00012411928 0)
(0.53230178 -6.6958528e-05 0)
(0.36015773 -3.1857306e-05 0)
(0.23067607 -1.3195559e-05 0)
(0.13596286 -4.493532e-06 0)
(0.068015507 -1.0700749e-06 0)
(0.0199234 -1.5589055e-07 0)
(0.019915697 1.2758649e-07 0)
(0.067989793 8.7801744e-07 0)
(0.13591293 3.6960023e-06 0)
(0.23059503 1.0901611e-05 0)
(0.36003987 2.6613368e-05 0)
(0.53214753 5.7237163e-05 0)
(0.75204133 0.00010911056 0)
(1.0174723 0.00017936639 0)
(1.3128926 0.00023802492 0)
(1.6051414 0.0002374677 0)
(1.8455877 0.00017750692 0)
(1.9827514 6.5539475e-05 0)
(1.9827514 -6.5539529e-05 0)
(1.8455877 -0.00017750699 0)
(1.6051414 -0.00023746767 0)
(1.3128926 -0.00023802496 0)
(1.0174723 -0.00017936669 0)
(0.75204133 -0.00010911097 0)
(0.53214753 -5.72375e-05 0)
(0.36003987 -2.6613581e-05 0)
(0.23059503 -1.0901717e-05 0)
(0.13591293 -3.6960575e-06 0)
(0.067989793 -8.7802189e-07 0)
(0.019915697 -1.2759444e-07 0)
(0.019909217 1.0465798e-07 0)
(0.067968141 7.2313783e-07 0)
(0.13587084 3.0521045e-06 0)
(0.23052654 9.0118392e-06 0)
(0.35993984 2.19999e-05 0)
(0.53201542 4.7473483e-05 0)
(0.75188901 9.2014148e-05 0)
(1.0173341 0.00015618203 0)
(1.3128278 0.00021699694 0)
(1.6051595 0.00022709646 0)
(1.8456699 0.00017232646 0)
(1.982868 6.4147761e-05 0)
(1.982868 -6.4147805e-05 0)
(1.8456699 -0.00017232648 0)
(1.6051595 -0.00022709638 0)
(1.3128278 -0.00021699694 0)
(1.0173341 -0.00015618224 0)
(0.75188901 -9.2014394e-05 0)
(0.53201542 -4.7473673e-05 0)
(0.35993984 -2.2000019e-05 0)
(0.23052654 -9.0119006e-06 0)
(0.13587084 -3.0521391e-06 0)
(0.067968141 -7.2314172e-07 0)
(0.019909217 -1.0466288e-07 0)
(0.019903971 8.6126651e-08 0)
(0.067950553 5.969645e-07 0)
(0.13583649 2.5273797e-06 0)
(0.2304703 7.4916275e-06 0)
(0.35985692 1.8376332e-05 0)
(0.53190436 3.9835759e-05 0)
(0.75175837 7.7712285e-05 0)
(1.0172122 0.00013432456 0)
(1.3127613 0.00019323397 0)
(1.6051772 0.00021058373 0)
(1.8457533 0.00016272992 0)
(1.9829863 6.1084317e-05 0)
(1.9829863 -6.1084365e-05 0)
(1.8457533 -0.00016272993 0)
(1.6051772 -0.0002105837 0)
(1.3127613 -0.00019323398 0)
(1.0172122 -0.00013432469 0)
(0.75175837 -7.7712424e-05 0)
(0.53190436 -3.983587e-05 0)
(0.35985692 -1.8376405e-05 0)
(0.2304703 -7.4916673e-06 0)
(0.13583649 -2.5274033e-06 0)
(0.067950553 -5.969672e-07 0)
(0.019903971 -8.6130287e-08 0)
(0.019899543 7.3356935e-08 0)
(0.067935688 5.0896361e-07 0)
(0.13580742 2.1568918e-06 0)
(0.23042259 6.4027804e-06 0)
(0.35978626 1.5747633e-05 0)
(0.5318089 3.4277912e-05 0)
(0.75164409 6.7204765e-05 0)
(1.0171021 0.00011723019 0)
(1.3126976 0.00017262497 0)
(1.6051928 0.00019308936 0)
(1.8458371 0.00015219889 0)
(1.9831061 5.7544866e-05 0)
(1.9831061 -5.7544903e-05 0)
(1.8458371 -0.0001521989 0)
(1.6051928 -0.00019308932 0)
(1.3126976 -0.00017262496 0)
(1.0171021 -0.00011723025 0)
(0.75164409 -6.7204847e-05 0)
(0.5318089 -3.4277994e-05 0)
(0.35978626 -1.5747693e-05 0)
(0.23042259 -6.4028139e-06 0)
(0.13580742 -2.156908e-06 0)
(0.067935688 -5.0896722e-07 0)
(0.019899543 -7.3358828e-08 0)
(0.019895722 6.3727678e-08 0)
(0.06792285 4.425224e-07 0)
(0.13578228 1.8767432e-06 0)
(0.23038125 5.5765458e-06 0)
(0.35972484 1.3738728e-05 0)
(0.53172535 2.9998103e-05 0)
(0.75154265 5.9111735e-05 0)
(1.0170011 0.00010388846 0)
(1.3126345 0.00015540316 0)
(1.6052015 0.00017849562 0)
(1.8459125 0.0001427158 0)
(1.9832185 5.43307e-05 0)
(1.9832185 -5.4330704e-05 0)
(1.8459125 -0.00014271577 0)
(1.6052015 -0.00017849555 0)
(1.3126345 -0.00015540311 0)
(1.0170011 -0.00010388847 0)
(0.75154265 -5.9111779e-05 0)
(0.53172535 -2.9998158e-05 0)
(0.35972483 -1.3738769e-05 0)
(0.23038125 -5.5765683e-06 0)
(0.13578228 -1.8767506e-06 0)
(0.06792285 -4.4252551e-07 0)
(0.019895722 -6.3727855e-08 0)
(0.019892371 5.6090724e-08 0)
(0.067911587 3.8977877e-07 0)
(0.13576021 1.6541309e-06 0)
(0.2303449 4.9187837e-06 0)
(0.35967069 1.2132058e-05 0)
(0.53165136 2.6542535e-05 0)
(0.7514519 5.249895e-05 0)
(1.0169086 9.2875963e-05 0)
(1.3125728 0.00014061524 0)
(1.605205 0.00016529653 0)
(1.8459798 0.00013398956 0)
(1.9833221 5.1387553e-05 0)
(1.9833221 -5.1387516e-05 0)
(1.8459798 -0.00013398949 0)
(1.605205 -0.00016529643 0)
(1.3125728 -0.00014061516 0)
(1.0169086 -9.2875941e-05 0)
(0.7514519 -5.2498971e-05 0)
(0.53165136 -2.6542565e-05 0)
(0.35967069 -1.2132077e-05 0)
(0.2303449 -4.9187897e-06 0)
(0.13576021 -1.6541274e-06 0)
(0.067911587 -3.8977988e-07 0)
(0.019892371 -5.6088979e-08 0)
(0.019889403 4.9849541e-08 0)
(0.067901607 3.4661837e-07 0)
(0.13574064 1.4717703e-06 0)
(0.23031264 4.3794078e-06 0)
(0.35962253 1.0812354e-05 0)
(0.53158531 2.3691501e-05 0)
(0.75137029 4.6984307e-05 0)
(1.016824 8.3546563e-05 0)
(1.3125139 0.00012773781 0)
(1.6052051 0.00015293383 0)
(1.8460415 0.00012582066 0)
(1.9834196 4.8616627e-05 0)
(1.9834196 -4.8616534e-05 0)
(1.8460415 -0.00012582055 0)
(1.6052051 -0.00015293369 0)
(1.3125139 -0.00012773771 0)
(1.016824 -8.3546524e-05 0)
(0.75137029 -4.6984309e-05 0)
(0.53158531 -2.3691503e-05 0)
(0.35962253 -1.0812344e-05 0)
(0.23031264 -4.379391e-06 0)
(0.13574064 -1.4717524e-06 0)
(0.067901607 -3.4661672e-07 0)
(0.019889403 -4.984528e-08 0)
(0.019886752 4.4699293e-08 0)
(0.067892685 3.1094482e-07 0)
(0.13572313 1.3208237e-06 0)
(0.23028376 3.9322235e-06 0)
(0.35957935 9.7159232e-06 0)
(0.53152593 2.1315684e-05 0)
(0.75129648 4.236043e-05 0)
(1.0167465 7.5620159e-05 0)
(1.3124581 0.00011654269 0)
(1.6052027 0.0001416991 0)
(1.8460982 0.00011827131 0)
(1.9835117 4.6031717e-05 0)
(1.9835117 -4.6031561e-05 0)
(1.8460982 -0.00011827114 0)
(1.6052027 -0.00014169892 0)
(1.3124581 -0.00011654258 0)
(1.0167465 -7.5620109e-05 0)
(0.75129648 -4.236041e-05 0)
(0.53152593 -2.1315648e-05 0)
(0.35957935 -9.7158729e-06 0)
(0.23028376 -3.9321768e-06 0)
(0.13572313 -1.3207876e-06 0)
(0.067892685 -3.1093988e-07 0)
(0.019886752 -4.4691783e-08 0)
(0.019884363 4.0386719e-08 0)
(0.067884644 2.8104055e-07 0)
(0.13570735 1.1941612e-06 0)
(0.23025769 3.5565034e-06 0)
(0.35954035 8.7929368e-06 0)
(0.53147216 1.9310126e-05 0)
(0.75122934 3.844034e-05 0)
(1.0166753 6.8839221e-05 0)
(1.3124053 0.0001067839 0)
(1.6051983 0.00013155267 0)
(1.8461504 0.00011132833 0)
(1.9835985 4.3631324e-05 0)
(1.9835985 -4.3631108e-05 0)
(1.8461504 -0.00011132811 0)
(1.6051983 -0.00013155248 0)
(1.3124053 -0.00010678377 0)
(1.0166753 -6.8839163e-05 0)
(0.75122934 -3.8440293e-05 0)
(0.53147216 -1.9310041e-05 0)
(0.35954035 -8.7928376e-06 0)
(0.23025769 -3.5564207e-06 0)
(0.13570735 -1.1941031e-06 0)
(0.067884644 -2.8103197e-07 0)
(0.019884363 -4.0375188e-08 0)
(0.019882196 3.6711674e-08 0)
(0.067877349 2.5553979e-07 0)
(0.13569303 1.0860837e-06 0)
(0.23023403 3.2356455e-06 0)
(0.3595049 8.0036245e-06 0)
(0.5314232 1.7591025e-05 0)
(0.75116797 3.5067404e-05 0)
(1.0166096 6.2964425e-05 0)
(1.3123553 9.820358e-05 0)
(1.6051923 0.00012233402 0)
(1.8461982 0.00010491348 0)
(1.9836803 4.1390655e-05 0)
(1.9836803 -4.1390386e-05 0)
(1.8461982 -0.00010491323 0)
(1.6051923 -0.00012233382 0)
(1.3123553 -9.8203455e-05 0)
(1.0166096 -6.2964359e-05 0)
(0.75116797 -3.5067323e-05 0)
(0.5314232 -1.7590881e-05 0)
(0.3595049 -8.0034679e-06 0)
(0.23023403 -3.235521e-06 0)
(0.13569303 -1.0859998e-06 0)
(0.067877349 -2.5552722e-07 0)
(0.019882196 -3.6695372e-08 0)
(0.01988022 3.3538995e-08 0)
(0.067870696 2.3351199e-07 0)
(0.13567996 9.9267813e-07 0)
(0.23021243 2.9581687e-06 0)
(0.35947252 7.3203357e-06 0)
(0.53137842 1.6100229e-05 0)
(0.75111165 3.2133179e-05 0)
(1.0165488 5.782367e-05 0)
(1.3123082 9.0602841e-05 0)
(1.6051852 0.00011395382 0)
(1.8462423 9.8956307e-05 0)
(1.9837576 3.9289164e-05 0)
(1.9837576 -3.9288852e-05 0)
(1.8462423 -9.895603e-05 0)
(1.6051852 -0.00011395362 0)
(1.3123082 -9.0602719e-05 0)
(1.0165488 -5.7823593e-05 0)
(0.75111165 -3.2133057e-05 0)
(0.53137842 -1.6100017e-05 0)
(0.35947252 -7.320113e-06 0)
(0.23021243 -2.9579967e-06 0)
(0.13567996 -9.9256476e-07 0)
(0.067870696 -2.3349499e-07 0)
(0.01988022 -3.3517225e-08 0)
(0.01987841 3.0774535e-08 0)
(0.0678646 2.1430796e-07 0)
(0.13566798 9.1120744e-07 0)
(0.23019263 2.7160045e-06 0)
(0.35944282 6.7234694e-06 0)
(0.53133729 1.4796106e-05 0)
(0.75105977 2.955986e-05 0)
(1.0164925 5.3292812e-05 0)
(1.3122638 8.3831945e-05 0)
(1.6051772 0.00010632446 0)
(1.8462831 9.3403584e-05 0)
(1.9838307 3.7312647e-05 0)
(1.9838307 -3.7312299e-05 0)
(1.8462831 -9.3403288e-05 0)
(1.6051772 -0.00010632425 0)
(1.3122638 -8.383183e-05 0)
(1.0164925 -5.3292721e-05 0)
(0.75105977 -2.9559688e-05 0)
(0.53133729 -1.4795816e-05 0)
(0.35944282 -6.7231719e-06 0)
(0.23019263 -2.715779e-06 0)
(0.13566798 -9.1106095e-07 0)
(0.0678646 -2.1428601e-07 0)
(0.01987841 -3.0746639e-08 0)
(0.019876745 2.8344464e-08 0)
(0.067858993 1.974196e-07 0)
(0.13565697 8.3953261e-07 0)
(0.23017441 2.5028521e-06 0)
(0.35941547 6.1977016e-06 0)
(0.53129937 1.36459e-05 0)
(0.75101184 2.7285493e-05 0)
(1.0164401 4.9272007e-05 0)
(1.3122219 7.776808e-05 0)
(1.6051688 9.9356542e-05 0)
(1.8463207 8.8213917e-05 0)
(1.9838998 3.544973e-05 0)
(1.9838998 -3.5449353e-05 0)
(1.8463207 -8.8213608e-05 0)
(1.6051688 -9.9356343e-05 0)
(1.3122219 -7.7767974e-05 0)
(1.0164401 -4.9271901e-05 0)
(0.75101184 -2.7285264e-05 0)
(0.53129937 -1.3645522e-05 0)
(0.35941547 -6.1973203e-06 0)
(0.23017441 -2.5025672e-06 0)
(0.13565697 -8.3934921e-07 0)
(0.067858993 -1.973921e-07 0)
(0.019876745 -2.8309775e-08 0)
(0.019875209 2.6190731e-08 0)
(0.067853818 1.8244666e-07 0)
(0.1356468 7.7596686e-07 0)
(0.23015759 2.3137395e-06 0)
(0.3593902 5.7309313e-06 0)
(0.5312643 1.2623678e-05 0)
(0.75096742 2.5260543e-05 0)
(1.0163914 4.5679838e-05 0)
(1.3121824 7.2308448e-05 0)
(1.6051599 9.2973811e-05 0)
(1.8463555 8.3350697e-05 0)
(1.9839652 3.368976e-05 0)
(1.9839652 -3.368936e-05 0)
(1.8463555 -8.3350382e-05 0)
(1.6051599 -9.2973623e-05 0)
(1.3121824 -7.2308353e-05 0)
(1.0163914 -4.5679714e-05 0)
(0.75096742 -2.5260251e-05 0)
(0.5312643 -1.2623201e-05 0)
(0.3593902 -5.7304566e-06 0)
(0.23015759 -2.3133884e-06 0)
(0.1356468 -7.7574242e-07 0)
(0.067853818 -1.8241295e-07 0)
(0.019875209 -2.6148526e-08 0)
(0.019873787 2.4268136e-08 0)
(0.067849028 1.6907676e-07 0)
(0.13563738 7.191914e-07 0)
(0.230142 2.1447714e-06 0)
(0.35936679 5.3136548e-06 0)
(0.53123179 1.1709015e-05 0)
(0.75092617 2.3445785e-05 0)
(1.016346 4.245085e-05 0)
(1.3121452 6.7368015e-05 0)
(1.6051509 8.7107984e-05 0)
(1.8463878 7.8785582e-05 0)
(1.9840271 3.2024156e-05 0)
(1.9840271 -3.2023741e-05 0)
(1.8463878 -7.8785266e-05 0)
(1.6051509 -8.7107812e-05 0)
(1.3121452 -6.7367932e-05 0)
(1.016346 -4.2450704e-05 0)
(0.75092617 -2.3445421e-05 0)
(0.53123179 -1.1708426e-05 0)
(0.35936679 -5.313076e-06 0)
(0.230142 -2.1443465e-06 0)
(0.13563738 -7.1892126e-07 0)
(0.067849028 -1.690361e-07 0)
(0.019873787 -2.4217582e-08 0)
(0.019872467 2.2541106e-08 0)
(0.067844582 1.5706374e-07 0)
(0.13562864 6.6816588e-07 0)
(0.23012754 1.9928703e-06 0)
(0.35934505 4.9383492e-06 0)
(0.53120157 1.08857e-05 0)
(0.75088777 2.1809996e-05 0)
(1.0163035 3.9532522e-05 0)
(1.31211 6.2876912e-05 0)
(1.6051418 8.1702556e-05 0)
(1.8464179 7.4492338e-05 0)
(1.9840857 3.0444774e-05 0)
(1.9840857 -3.0444349e-05 0)
(1.8464179 -7.4492027e-05 0)
(1.6051418 -8.1702405e-05 0)
(1.31211 -6.2876844e-05 0)
(1.0163035 -3.9532353e-05 0)
(0.75088777 -2.1809551e-05 0)
(0.53120157 -1.0884989e-05 0)
(0.35934505 -4.9376544e-06 0)
(0.23012754 -1.9923632e-06 0)
(0.13562864 -6.6784456e-07 0)
(0.067844582 -1.5701528e-07 0)
(0.019872467 -2.2481204e-08 0)
(0.01987124 2.0981173e-08 0)
(0.067840446 1.4621047e-07 0)
(0.13562051 6.2205671e-07 0)
(0.23011408 1.8555685e-06 0)
(0.35932481 4.5989706e-06 0)
(0.53117342 1.0140674e-05 0)
(0.75085195 2.0327919e-05 0)
(1.0162638 3.688216e-05 0)
(1.3120768 5.8777426e-05 0)
(1.6051327 7.6707254e-05 0)
(1.8464458 7.0451848e-05 0)
(1.9841412 2.8945572e-05 0)
(1.9841412 -2.8945142e-05 0)
(1.8464458 -7.0451548e-05 0)
(1.6051327 -7.6707128e-05 0)
(1.3120768 -5.8777375e-05 0)
(1.0162638 -3.6881965e-05 0)
(0.75085195 -2.0327385e-05 0)
(0.53117342 -1.0139826e-05 0)
(0.35932481 -4.598146e-06 0)
(0.23011408 -1.8549687e-06 0)
(0.13562051 -6.2167762e-07 0)
(0.067840447 -1.4615322e-07 0)
(0.01987124 -2.0910704e-08 0)
(0.019870096 1.956532e-08 0)
(0.067836593 1.3635746e-07 0)
(0.13561293 5.801891e-07 0)
(0.23010153 1.730867e-06 0)
(0.35930594 4.2906208e-06 0)
(0.53114716 9.4633387e-06 0)
(0.7508185 1.8979e-05 0)
(1.0162266 3.4464775e-05 0)
(1.3120455 5.5021426e-05 0)
(1.6051237 7.208129e-05 0)
(1.8464718 6.6643342e-05 0)
(1.9841938 2.7520118e-05 0)
(1.9841938 -2.7519686e-05 0)
(1.8464718 -6.6643058e-05 0)
(1.6051237 -7.2081196e-05 0)
(1.3120455 -5.5021397e-05 0)
(1.0162266 -3.4464553e-05 0)
(0.7508185 -1.8978367e-05 0)
(0.53114716 -9.4623364e-06 0)
(0.35930594 -4.2896496e-06 0)
(0.23010153 -1.7301623e-06 0)
(0.13561293 -5.797442e-07 0)
(0.067836593 -1.362902e-07 0)
(0.019870096 -1.9482779e-08 0)
(0.019869029 1.8274709e-08 0)
(0.067832995 1.2737416e-07 0)
(0.13560586 5.420105e-07 0)
(0.23008982 1.6171279e-06 0)
(0.35928832 4.0092805e-06 0)
(0.53112262 8.8449778e-06 0)
(0.7507872 1.7746288e-05 0)
(1.0161917 3.2251426e-05 0)
(1.312016 5.1568716e-05 0)
(1.6051149 6.7786827e-05 0)
(1.846496 6.3053601e-05 0)
(1.9842437 2.6164381e-05 0)
(1.9842437 -2.616395e-05 0)
(1.846496 -6.3053335e-05 0)
(1.6051149 -6.7786769e-05 0)
(1.312016 -5.1568711e-05 0)
(1.0161917 -3.2251174e-05 0)
(0.7507872 -1.7745546e-05 0)
(0.53112262 -8.8438015e-06 0)
(0.35928832 -4.0081421e-06 0)
(0.23008982 -1.616303e-06 0)
(0.13560586 -5.4148992e-07 0)
(0.067832995 -1.2729542e-07 0)
(0.019869029 -1.8178251e-08 0)
(0.019868031 1.7093813e-08 0)
(0.067829632 1.1915294e-07 0)
(0.13559924 5.0706505e-07 0)
(0.23007886 1.5129999e-06 0)
(0.35927183 3.7516332e-06 0)
(0.53109966 8.2783998e-06 0)
(0.75075788 1.6615775e-05 0)
(1.0161589 3.0218027e-05 0)
(1.311988 4.8385268e-05 0)
(1.6051063 6.3794254e-05 0)
(1.8465187 5.9664431e-05 0)
(1.9842909 2.4873005e-05 0)
(1.9842909 -2.4872573e-05 0)
(1.8465187 -5.9664186e-05 0)
(1.6051063 -6.3794238e-05 0)
(1.311988 -4.838529e-05 0)
(1.0161589 -3.0217742e-05 0)
(0.75075788 -1.6614908e-05 0)
(0.53109966 -8.2770246e-06 0)
(0.35927183 -3.7503026e-06 0)
(0.23007886 -1.512036e-06 0)
(0.13559924 -5.0645682e-07 0)
(0.067829632 -1.190609e-07 0)
(0.019868031 -1.6981194e-08 0)
(0.019867097 1.6009659e-08 0)
(0.067826483 1.1160387e-07 0)
(0.13559305 4.7497194e-07 0)
(0.2300686 1.4173529e-06 0)
(0.35925639 3.5149015e-06 0)
(0.53107814 7.7575655e-06 0)
(0.75073039 1.5575671e-05 0)
(1.0161281 2.8344326e-05 0)
(1.3119617 4.5442431e-05 0)
(1.6050979 6.0074063e-05 0)
(1.8465398 5.646739e-05 0)
(1.9843356 2.3643673e-05 0)
(1.9843356 -2.3643237e-05 0)
(1.8465398 -5.6467165e-05 0)
(1.6050979 -6.0074089e-05 0)
(1.3119617 -4.5442483e-05 0)
(1.0161281 -2.8344003e-05 0)
(0.75073039 -1.5574662e-05 0)
(0.53107814 -7.7559604e-06 0)
(0.35925639 -3.5133478e-06 0)
(0.2300686 -1.4162274e-06 0)
(0.13559305 -4.7426164e-07 0)
(0.067826483 -1.1149633e-07 0)
(0.019867097 -1.5878187e-08 0)
(0.019866221 1.501134e-08 0)
(0.067823531 1.0465129e-07 0)
(0.13558724 4.4541056e-07 0)
(0.23005898 1.3292363e-06 0)
(0.35924191 3.2967513e-06 0)
(0.53105796 7.2774076e-06 0)
(0.75070458 1.4616073e-05 0)
(1.0160992 2.6613135e-05 0)
(1.3119367 4.2715368e-05 0)
(1.6050897 5.6604583e-05 0)
(1.8465596 5.3444904e-05 0)
(1.984378 2.2471411e-05 0)
(1.984378 -2.2470962e-05 0)
(1.8465596 -5.3444696e-05 0)
(1.6050897 -5.6604653e-05 0)
(1.3119368 -4.2715449e-05 0)
(1.0160992 -2.6612767e-05 0)
(0.75070458 -1.4614898e-05 0)
(0.53105796 -7.2755345e-06 0)
(0.35924191 -3.2949374e-06 0)
(0.23005898 -1.3279219e-06 0)
(0.13558724 -4.4458107e-07 0)
(0.067823532 -1.0452562e-07 0)
(0.019866221 -1.4857839e-08 0)
(0.0198654 1.40896e-08 0)
(0.067820762 9.8231047e-08 0)
(0.1355818 4.1810918e-07 0)
(0.23004996 1.2478428e-06 0)
(0.35922832 3.0951942e-06 0)
(0.53103901 6.8335899e-06 0)
(0.75068033 1.3728486e-05 0)
(1.016072 2.5009824e-05 0)
(1.3119132 4.0183187e-05 0)
(1.6050819 5.3361887e-05 0)
(1.8465781 5.0593161e-05 0)
(1.9844182 2.1355464e-05 0)
(1.9844182 -2.1354993e-05 0)
(1.8465781 -5.0592965e-05 0)
(1.6050819 -5.3362001e-05 0)
(1.3119132 -4.0183298e-05 0)
(1.016072 -2.5009401e-05 0)
(0.75068033 -1.3727117e-05 0)
(0.53103901 -6.831403e-06 0)
(0.35922832 -3.0930758e-06 0)
(0.23004996 -1.2463076e-06 0)
(0.1355818 -4.1714053e-07 0)
(0.067820762 -9.8084149e-08 0)
(0.0198654 -1.3910381e-08 0)
(0.019864628 1.3236498e-08 0)
(0.067818161 9.2287951e-08 0)
(0.13557668 3.9283377e-07 0)
(0.23004148 1.1724788e-06 0)
(0.35921556 2.9085292e-06 0)
(0.5310212 6.4224206e-06 0)
(0.75065752 1.2905674e-05 0)
(1.0160463 2.3521691e-05 0)
(1.3118909 3.7827071e-05 0)
(1.6050743 5.0330151e-05 0)
(1.8465955 4.7893422e-05 0)
(1.9844563 2.0290525e-05 0)
(1.9844563 -2.0290019e-05 0)
(1.8465955 -4.7893232e-05 0)
(1.6050743 -5.0330309e-05 0)
(1.3118909 -3.7827211e-05 0)
(1.0160463 -2.35212e-05 0)
(0.75065752 -1.2904076e-05 0)
(0.5310212 -6.4198658e-06 0)
(0.35921556 -2.9060545e-06 0)
(0.23004148 -1.1706858e-06 0)
(0.13557668 -3.9170305e-07 0)
(0.067818162 -9.211624e-08 0)
(0.019864628 -1.3027353e-08 0)
(0.019863903 1.2445264e-08 0)
(0.067815717 8.6775177e-08 0)
(0.13557187 3.6938601e-07 0)
(0.23003351 1.1025538e-06 0)
(0.35920355 2.7352954e-06 0)
(0.53100445 6.0406984e-06 0)
(0.75063606 1.214135e-05 0)
(1.0160221 2.2137928e-05 0)
(1.3118699 3.5631636e-05 0)
(1.6050669 4.7489334e-05 0)
(1.8466118 4.5347204e-05 0)
(1.9844924 1.9277548e-05 0)
(1.9844924 -1.9276996e-05 0)
(1.8466118 -4.5347015e-05 0)
(1.6050669 -4.7489537e-05 0)
(1.3118699 -3.5631808e-05 0)
(1.0160221 -2.2137357e-05 0)
(0.75063607 -1.2139482e-05 0)
(0.53100445 -6.0377134e-06 0)
(0.35920355 -2.7324055e-06 0)
(0.23003351 -1.1004608e-06 0)
(0.13557187 -3.6806743e-07 0)
(0.067815717 -8.6574575e-08 0)
(0.019863903 -1.2201481e-08 0)
(0.019863221 1.1709897e-08 0)
(0.067813417 8.1650804e-08 0)
(0.13556735 3.4758798e-07 0)
(0.23002601 1.0375417e-06 0)
(0.35919226 2.5742085e-06 0)
(0.53098869 5.6856473e-06 0)
(0.75061586 1.1430056e-05 0)
(1.0159993 2.0848789e-05 0)
(1.31185 3.3581927e-05 0)
(1.6050599 4.4827909e-05 0)
(1.8466272 4.2932598e-05 0)
(1.9845266 1.8310104e-05 0)
(1.9845266 -1.8309496e-05 0)
(1.8466272 -4.2932407e-05 0)
(1.6050599 -4.4828163e-05 0)
(1.31185 -3.3582134e-05 0)
(1.0159993 -2.0848122e-05 0)
(0.75061586 -1.1427873e-05 0)
(0.53098869 -5.6821623e-06 0)
(0.35919226 -2.5708375e-06 0)
(0.23002601 -1.0351019e-06 0)
(0.13556735 -3.4605303e-07 0)
(0.067813418 -8.1416767e-08 0)
(0.019863221 -1.1426291e-08 0)
(0.019862579 1.1025422e-08 0)
(0.067811253 7.688066e-08 0)
(0.13556309 3.2729509e-07 0)
(0.23001895 9.7700921e-07 0)
(0.35918162 2.4241851e-06 0)
(0.53097384 5.3548666e-06 0)
(0.75059682 1.0767063e-05 0)
(1.0159778 1.9646257e-05 0)
(1.3118312 3.1666867e-05 0)
(1.6050532 4.2328895e-05 0)
(1.8466415 4.0658025e-05 0)
(1.984559 1.7391372e-05 0)
(1.984559 -1.7390703e-05 0)
(1.8466415 -4.0657835e-05 0)
(1.6050532 -4.2329211e-05 0)
(1.3118312 -3.1667117e-05 0)
(1.0159778 -1.9645481e-05 0)
(0.75059682 -1.0764515e-05 0)
(0.53097384 -5.3508048e-06 0)
(0.35918162 -2.4202607e-06 0)
(0.23001895 -9.7417164e-07 0)
(0.13556309 -3.2551285e-07 0)
(0.067811253 -7.660819e-08 0)
(0.019862579 -1.0696397e-08 0)
(0.019861974 1.0387057e-08 0)
(0.067809214 7.2430916e-08 0)
(0.13555908 3.0836343e-07 0)
(0.2300123 9.2053403e-07 0)
(0.35917161 2.2842092e-06 0)
(0.53095985 5.0461895e-06 0)
(0.75057887 1.0148102e-05 0)
(1.0159575 1.8522462e-05 0)
(1.3118134 2.9873641e-05 0)
(1.6050467 3.998352e-05 0)
(1.8466551 3.8495767e-05 0)
(1.9845898 1.6512788e-05 0)
(1.9845898 -1.651206e-05 0)
(1.8466551 -3.8495589e-05 0)
(1.6050467 -3.998392e-05 0)
(1.3118134 -2.9873951e-05 0)
(1.0159576 -1.8521565e-05 0)
(0.75057887 -1.0145138e-05 0)
(0.53095985 -5.0414687e-06 0)
(0.3591716 -2.2796542e-06 0)
(0.2300123 -9.1724406e-07 0)
(0.13555908 -3.0630106e-07 0)
(0.067809214 -7.2114614e-08 0)
(0.019861974 -1.00067e-08 0)
(0.019861405 9.7913313e-09 0)
(0.067807292 6.8278387e-08 0)
(0.1355553 2.9069535e-07 0)
(0.23000604 8.6781748e-07 0)
(0.35916216 2.1535065e-06 0)
(0.53094666 4.7578448e-06 0)
(0.75056194 9.5696644e-06 0)
(1.0159384 1.7471714e-05 0)
(1.3117965 2.81952e-05 0)
(1.6050405 3.7778099e-05 0)
(1.8466678 3.6463856e-05 0)
(1.9846188 1.5680767e-05 0)
(1.9846188 -1.5679995e-05 0)
(1.8466678 -3.6463716e-05 0)
(1.6050405 -3.7778615e-05 0)
(1.3117965 -2.8195592e-05 0)
(1.0159384 -1.7470688e-05 0)
(0.75056194 -9.566231e-06 0)
(0.53094666 -4.7523783e-06 0)
(0.35916216 -2.1482396e-06 0)
(0.23000603 -8.6401776e-07 0)
(0.1355553 -2.8831882e-07 0)
(0.067807293 -6.7912426e-08 0)
(0.019861405 -9.3535813e-09 0)
(0.019860867 9.2340102e-09 0)
(0.06780548 6.4392215e-08 0)
(0.13555173 2.7415886e-07 0)
(0.23000012 8.1847991e-07 0)
(0.35915325 2.0311983e-06 0)
(0.53093422 4.4880281e-06 0)
(0.75054597 9.0282047e-06 0)
(1.0159203 1.6487071e-05 0)
(1.3117806 2.6619069e-05 0)
(1.6050346 3.5704391e-05 0)
(1.8466798 3.4525027e-05 0)
(1.9846465 1.4883152e-05 0)
(1.9846465 -1.488236e-05 0)
(1.8466798 -3.452496e-05 0)
(1.6050347 -3.5705066e-05 0)
(1.3117806 -2.6619576e-05 0)
(1.0159203 -1.648591e-05 0)
(0.75054597 -9.0242464e-06 0)
(0.53093422 -4.4817257e-06 0)
(0.35915325 -2.0251352e-06 0)
(0.23000012 -8.1411086e-07 0)
(0.13555173 -2.7143363e-07 0)
(0.06780548 -6.3970028e-08 0)
(0.019860867 -8.732925e-09 0)
(0.01986036 8.7133825e-09 0)
(0.067803771 6.0762682e-08 0)
(0.13554837 2.587142e-07 0)
(0.22999455 7.7238248e-07 0)
(0.35914485 1.9168514e-06 0)
(0.53092249 4.235605e-06 0)
(0.75053089 8.5214177e-06 0)
(1.0159032 1.5565346e-05 0)
(1.3117655 2.5143155e-05 0)
(1.605029 3.3754039e-05 0)
(1.846691 3.27113e-05 0)
(1.9846726 1.4131347e-05 0)
(1.9846726 -1.4130578e-05 0)
(1.846691 -3.2711358e-05 0)
(1.605029 -3.3754929e-05 0)
(1.3117655 -2.5143817e-05 0)
(1.0159033 -1.5564049e-05 0)
(0.7505309 -8.5168805e-06 0)
(0.53092248 -4.2283769e-06 0)
(0.35914485 -1.9099087e-06 0)
(0.22999455 -7.6738469e-07 0)
(0.13554837 -2.5560681e-07 0)
(0.067803772 -6.0276814e-08 0)
(0.01986036 -8.1433637e-09 0)
(0.019859882 8.2247357e-09 0)
(0.067802157 5.7353674e-08 0)
(0.13554519 2.4420581e-07 0)
(0.22998928 7.2909425e-07 0)
(0.35913691 1.8095419e-06 0)
(0.53091139 3.9988362e-06 0)
(0.75051665 8.0459512e-06 0)
(1.0158871 1.4699332e-05 0)
(1.3117512 2.3752715e-05 0)
(1.6050236 3.1915319e-05 0)
(1.8467017 3.0970406e-05 0)
(1.9846975 1.3407394e-05 0)
(1.9846975 -1.3406699e-05 0)
(1.8467017 -3.097065e-05 0)
(1.6050236 -3.1916488e-05 0)
(1.3117512 -2.3753578e-05 0)
(1.0158871 -1.4697901e-05 0)
(0.75051665 -8.040781e-06 0)
(0.53091139 -3.9905931e-06 0)
(0.35913691 -1.801637e-06 0)
(0.22998928 -7.2341241e-07 0)
(0.13554519 -2.4068198e-07 0)
(0.067802157 -5.6800997e-08 0)
(0.019859882 -7.5790185e-09 0)
(0.01985943 7.7696191e-09 0)
(0.067800635 5.4181058e-08 0)
(0.1355422 2.3070379e-07 0)
(0.22998432 6.887709e-07 0)
(0.35912943 1.7094263e-06 0)
(0.53090094 3.7775925e-06 0)
(0.75050321 7.6013039e-06 0)
(1.0158719 1.3889725e-05 0)
(1.3117377 2.2453806e-05 0)
(1.6050185 3.0190674e-05 0)
(1.8467117 2.9355346e-05 0)
(1.9847208 1.2730618e-05 0)
(1.9847208 -1.2730063e-05 0)
(1.8467117 -2.9355851e-05 0)
(1.6050185 -3.0192193e-05 0)
(1.3117377 -2.245492e-05 0)
(1.0158719 -1.3888158e-05 0)
(0.75050321 -7.5954447e-06 0)
(0.53090093 -3.768246e-06 0)
(0.35912943 -1.7004784e-06 0)
(0.22998432 -6.8235384e-07 0)
(0.1355422 -2.2673186e-07 0)
(0.067800635 -5.3560376e-08 0)
(0.01985943 -7.0418939e-09 0)
(0.019859003 7.3401871e-09 0)
(0.067799194 5.1182325e-08 0)
(0.13553936 2.1793861e-07 0)
(0.22997961 6.506951e-07 0)
(0.35912234 1.6150963e-06 0)
(0.53089103 3.5695355e-06 0)
(0.75049047 7.1832518e-06 0)
(1.0158574 1.3126786e-05 0)
(1.3117249 2.1224645e-05 0)
(1.6050136 2.8557372e-05 0)
(1.8467212 2.7791043e-05 0)
(1.9847434 1.2073959e-05 0)
(1.9847434 -1.2073607e-05 0)
(1.8467212 -2.7791876e-05 0)
(1.6050136 -2.8559313e-05 0)
(1.3117249 -2.1226059e-05 0)
(1.0158574 -1.312509e-05 0)
(0.75049047 -7.1766594e-06 0)
(0.53089102 -3.5590152e-06 0)
(0.35912233 -1.6050429e-06 0)
(0.22997961 -6.4350167e-07 0)
(0.13553936 -2.1349616e-07 0)
(0.067799194 -5.0489767e-08 0)
(0.019859003 -6.5267819e-09 0)
(0.0198586 6.9467522e-09 0)
(0.067797837 4.8441181e-08 0)
(0.13553669 2.0626874e-07 0)
(0.22997519 6.1578577e-07 0)
(0.35911567 1.5282013e-06 0)
(0.53088171 3.376974e-06 0)
(0.75047849 6.7953894e-06 0)
(1.0158438 1.241946e-05 0)
(1.3117129 2.0087613e-05 0)
(1.605009 2.7040908e-05 0)
(1.84673 2.6362916e-05 0)
(1.9847642 1.1469639e-05 0)
(1.9847642 -1.1469553e-05 0)
(1.84673 -2.6364143e-05 0)
(1.605009 -2.7043329e-05 0)
(1.3117129 -2.0089358e-05 0)
(1.0158438 -1.2417623e-05 0)
(0.75047849 -6.7880197e-06 0)
(0.5308817 -3.3652281e-06 0)