/*--------------------------------*- C++ -*----------------------------------*\
  =========                 |
  \\      /  F ield         | OpenFOAM: The Open Source CFD Toolbox
   \\    /   O peration     | Website:  https://openfoam.org
    \\  /    A nd           | Version:  10
     \\/     M anipulation  |
\*---------------------------------------------------------------------------*/
FoamFile
{
    format      ascii;
    class       volScalarField;
    location    "28.5";
    object      T_0;
}
// * * * * * * * * * * * * * * * * * * * * * * * * * * * * * * * * * * * * * //

dimensions      [0 0 -1 0 0 0 0];

internalField   nonuniform List<scalar> 
100
(
0.909
2.71856
4.50398
6.24943
7.93941
9.55892
11.0936
12.5298
13.8548
15.0568
16.1251
17.0504
17.8243
18.44
18.892
19.1763
19.2904
19.2333
19.0055
18.609
18.0473
17.3255
16.4498
15.4282
14.2696
12.9843
11.5838
10.0805
8.48775
6.81962
5.09097
3.31713
1.51385
-0.302859
-2.11688
-3.91212
-5.67262
-7.38278
-9.0274
-10.5919
-12.0624
-13.4258
-14.67
-15.784
-16.758
-17.5831
-18.2522
-18.7593
-19.0999
-19.271
-19.271
-19.0999
-18.7593
-18.2522
-17.5831
-16.7579
-15.784
-14.67
-13.4257
-12.0623
-10.5919
-9.02736
-7.38274
-5.67258
-3.91207
-2.11684
-0.302815
1.5139
3.31718
5.09102
6.81967
8.48779
10.0806
11.5839
12.9844
14.2696
15.4282
16.4499
17.3255
18.0474
18.6091
19.0056
19.2334
19.2905
19.1763
18.892
18.44
17.8243
17.0504
16.1252
15.0568
13.8548
12.5298
11.0936
9.55893
7.93942
6.24944
4.50399
2.71856
0.909001
)
;

boundaryField
{
    xmin
    {
        type            fixedValue;
        value           uniform 0;
    }
    xmax
    {
        type            fixedValue;
        value           uniform 0;
    }
    frontAndBack
    {
        type            empty;
    }
}


// ************************************************************************* //
