/*--------------------------------*- C++ -*----------------------------------*\
| =========                 |                                                 |
| \\      /  F ield         | OpenFOAM: The Open Source CFD Toolbox           |
|  \\    /   O peration     | Version:  2406                                  |
|   \\  /    A nd           | Website:  www.openfoam.com                      |
|    \\/     M anipulation  |                                                 |
\*---------------------------------------------------------------------------*/
FoamFile
{
    version     2.0;
    format      ascii;
    arch        "LSB;label=32;scalar=64";
    class       volScalarField;
    location    "32";
    object      p;
}
// * * * * * * * * * * * * * * * * * * * * * * * * * * * * * * * * * * * * * //

dimensions      [0 2 -2 0 0 0 0];

internalField   nonuniform List<scalar> 
1176
(
0.79699976
0.79702263
0.79704629
0.79705396
0.79702243
0.79692773
0.7967705
0.79658434
0.79640514
0.79623798
0.79608336
0.79598775
0.79598775
0.79608336
0.79623798
0.79640514
0.79658434
0.79677052
0.79692778
0.7970225
0.79705405
0.79704641
0.79702276
0.79699989
0.77385133
0.77380437
0.77375661
0.77373971
0.77380221
0.77400457
0.77436989
0.77483429
0.77526515
0.77555126
0.77567065
0.77570491
0.77570491
0.77567065
0.77555125
0.77526514
0.77483427
0.77436986
0.77400453
0.77380216
0.77373964
0.77375653
0.77380429
0.77385124
0.75676657
0.75678858
0.75680838
0.75680647
0.7567474
0.75658623
0.75631446
0.75598651
0.7556803
0.75546751
0.75535671
0.75530789
0.75530789
0.75535671
0.75546751
0.7556803
0.75598652
0.75631447
0.75658624
0.75674742
0.75680648
0.75680839
0.7567886
0.75676658
0.74009468
0.7401038
0.74011586
0.74013226
0.74015481
0.74017238
0.74014014
0.74000673
0.73977462
0.73950206
0.73927785
0.73915735
0.73915735
0.73927785
0.73950205
0.73977461
0.74000672
0.74014014
0.74017237
0.7401548
0.74013225
0.74011585
0.7401038
0.74009467
0.72367563
0.72367958
0.72368458
0.72369064
0.72370034
0.72372061
0.7237568
0.72379831
0.72381998
0.72379611
0.72373399
0.72368136
0.72368135
0.72373399
0.72379611
0.72381998
0.72379831
0.7237568
0.72372061
0.72370033
0.72369063
0.72368457
0.72367958
0.72367562
0.70721397
0.70721639
0.70721963
0.70722367
0.70722859
0.70723542
0.70724959
0.7072809
0.70733089
0.70738814
0.70743085
0.7074475
0.7074475
0.70743085
0.70738814
0.70733089
0.7072809
0.70724959
0.70723542
0.70722859
0.70722367
0.70721963
0.70721639
0.70721397
0.69080816
0.6908103
0.69081311
0.69081654
0.69082044
0.69082395
0.69082602
0.69082819
0.69083674
0.69085397
0.69087187
0.69088359
0.69088359
0.69087187
0.69085397
0.69083674
0.69082819
0.69082602
0.69082395
0.69082044
0.69081654
0.69081311
0.6908103
0.69080816
0.6744283
0.67443005
0.67443238
0.6744353
0.67443898
0.67444335
0.6744478
0.67445096
0.67445219
0.67445381
0.67445085
0.67444834
0.67444834
0.67445085
0.67445381
0.67445219
0.67445096
0.6744478
0.67444335
0.67443898
0.6744353
0.67443238
0.67443006
0.6744283
0.65807401
0.65807547
0.6580774
0.65807981
0.65808282
0.65808661
0.65809166
0.6580987
0.65810739
0.65811742
0.65812518
0.65812877
0.65812877
0.65812518
0.65811742
0.65810739
0.6580987
0.65809166
0.65808661
0.65808283
0.65807981
0.6580774
0.65807547
0.65807402
0.64173632
0.64173752
0.64173913
0.64174117
0.64174373
0.64174691
0.64175107
0.64175746
0.64176762
0.64178076
0.64179508
0.64180439
0.64180439
0.64179508
0.64178076
0.64176762
0.64175746
0.64175107
0.64174691
0.64174373
0.64174117
0.64173913
0.64173753
0.64173632
0.62541194
0.62541297
0.62541434
0.62541609
0.6254183
0.62542103
0.62542442
0.62542927
0.62543713
0.62544779
0.62546035
0.62546949
0.62546949
0.62546035
0.62544779
0.62543713
0.62542927
0.62542442
0.62542103
0.6254183
0.62541609
0.62541435
0.62541297
0.62541194
0.60909847
0.60909936
0.60910056
0.60910208
0.60910402
0.60910642
0.60910938
0.60911339
0.60911961
0.60912827
0.60913884
0.60914629
0.60914629
0.60913884
0.60912827
0.60911961
0.60911339
0.60910938
0.60910642
0.60910403
0.60910209
0.60910056
0.60909936
0.60909847
0.59279427
0.59279506
0.59279612
0.59279746
0.59279918
0.59280132
0.59280395
0.59280749
0.59281289
0.59282064
0.59283033
0.59283701
0.59283701
0.59283033
0.59282064
0.59281289
0.59280749
0.59280395
0.59280132
0.59279919
0.59279747
0.59279612
0.59279506
0.59279428
0.57649805
0.57649875
0.57649969
0.5765009
0.57650243
0.57650434
0.57650669
0.57650982
0.5765146
0.57652157
0.57653023
0.57653632
0.57653632
0.57653023
0.57652157
0.57651459
0.57650982
0.57650669
0.57650434
0.57650244
0.5765009
0.5764997
0.57649876
0.57649806
0.56020878
0.56020941
0.56021026
0.56021134
0.56021272
0.56021444
0.56021654
0.5602193
0.56022346
0.56022959
0.56023712
0.56024252
0.56024252
0.56023712
0.56022959
0.56022346
0.5602193
0.56021654
0.56021444
0.56021273
0.56021134
0.56021026
0.56020942
0.56020879
0.54392566
0.54392623
0.543927
0.54392798
0.54392923
0.54393078
0.54393268
0.54393513
0.54393877
0.54394415
0.54395068
0.54395547
0.54395547
0.54395068
0.54394415
0.54393877
0.54393513
0.54393268
0.54393079
0.54392923
0.54392798
0.543927
0.54392624
0.54392567
0.52764804
0.52764855
0.52764925
0.52765014
0.52765128
0.5276527
0.52765442
0.52765663
0.52765985
0.52766461
0.52767033
0.52767462
0.52767462
0.52767033
0.52766461
0.52765984
0.52765662
0.52765442
0.5276527
0.52765129
0.52765015
0.52764925
0.52764856
0.52764804
0.51137536
0.51137583
0.51137647
0.51137728
0.51137833
0.51137963
0.5113812
0.51138319
0.51138606
0.51139031
0.51139536
0.51139923
0.51139923
0.51139536
0.51139031
0.51138606
0.51138319
0.5113812
0.51137963
0.51137833
0.51137729
0.51137647
0.51137584
0.51137536
0.49510716
0.4951076
0.49510818
0.49510893
0.49510989
0.49511109
0.49511252
0.49511433
0.49511691
0.49512072
0.49512521
0.4951287
0.4951287
0.49512521
0.49512071
0.49511691
0.49511433
0.49511252
0.49511109
0.4951099
0.49510894
0.49510819
0.4951076
0.49510717
0.47884305
0.47884345
0.47884399
0.47884468
0.47884557
0.47884667
0.47884799
0.47884964
0.47885196
0.47885539
0.47885942
0.47886258
0.47886258
0.47885942
0.47885539
0.47885196
0.47884964
0.47884799
0.47884667
0.47884558
0.47884469
0.478844
0.47884346
0.47884306
0.46258268
0.46258305
0.46258355
0.46258419
0.46258501
0.46258603
0.46258725
0.46258876
0.46259086
0.46259396
0.46259761
0.46260047
0.46260047
0.4625976
0.46259396
0.46259086
0.46258876
0.46258725
0.46258603
0.46258502
0.4625842
0.46258356
0.46258306
0.46258269
0.44632575
0.44632609
0.44632655
0.44632714
0.44632791
0.44632885
0.44632998
0.44633137
0.44633329
0.4463361
0.44633942
0.44634203
0.44634203
0.44633942
0.4463361
0.44633328
0.44633137
0.44632998
0.44632886
0.44632792
0.44632716
0.44632657
0.4463261
0.44632576
0.43007198
0.4300723
0.43007273
0.43007328
0.43007399
0.43007487
0.43007592
0.4300772
0.43007895
0.43008152
0.43008456
0.43008694
0.43008694
0.43008455
0.43008152
0.43007894
0.4300772
0.43007592
0.43007487
0.430074
0.4300733
0.43007275
0.43007232
0.430072
0.41382115
0.41382144
0.41382184
0.41382236
0.41382302
0.41382384
0.41382481
0.413826
0.41382761
0.41382996
0.41383275
0.41383493
0.41383493
0.41383275
0.41382996
0.4138276
0.413826
0.41382482
0.41382384
0.41382303
0.41382238
0.41382186
0.41382147
0.41382117
0.39757303
0.39757331
0.39757368
0.39757416
0.39757478
0.39757554
0.39757645
0.39757755
0.39757903
0.3975812
0.39758377
0.39758578
0.39758577
0.39758376
0.39758119
0.39757902
0.39757755
0.39757645
0.39757555
0.39757479
0.39757418
0.3975737
0.39757333
0.39757306
0.38132744
0.3813277
0.38132805
0.38132849
0.38132907
0.38132978
0.38133063
0.38133166
0.38133303
0.38133502
0.3813374
0.38133925
0.38133925
0.3813374
0.38133501
0.38133302
0.38133165
0.38133064
0.3813298
0.38132909
0.38132852
0.38132807
0.38132773
0.38132747
0.3650842
0.36508444
0.36508476
0.36508518
0.36508572
0.36508639
0.36508719
0.36508814
0.36508941
0.36509125
0.36509346
0.36509517
0.36509517
0.36509346
0.36509124
0.3650894
0.36508814
0.36508719
0.3650864
0.36508575
0.36508521
0.3650848
0.36508447
0.36508423
0.34884315
0.34884337
0.34884368
0.34884407
0.34884458
0.3488452
0.34884595
0.34884684
0.34884802
0.34884972
0.34885178
0.34885336
0.34885336
0.34885177
0.34884971
0.348848
0.34884683
0.34884595
0.34884522
0.3488446
0.3488441
0.34884372
0.34884341
0.34884319
0.33260414
0.33260435
0.33260464
0.33260501
0.33260548
0.33260607
0.33260677
0.33260761
0.3326087
0.33261028
0.3326122
0.33261367
0.33261366
0.33261219
0.33261027
0.33260869
0.3326076
0.33260677
0.33260609
0.33260551
0.33260505
0.33260468
0.3326044
0.33260419
0.31636705
0.31636725
0.31636752
0.31636787
0.31636831
0.31636886
0.31636952
0.3163703
0.31637132
0.3163728
0.31637458
0.31637594
0.31637594
0.31637457
0.31637278
0.31637131
0.31637029
0.31636953
0.31636888
0.31636835
0.31636791
0.31636757
0.3163673
0.31636711
0.30013176
0.30013194
0.3001322
0.30013252
0.30013294
0.30013346
0.30013407
0.30013481
0.30013576
0.30013713
0.30013881
0.30014007
0.30014007
0.3001388
0.30013712
0.30013574
0.3001348
0.30013408
0.30013348
0.30013298
0.30013257
0.30013225
0.300132
0.30013182
0.28389814
0.28389832
0.28389855
0.28389886
0.28389925
0.28389974
0.28390032
0.28390101
0.2839019
0.28390318
0.28390474
0.28390593
0.28390592
0.28390473
0.28390316
0.28390188
0.283901
0.28390033
0.28389977
0.2838993
0.28389891
0.28389861
0.28389838
0.28389821
0.2676661
0.26766627
0.26766649
0.26766678
0.26766715
0.26766761
0.26766815
0.2676688
0.26766963
0.26767083
0.2676723
0.2676734
0.2676734
0.26767229
0.26767081
0.26766961
0.26766879
0.26766816
0.26766764
0.2676672
0.26766684
0.26766655
0.26766634
0.26766617
0.25143554
0.2514357
0.25143591
0.25143618
0.25143653
0.25143696
0.25143747
0.25143808
0.25143886
0.25143998
0.25144136
0.25144239
0.25144239
0.25144135
0.25143996
0.25143884
0.25143807
0.25143748
0.25143699
0.25143658
0.25143625
0.25143598
0.25143578
0.25143562
0.23520638
0.23520652
0.23520672
0.23520698
0.2352073
0.23520771
0.2352082
0.23520877
0.2352095
0.23521055
0.23521185
0.23521281
0.23521281
0.23521183
0.23521053
0.23520948
0.23520875
0.23520821
0.23520775
0.23520736
0.23520705
0.2352068
0.23520661
0.23520646
0.21897852
0.21897866
0.21897885
0.21897909
0.2189794
0.21897978
0.21898024
0.21898078
0.21898146
0.21898244
0.21898366
0.21898457
0.21898456
0.21898364
0.21898242
0.21898144
0.21898076
0.21898025
0.21897982
0.21897946
0.21897916
0.21897893
0.21897875
0.21897861
0.2027519
0.20275203
0.2027522
0.20275243
0.20275272
0.20275309
0.20275352
0.20275402
0.20275467
0.20275559
0.20275674
0.20275759
0.20275759
0.20275672
0.20275557
0.20275464
0.20275401
0.20275353
0.20275313
0.20275279
0.20275251
0.20275229
0.20275212
0.202752
0.18652644
0.18652656
0.18652673
0.18652694
0.18652722
0.18652756
0.18652796
0.18652844
0.18652905
0.18652991
0.18653099
0.18653178
0.18653178
0.18653097
0.18652989
0.18652902
0.18652843
0.18652798
0.1865276
0.18652729
0.18652703
0.18652682
0.18652666
0.18652654
0.17030207
0.17030218
0.17030234
0.17030254
0.1703028
0.17030313
0.17030351
0.17030396
0.17030453
0.17030535
0.17030636
0.17030711
0.17030711
0.17030635
0.17030532
0.1703045
0.17030394
0.17030352
0.17030317
0.17030288
0.17030264
0.17030244
0.17030229
0.17030218
0.15407874
0.15407885
0.154079
0.15407919
0.15407943
0.15407974
0.1540801
0.15408052
0.15408106
0.15408182
0.15408276
0.15408346
0.15408346
0.15408275
0.15408179
0.15408103
0.1540805
0.15408011
0.15407979
0.15407951
0.15407928
0.1540791
0.15407896
0.15407885
0.13785637
0.13785648
0.13785662
0.1378568
0.13785703
0.13785732
0.13785766
0.13785806
0.13785856
0.13785928
0.13786018
0.13786084
0.13786083
0.13786016
0.13785925
0.13785853
0.13785804
0.13785767
0.13785737
0.13785711
0.1378569
0.13785672
0.13785659
0.13785649
0.12163494
0.12163504
0.12163517
0.12163535
0.12163556
0.12163584
0.12163616
0.12163653
0.12163701
0.12163766
0.12163848
0.12163908
0.12163908
0.12163846
0.12163763
0.12163697
0.12163652
0.12163617
0.12163589
0.12163565
0.12163545
0.12163528
0.12163516
0.12163506
0.10541436
0.10541445
0.10541458
0.10541474
0.10541495
0.10541521
0.10541551
0.10541586
0.1054163
0.10541692
0.10541769
0.10541825
0.10541824
0.10541767
0.10541689
0.10541627
0.10541584
0.10541552
0.10541526
0.10541503
0.10541484
0.10541469
0.10541457
0.10541448
0.089194646
0.089194734
0.089194853
0.089195006
0.089195203
0.089195447
0.089195733
0.089196063
0.089196465
0.089197007
0.089197665
0.089198136
0.08919813
0.089197647
0.089196975
0.089196429
0.089196043
0.089195746
0.089195497
0.089195284
0.089195107
0.089194962
0.089194849
0.089194763
0.072975641
0.072975723
0.072975835
0.07297598
0.072976168
0.072976402
0.072976677
0.07297699
0.072977366
0.072977863
0.072978451
0.072978853
0.072978848
0.072978434
0.072977832
0.072977331
0.07297697
0.072976689
0.07297645
0.072976246
0.072976077
0.072975939
0.072975833
0.072975753
0.05675752
0.056757601
0.056757709
0.056757847
0.056758023
0.056758238
0.05675849
0.056758773
0.056759093
0.056759469
0.05675985
0.056760068
0.056760064
0.056759834
0.056759439
0.056759059
0.056758753
0.0567585
0.056758283
0.056758095
0.056757937
0.056757805
0.056757702
0.056757623
0.040539733
0.040539804
0.040539901
0.040540032
0.040540207
0.040540431
0.040540695
0.040540986
0.04054131
0.040541718
0.040542189
0.0405425
0.040542496
0.040542175
0.04054169
0.040541279
0.040540968
0.040540705
0.040540471
0.040540272
0.040540111
0.040539986
0.040539892
0.040539823
0.024323463
0.024323546
0.024323653
0.024323781
0.024323928
0.024324089
0.024324261
0.024324443
0.024324608
0.024324685
0.024324601
0.024324373
0.02432437
0.024324589
0.024324663
0.024324582
0.024324429
0.024324271
0.024324124
0.024323982
0.024323845
0.024323721
0.024323616
0.024323533
0.0081053677
0.008105438
0.0081055308
0.0081056522
0.008105813
0.0081060124
0.0081062327
0.0081064711
0.0081068481
0.0081076834
0.008109163
0.0081105329
0.0081105314
0.0081091568
0.0081076708
0.0081068337
0.0081064643
0.0081062402
0.0081060346
0.0081058454
0.0081056895
0.0081055687
0.0081054761
0.0081054054
)
;

boundaryField
{
    INLET
    {
        type            zeroGradient;
    }
    OUTLET
    {
        type            fixedValue;
        value           uniform 0;
    }
    WALL
    {
        type            zeroGradient;
    }
    frontAndBackPlanes
    {
        type            empty;
    }
}


// ************************************************************************* //
