/*--------------------------------*- C++ -*----------------------------------*\
| =========                 |                                                 |
| \\      /  F ield         | OpenFOAM: The Open Source CFD Toolbox           |
|  \\    /   O peration     | Version:  2406                                  |
|   \\  /    A nd           | Website:  www.openfoam.com                      |
|    \\/     M anipulation  |                                                 |
\*---------------------------------------------------------------------------*/
FoamFile
{
    version     2.0;
    format      ascii;
    arch        "LSB;label=32;scalar=64";
    class       surfaceScalarField;
    location    "32";
    object      phi;
}
// * * * * * * * * * * * * * * * * * * * * * * * * * * * * * * * * * * * * * //

dimensions      [0 3 -1 0 0 0 0];

oriented        oriented;

internalField   nonuniform List<scalar> 
2279
(
2.3617499e-08
1.0148926e-05
2.0509766e-07
4.982375e-05
6.9331763e-07
0.00014252872
1.5784715e-06
0.00034353082
2.6788476e-06
0.00075378089
3.3472911e-06
0.0015415573
3.0435195e-06
0.0029497096
2.1516837e-06
0.005249171
1.4318035e-06
0.008582269
9.8959217e-07
0.012685995
5.1266823e-07
0.016666385
1.236025e-12
0.01918202
-5.1266784e-07
0.01918202
-9.8960138e-07
0.016666385
-1.4318372e-06
0.012685995
-2.151762e-06
0.0085822691
-3.0436542e-06
0.0052491711
-3.3474641e-06
0.0029497097
-2.6790121e-06
0.0015415574
-1.5785901e-06
0.00075378093
-6.9338456e-07
0.00034353083
-2.051272e-07
0.00014252872
-2.3626598e-08
4.9823747e-05
1.0148926e-05
-9.5248471e-08
1.0244175e-05
-5.3794009e-07
5.0266441e-05
-1.6230012e-06
0.00014361378
-3.5389526e-06
0.00034544677
-5.920187e-06
0.00075616213
-7.4055033e-06
0.0015430426
-6.5847286e-06
0.0029488888
-3.9361613e-06
0.0052465224
-1.3883905e-06
0.0085797213
-6.5119629e-08
0.012684671
2.4240825e-07
0.016666078
6.195712e-12
0.019182263
-2.4238934e-07
0.019182263
6.5158585e-08
0.016666078
1.388461e-06
0.012684671
3.9362753e-06
0.0085797212
6.5848886e-06
0.0052465223
7.405685e-06
0.0029488887
5.9203432e-06
0.0015430426
3.5390527e-06
0.00075616209
1.6230495e-06
0.00034544675
5.3795652e-07
0.00014361377
9.5250255e-08
5.0266438e-05
1.0244174e-05
5.0139836e-08
1.0194035e-05
2.6334496e-07
5.0053236e-05
7.491071e-07
0.00014312802
1.5314582e-06
0.00034466442
2.3366553e-06
0.00075535693
2.5476611e-06
0.0015428316
1.8390947e-06
0.0029495974
9.7567249e-07
0.0052473859
6.7695518e-07
0.00858002
6.7178171e-07
0.012684677
4.8415618e-07
0.016666266
-1.3411446e-11
0.019182747
-4.8418799e-07
0.019182747
-6.7182653e-07
0.016666266
-6.770142e-07
0.012684677
-9.7574084e-07
0.00858002
-1.8391572e-06
0.0052473859
-2.5477055e-06
0.0029495974
-2.3366782e-06
0.0015428316
-1.5314639e-06
0.00075535694
-7.4910535e-07
0.00034466443
-2.6334225e-07
0.00014312802
-5.0137959e-08
5.0053238e-05
1.0194036e-05
1.9586708e-08
1.0174448e-05
1.1184923e-07
4.9960974e-05
3.6128422e-07
0.00014287858
9.0504763e-07
0.00034412066
1.8716596e-06
0.00075439032
3.0948229e-06
0.0015416085
3.8987228e-06
0.0029487935
3.7285532e-06
0.005247556
2.9242082e-06
0.0085808243
1.9733723e-06
0.012685627
1.0127701e-06
0.016667226
3.7331171e-12
0.01918376
-1.0127606e-06
0.01918376
-1.9733572e-06
0.016667226
-2.9241869e-06
0.012685627
-3.7285302e-06
0.0085808243
-3.8987073e-06
0.005247556
-3.0948181e-06
0.0029487935
-1.8716626e-06
0.0015416085
-9.0505292e-07
0.00075439032
-3.6128824e-07
0.00034412066
-1.1185131e-07
0.00014287858
-1.9587492e-08
4.9960974e-05
1.0174448e-05
8.0839126e-09
1.0166364e-05
4.7141412e-08
4.9921916e-05
1.5494678e-07
0.00014277078
3.9846297e-07
0.00034387714
8.7979434e-07
0.00075390899
1.7015158e-06
0.0015407867
2.7512741e-06
0.0029477437
3.4623595e-06
0.0052468449
3.470859e-06
0.0085808158
2.8006835e-06
0.012686298
1.5505124e-06
0.016668476
-1.3522062e-12
0.01918531
-1.5505157e-06
0.01918531
-2.8006887e-06
0.016668476
-3.4708663e-06
0.012686298
-3.4623621e-06
0.0085808158
-2.7512698e-06
0.0052468449
-1.7015073e-06
0.0029477437
-8.7978553e-07
0.0015407867
-3.9845713e-07
0.00075390899
-1.5494413e-07
0.00034387714
-4.7140635e-08
0.00014277078
-8.0839201e-09
4.9921916e-05
1.0166364e-05
4.9358565e-09
1.0161429e-05
2.8698815e-08
4.9898153e-05
9.512137e-08
0.00014270436
2.4921422e-07
0.00034372305
5.6360916e-07
0.00075359459
1.1213744e-06
0.001540229
1.9184567e-06
0.0029469467
2.6588189e-06
0.0052461046
2.8930565e-06
0.0085805816
2.4787636e-06
0.012686712
1.4344235e-06
0.016669521
-1.9820419e-12
0.019186745
-1.4344285e-06
0.019186745
-2.4787705e-06
0.016669521
-2.8930634e-06
0.012686712
-2.6588244e-06
0.0085805816
-1.9184598e-06
0.0052461046
-1.1213756e-06
0.0029469467
-5.6360885e-07
0.001540229
-2.4921346e-07
0.00075359459
-9.5120836e-08
0.00034372305
-2.8698597e-08
0.00014270436
-4.9358178e-09
4.9898153e-05
1.0161429e-05
4.4123458e-09
1.0157016e-05
2.5525641e-08
4.987704e-05
8.3830052e-08
0.00014264605
2.1689402e-07
0.00034358999
4.8450089e-07
0.00075332698
9.5636038e-07
0.0015397571
1.6413729e-06
0.0029462616
2.324581e-06
0.0052454214
2.5939514e-06
0.0085803122
2.2393607e-06
0.012687066
1.3066717e-06
0.016670453
-8.2938241e-13
0.019188051
-1.3066736e-06
0.019188051
-2.2393624e-06
0.016670453
-2.5939508e-06
0.012687066
-2.3245789e-06
0.0085803122
-1.6413706e-06
0.0052454214
-9.5635902e-07
0.0029462616
-4.8450055e-07
0.0015397571
-2.1689425e-07
0.00075332698
-8.3830386e-08
0.00034358999
-2.5525854e-08
0.00014264605
-4.4124376e-09
4.987704e-05
1.0157016e-05
3.6255321e-09
1.0153391e-05
2.1036566e-08
4.9859629e-05
6.9438052e-08
0.00014259765
1.8114134e-07
0.00034347828
4.0971411e-07
0.00075309841
8.2390348e-07
0.0015393429
1.4539919e-06
0.0029456316
2.1430748e-06
0.0052447323
2.4674722e-06
0.0085799878
2.1883924e-06
0.012687346
1.286642e-06
0.016671355
2.6381089e-13
0.019189338
-1.2866415e-06
0.019189338
-2.1883911e-06
0.016671355
-2.4674691e-06
0.012687346
-2.1430707e-06
0.0085799878
-1.4539887e-06
0.0052447323
-8.2390193e-07
0.0029456316
-4.0971391e-07
0.0015393429
-1.8114177e-07
0.00075309841
-6.9438489e-08
0.00034347828
-2.1036796e-08
0.00014259765
-3.6256021e-09
4.9859629e-05
1.0153391e-05
2.9831309e-09
1.0150408e-05
1.7346984e-08
4.9845265e-05
5.7377229e-08
0.00014255762
1.500737e-07
0.00034338559
3.4097091e-07
0.00075290751
6.9193149e-07
0.001538992
1.2441085e-06
0.0029450794
1.9041858e-06
0.0052440722
2.3016005e-06
0.0085795904
2.0975081e-06
0.01268755
1.2520107e-06
0.016672201
9.4685021e-13
0.01919059
-1.2520085e-06
0.01919059
-2.0975045e-06
0.016672201
-2.3015955e-06
0.01268755
-1.9041814e-06
0.0085795904
-1.2441062e-06
0.0052440722
-6.919314e-07
0.0029450794
-3.4097203e-07
0.001538992
-1.5007494e-07
0.00075290751
-5.7378027e-08
0.00034338559
-1.7347312e-08
0.00014255762
-2.9831905e-09
4.9845265e-05
1.0150408e-05
2.4654267e-09
1.0147942e-05
1.4363107e-08
4.9833367e-05
4.7626437e-08
0.00014252436
1.2502858e-07
0.00034330818
2.8558877e-07
0.00075274695
5.8417925e-07
0.0015386934
1.0641843e-06
0.0029445994
1.664158e-06
0.0052434722
2.0898748e-06
0.0085791647
1.9528949e-06
0.012687687
1.1802453e-06
0.016672973
1.2157375e-12
0.01919177
-1.1802423e-06
0.01919177
-1.9528902e-06
0.016672973
-2.0898694e-06
0.012687687
-1.6641542e-06
0.0085791647
-1.0641831e-06
0.0052434722
-5.8418023e-07
0.0029445994
-2.8559076e-07
0.0015386934
-1.2503037e-07
0.00075274695
-4.7627483e-08
0.00034330818
-1.4363511e-08
0.00014252436
-2.4654866e-09
4.9833367e-05
1.0147942e-05
2.1024514e-09
1.014584e-05
1.2258061e-08
4.9823212e-05
4.0688242e-08
0.00014249593
1.0699014e-07
0.00034324188
2.4507834e-07
0.00075260887
5.0385284e-07
0.0015384346
9.2623472e-07
0.002944177
1.4715114e-06
0.005242927
1.8909087e-06
0.0085787453
1.8050229e-06
0.012687772
1.1036904e-06
0.016673675
8.3552339e-13
0.019192874
-1.1036879e-06
0.019192874
-1.8050188e-06
0.016673675
-1.8909044e-06
0.012687772
-1.4715089e-06
0.0085787453
-9.2623462e-07
0.005242927
-5.0385466e-07
0.002944177
-2.4508088e-07
0.0015384346
-1.0699221e-07
0.00075260887
-4.06894e-08
0.00034324188
-1.2258493e-08
0.00014249593
-2.1025062e-09
4.9823212e-05
1.014584e-05
1.8282379e-09
1.0144011e-05
1.0665501e-08
4.9814374e-05
3.5430294e-08
0.00014247116
9.328296e-08
0.00034318403
2.1413905e-07
0.00075248801
4.419274e-07
0.0015382068
8.1811341e-07
0.0029438008
1.3163806e-06
0.0052424287
1.724494e-06
0.0085783372
1.6780428e-06
0.012687819
1.0378045e-06
0.016674315
3.2061757e-13
0.019193912
-1.037803e-06
0.019193912
-1.67804e-06
0.016674315
-1.7244913e-06
0.012687819
-1.3163795e-06
0.0085783372
-8.1811426e-07
0.0052424287
-4.4192982e-07
0.0029438008
-2.1414194e-07
0.0015382068
-9.3285217e-08
0.00075248801
-3.5431529e-08
0.00034318403
-1.0665954e-08
0.00014247116
-1.8282915e-09
4.9814374e-05
1.0144011e-05
1.6104944e-09
1.0142401e-05
9.3996794e-09
4.9806585e-05
3.1244428e-08
0.00014244932
8.2340386e-08
0.00034313293
1.8932061e-07
0.00075238103
3.918229e-07
0.0015380043
7.2924139e-07
0.0029434634
1.1851456e-06
0.0052419728
1.5781752e-06
0.0085779442
1.5623391e-06
0.012687835
9.7669772e-07
0.0166749
-7.0548472e-14
0.019194888
-9.7669715e-07
0.019194888
-1.5623375e-06
0.0166749
-1.5781739e-06
0.012687835
-1.1851453e-06
0.0085779442
-7.2924274e-07
0.0052419728
-3.9182563e-07
0.0029434634
-1.8932371e-07
0.0015380043
-8.2342777e-08
0.00075238103
-3.1245737e-08
0.00034313293
-9.4001624e-09
0.00014244932
-1.6105529e-09
4.9806585e-05
1.0142401e-05
1.4323232e-09
1.0140969e-05
8.3630487e-09
4.9799655e-05
2.7812669e-08
0.00014242987
7.3352853e-08
0.00034308739
1.6886886e-07
0.00075228551
3.5026811e-07
0.0015378229
6.5458319e-07
0.0029431591
1.0720594e-06
0.0052415553
1.4464335e-06
0.0085775698
1.454876e-06
0.012687826
9.1880899e-07
0.016675437
-1.4779321e-13
0.019195807
-9.1880871e-07
0.019195807
-1.4548749e-06
0.016675437
-1.4464326e-06
0.012687826
-1.0720593e-06
0.0085775698
-6.545846e-07
0.0052415553
-3.5027094e-07
0.0029431591
-1.6887212e-07
0.0015378229
-7.3355407e-08
0.00075228551
-2.7814088e-08
0.00034308739
-8.3635802e-09
0.00014242987
-1.4323923e-09
4.9799655e-05
1.0140969e-05
1.285016e-09
1.0139684e-05
7.5051282e-09
4.9793434e-05
2.4968943e-08
0.0001424124
6.5891282e-08
0.00034304647
1.518383e-07
0.00075219957
3.1548575e-07
0.0015376593
5.9149719e-07
0.0029428831
9.7478756e-07
0.005241172
1.3297051e-06
0.0085772149
1.3567871e-06
0.012687799
8.6525183e-07
0.016675928
1.843312e-13
0.019196672
-8.6525101e-07
0.019196672
-1.3567858e-06
0.016675928
-1.3297039e-06
0.012687799
-9.7478703e-07
0.0085772149
-5.914983e-07
0.005241172
-3.154886e-07
0.0029428831
-1.518418e-07
0.0015376593
-6.5894108e-08
0.00075219957
-2.4970542e-08
0.00034304647
-7.5057387e-09
0.0001424124
-1.2851016e-09
4.9793434e-05
1.0139684e-05
1.1615036e-09
1.0138522e-05
6.785261e-09
4.9787811e-05
2.2580578e-08
0.00014239661
5.9615606e-08
0.00034300944
1.3748144e-07
0.0007521217
2.8604722e-07
0.0015375107
5.3771188e-07
0.0029426314
8.9070707e-07
0.005240819
1.2263986e-06
0.0085768792
1.2674903e-06
0.012687758
8.159272e-07
0.01667638
9.119942e-13
0.019197488
-8.1592505e-07
0.019197488
-1.2674877e-06
0.01667638
-1.2263961e-06
0.012687758
-8.9070548e-07
0.0085768792
-5.3771248e-07
0.005240819
-2.8605015e-07
0.0029426314
-1.3748535e-07
0.0015375107
-5.9618866e-08
0.0007521217
-2.2582455e-08
0.00034300944
-6.7859881e-09
0.00014239661
-1.1616115e-09
4.9787811e-05
1.0138522e-05
1.0561639e-09
1.0137466e-05
6.1710372e-09
4.9782696e-05
2.0541464e-08
0.00014238224
5.4252323e-08
0.00034297572
1.2519112e-07
0.00075205076
2.6076858e-07
0.0015373751
4.9125272e-07
0.0029424009
8.1722646e-07
0.005240493
1.134185e-06
0.0085765622
1.1857919e-06
0.012687707
7.7021612e-07
0.016676795
1.9194607e-12
0.019198259
-7.7021204e-07
0.019198259
-1.1857875e-06
0.016676795
-1.1341806e-06
0.012687707
-8.1722349e-07
0.0085765622
-4.9125275e-07
0.0052404931
-2.6077174e-07
0.0029424009
-1.2519569e-07
0.0015373751
-5.4256215e-08
0.00075205076
-2.054373e-08
0.00034297573
-6.1719228e-09
0.00014238224
-1.0562997e-09
4.9782696e-05
1.0137466e-05
9.6516218e-10
1.0136501e-05
5.6402186e-09
4.9778021e-05
1.8778372e-08
0.0001423691
4.9611417e-08
0.00034294489
1.1454195e-07
0.00075198583
2.3881154e-07
0.0015372509
4.5070499e-07
0.002942189
7.5248425e-07
0.0052401913
1.0515016e-06
0.0085762632
1.1108335e-06
0.012687647
7.276909e-07
0.016677178
3.0934058e-12
0.019198986
-7.2768451e-07
0.019198986
-1.1108268e-06
0.016677178
-1.051495e-06
0.012687647
-7.5247972e-07
0.0085762632
-4.5070451e-07
0.0052401913
-2.3881516e-07
0.002942189
-1.1454746e-07
0.0015372509
-4.9616163e-08
0.00075198583
-1.8781147e-08
0.00034294489
-5.6413065e-09
0.0001423691
-9.6533095e-10
4.9778021e-05
1.0136501e-05
8.858188e-10
1.0135615e-05
5.1772417e-09
4.9773729e-05
1.7239922e-08
0.00014235704
4.5559023e-08
0.00034291657
1.0523246e-07
0.00075192616
2.1957698e-07
0.0015371365
4.1504323e-07
0.0029419936
6.950907e-07
0.0052399112
9.7709624e-07
0.0085759812
1.0418699e-06
0.012687582
6.880082e-07
0.016677532
4.3073639e-12
0.019199674
-6.8799933e-07
0.019199674
-1.0418605e-06
0.016677532
-9.7708727e-07
0.012687582
-6.9508454e-07
0.0085759812
-4.1504237e-07
0.0052399112
-2.1958134e-07
0.0029419936
-1.0523921e-07
0.0015371365
-4.5564851e-08
0.00075192616
-1.724333e-08
0.00034291657
-5.1785765e-09
0.00014235704
-8.860255e-10
4.9773729e-05
1.0135615e-05
8.1603715e-10
1.0134799e-05
4.769943e-09
4.9769775e-05
1.5885988e-08
0.00014234592
4.1990615e-08
0.00034289047
9.702697e-08
0.00075187112
2.0259401e-07
0.0015370309
3.8344983e-07
0.0029418127
6.4389724e-07
0.0052396508
9.0984504e-07
0.0085757152
9.7823893e-07
0.012687514
6.5087022e-07
0.01667786
5.4573093e-12
0.019200325
-6.5085895e-07
0.019200325
-9.7822699e-07
0.01667786
-9.0983361e-07
0.012687514
-6.438895e-07
0.0085757152
-3.8344875e-07
0.0052396508
-2.025994e-07
0.0029418127
-9.7035272e-08
0.0015370309
-4.199776e-08
0.00075187112
-1.5890154e-08
0.00034289047
-4.7715697e-09
0.00014234592
-8.1628663e-10
4.9769775e-05
1.0134799e-05
7.5416604e-10
1.0134045e-05
4.4087338e-09
4.9766121e-05
1.4684905e-08
0.00014233564
3.8823577e-08
0.00034286633
8.9738642e-08
0.00075182021
1.8748736e-07
0.0015369332
3.5526631e-07
0.0029416449
5.9795995e-07
0.0052394081
8.4879086e-07
0.0085754644
9.1937012e-07
0.012687443
6.1601508e-07
0.016678163
6.4766505e-12
0.019200941
-6.1600159e-07
0.019200941
-9.1935562e-07
0.016678163
-8.48777e-07
0.012687443
-5.9795071e-07
0.0085754644
-3.5526522e-07
0.0052394081
-1.8749409e-07
0.0029416449
-8.9748819e-08
0.0015369332
-3.8832277e-08
0.00075182021
-1.4689956e-08
0.00034286633
-4.4106979e-09
0.00014233564
-7.5446323e-10
4.9766121e-05
1.0134045e-05
6.9891625e-10
1.0133346e-05
4.086118e-09
4.9762734e-05
1.3611879e-08
0.00014232612
3.5993073e-08
0.00034284395
8.3220362e-08
0.00075177298
1.7395988e-07
0.0015368425
3.2996611e-07
0.0029414889
5.5650899e-07
0.0052391815
7.9312328e-07
0.0085752278
8.6477192e-07
0.012687372
5.8323672e-07
0.016678444
7.3351117e-12
0.019201524
-5.8322126e-07
0.019201524
-8.6475501e-07
0.016678444
-7.9310706e-07
0.012687372
-5.5649834e-07
0.0085752278
-3.2996523e-07
0.0052391816
-1.7396825e-07
0.0029414889
-8.3232735e-08
0.0015368425
-3.6003568e-08
0.00075177298
-1.3617943e-08
0.00034284395
-4.0884659e-09
0.00014232612
-6.9926625e-10
4.9762734e-05
1.0133346e-05
6.4927151e-10
1.0132697e-05
3.7961818e-09
4.9759587e-05
1.264733e-08
0.00014231727
3.3447832e-08
0.00034282315
7.7355529e-08
0.00075172907
1.6177519e-07
0.001536758
3.0712766e-07
0.0029413436
5.1892113e-07
0.0052389697
7.4217544e-07
0.0085750045
8.1401779e-07
0.0126873
5.5234803e-07
0.016678706
8.033709e-12
0.019202077
-5.5233089e-07
0.019202077
-8.1399863e-07
0.016678706
-7.4215696e-07
0.0126873
-5.1890918e-07
0.0085750046
-3.0712718e-07
0.0052389698
-1.6178552e-07
0.0029413436
-7.7370431e-08
0.001536758
-3.3460369e-08
0.00075172908
-1.265454e-08
0.00034282315
-3.798961e-09
0.00014231727
-6.496796e-10
4.9759587e-05
1.0132697e-05
6.0441777e-10
1.0132092e-05
3.5341864e-09
4.9756657e-05
1.177556e-08
0.00014230903
3.1146695e-08
0.00034280378
7.2050366e-08
0.00075168817
1.5074255e-07
0.0015366793
2.8640851e-07
0.0029412079
4.846832e-07
0.0052387715
6.9538334e-07
0.0085747938
7.6674777e-07
0.012687229
5.2321029e-07
0.01667895
8.586436e-12
0.0192026
-5.2319171e-07
0.0192026
-7.6672651e-07
0.01667895
-6.9536265e-07
0.012687229
-4.8467005e-07
0.0085747939
-2.8640865e-07
0.0052387715
-1.5075517e-07
0.0029412079
-7.2068134e-08
0.0015366794
-3.1161525e-08
0.00075168817
-1.1784049e-08
0.00034280378
-3.5374451e-09
0.00014230903
-6.0488941e-10
4.9756657e-05
1.0132092e-05
5.6369648e-10
1.0131528e-05
3.2962961e-09
4.9753924e-05
1.0983854e-08
0.00014230134
2.9056312e-08
0.0003427857
6.7228801e-08
0.00075165
1.4070689e-07
0.0015366059
2.6752925e-07
0.0029410811
4.5337375e-07
0.0052385856
6.5227809e-07
0.0085745949
7.2263999e-07
0.012687158
4.9567996e-07
0.016679177
9.0089511e-12
0.019203096
-4.9566014e-07
0.019203096
-7.2261673e-07
0.016679177
-6.5225524e-07
0.012687158
-4.5335946e-07
0.008574595
-2.6753021e-07
0.0052385856
-1.4072213e-07
0.0029410811
-6.7249782e-08
0.0015366059
-2.907369e-08
0.00075165
-1.099376e-08
0.00034278571
-3.3000835e-09
0.00014230134
-5.6423717e-10
4.9753924e-05
1.0131528e-05
5.2656841e-10
1.0131002e-05
3.0793698e-09
4.9751372e-05
1.0261798e-08
0.00014229416
2.7149333e-08
0.00034276882
6.2828363e-08
0.00075161432
1.3154055e-07
0.0015365372
2.5025853e-07
0.0029409624
4.2463922e-07
0.0052384112
6.1245555e-07
0.0085744071
6.8142666e-07
0.012687089
4.696631e-07
0.016679388
9.3203849e-12
0.019203565
-4.6964221e-07
0.019203565
-6.8140148e-07
0.016679388
-6.1243055e-07
0.012687089
-4.2462387e-07
0.0085744071
-2.5026054e-07
0.0052384113
-1.3155874e-07
0.0029409624
-6.2852907e-08
0.0015365372
-2.7169519e-08
0.00075161433
-1.0273256e-08
0.00034276882
-3.0837349e-09
0.00014229416
-5.2718358e-10
4.9751372e-05
1.0131002e-05
4.9258903e-10
1.0130509e-05
2.8808168e-09
4.9748983e-05
9.600797e-09
0.00014228744
2.5403195e-08
0.00034275301
5.8797487e-08
0.00075158092
1.2313805e-07
0.0015364728
2.3440495e-07
0.0029408511
3.9818667e-07
0.0052382475
5.7557926e-07
0.0085742297
6.4285566e-07
0.012687022
4.4503842e-07
0.016679586
9.5443581e-12
0.01920401
-4.4501657e-07
0.01920401
-6.4282858e-07
0.016679586
-5.7555211e-07
0.012687022
-3.9817031e-07
0.0085742297
-2.3440821e-07
0.0052382475
-1.2315954e-07
0.0029408511
-5.8825947e-08
0.0015364728
-2.5426445e-08
0.00075158093
-9.6139442e-09
0.00034275302
-2.8858081e-09
0.00014228744
-4.9328385e-10
4.9748983e-05
1.0130509e-05
4.613868e-10
1.0130048e-05
2.6984723e-09
4.9746746e-05
8.9936692e-09
0.00014228114
2.3799017e-08
0.00034273821
5.5092962e-08
0.00075154963
1.1541077e-07
0.0015364125
2.1980676e-07
0.0029407467
3.7376475e-07
0.0052380935
5.4135174e-07
0.0085740621
6.0672679e-07
0.012686957
4.217464e-07
0.016679771
9.6971734e-12
0.019204432
-4.2172368e-07
0.019204432
-6.0669782e-07
0.016679771
-5.4132241e-07
0.012686957
-3.7374746e-07
0.0085740622
-2.1981148e-07
0.0052380935
-1.1543589e-07
0.0029407467
-5.5125685e-08
0.0015364125
-2.3825584e-08
0.00075154964
-9.0086369e-09
0.00034273821
-2.7041361e-09
0.00014228114
-4.6216594e-10
4.9746746e-05
1.0130048e-05
4.3264935e-10
1.0129615e-05
2.5305146e-09
4.9744649e-05
8.4343702e-09
0.00014227524
2.2320921e-08
0.00034272432
5.1678477e-08
0.00075152027
1.0828429e-07
0.0015363559
2.0632819e-07
0.0029406487
3.5116345e-07
0.0052379487
5.0952488e-07
0.0085739038
5.728323e-07
0.012686893
3.9967251e-07
0.016679944
9.8158582e-12
0.019204832
-3.9964897e-07
0.019204832
-5.7280143e-07
0.016679944
-5.0949334e-07
0.012686893
-3.5114527e-07
0.0085739038
-2.0633459e-07
0.0052379487
-1.0831337e-07
0.0029406487
-5.1715798e-08
0.0015363559
-2.2351044e-08
0.00075152028
-8.4512823e-09
0.00034272433
-2.5368939e-09
0.00014227524
-4.3351677e-10
4.9744648e-05
1.0129615e-05
4.0611146e-10
1.0129209e-05
2.3753988e-09
4.9742679e-05
7.9177713e-09
0.0001422697
2.0955408e-08
0.00034271129
4.8523071e-08
0.0007514927
1.0169489e-07
0.0015363027
1.9385222e-07
0.0029405565
3.3019816e-07
0.0052378123
4.7987364e-07
0.0085737541
5.4102557e-07
0.012686832
3.7878894e-07
0.016680107
9.9006088e-12
0.01920521
-3.7876464e-07
0.01920521
-5.4099279e-07
0.016680107
-4.7983988e-07
0.012686832
-3.3017918e-07
0.0085737541
-1.9386053e-07
0.0052378124
-1.0172826e-07
0.0029405565
-4.8565303e-08
0.0015363027
-2.0989306e-08
0.00075149272
-7.9367388e-09
0.00034271129
-2.3825313e-09
0.00014226969
-4.0707009e-10
4.9742679e-05
1.0129209e-05
3.8154552e-10
1.0128828e-05
2.2317959e-09
4.9740829e-05
7.4394619e-09
0.00014226449
1.9690899e-08
0.00034269903
4.5600274e-08
0.0007514668
9.5588266e-08
0.0015362527
1.8227943e-07
0.0029404698
3.1071372e-07
0.0052376839
4.5220959e-07
0.0085736126
5.111234e-07
0.012686773
3.5897448e-07
0.016680259
9.909783e-12
0.019205569
-3.5894949e-07
0.019205569
-5.1108873e-07
0.016680259
-4.5217362e-07
0.012686773
-3.1069403e-07
0.0085736126
-1.8228988e-07
0.0052376839
-9.5626221e-08
0.0029404699
-4.5647696e-08
0.0015362528
-1.9728762e-08
0.00075146681
-7.4605781e-09
0.00034269904
-2.2397121e-09
0.00014226449
-3.8259697e-10
4.9740829e-05
1.0128827e-05
3.5875745e-10
1.0128469e-05
2.0985772e-09
4.9739089e-05
6.995693e-09
0.00014225959
1.85175e-08
0.00034268751
4.2887307e-08
0.00075144243
8.9917342e-08
0.0015362057
1.7152283e-07
0.0029403882
2.9257116e-07
0.0052375628
4.263599e-07
0.0085734788
4.8302801e-07
0.012686717
3.4023703e-07
0.016680402
9.8762739e-12
0.01920591
-3.4021144e-07
0.01920591
-4.8299149e-07
0.016680402
-4.2632178e-07
0.012686717
-2.925509e-07
0.0085734789
-1.7153563e-07
0.0052375629
-8.9960154e-08
0.0029403883
-4.2940155e-08
0.0015362057
-1.8559479e-08
0.00075144244
-7.0190285e-09
0.00034268752
-2.1072986e-09
0.00014225959
-3.5990185e-10
4.9739089e-05
1.0128469e-05
3.3757516e-10
1.0128131e-05
1.9747343e-09
4.9737452e-05
6.5831175e-09
0.00014225498
1.7426448e-08
0.00034267667
4.036421e-08
0.00075141949
8.4641232e-08
0.0015361614
1.6150731e-07
0.0029403113
2.7565208e-07
0.0052374487
4.0217546e-07
0.0085733523
4.5656213e-07
0.012686662
3.22434e-07
0.016680536
9.7770437e-12
0.019206232
-3.2240792e-07
0.019206232
-4.5652388e-07
0.016680536
-4.0213532e-07
0.012686662
-2.7563144e-07
0.0085733523
-1.6152271e-07
0.0052374488
-8.4689132e-08
0.0029403114
-4.0422658e-08
0.0015361615
-1.7472641e-08
0.0007514195
-6.6087121e-09
0.00034267667
-1.9842702e-09
0.00014225498
-3.3881069e-10
4.9737451e-05
1.0128131e-05
3.178558e-10
1.0127813e-05
1.8594415e-09
4.9735911e-05
6.1989904e-09
0.00014225064
1.6410449e-08
0.00034266646
3.8014024e-08
0.00075139789
7.9724584e-08
0.0015361197
1.5216722e-07
0.0029402389
2.5985098e-07
0.005237341
3.7952561e-07
0.0085732326
4.3168107e-07
0.01268661
3.0561993e-07
0.016680662
9.5815642e-12
0.019206538
-3.0559357e-07
0.019206538
-4.3164125e-07
0.016680662
-3.7948364e-07
0.01268661
-2.5983018e-07
0.0085732327
-1.5218543e-07
0.0052373411
-7.9777749e-08
0.002940239
-3.8078171e-08
0.0015361198
-1.6460892e-08
0.0007513979
-6.2268476e-09
0.00034266646
-1.8697871e-09
0.00014225064
-3.1917837e-10
4.973591e-05
1.0127813e-05
2.9946228e-10
1.0127514e-05
1.751887e-09
4.9734458e-05
5.8406186e-09
0.00014224655
1.5462513e-08
0.00034265684
3.5821027e-08
0.00075137753
7.513546e-08
0.0015360804
1.4344363e-07
0.0029401706
2.4507299e-07
0.0052372394
3.5828264e-07
0.0085731194
4.0819115e-07
0.01268656
2.8961146e-07
0.01668078
9.2282801e-12
0.019206827
-2.8958509e-07
0.019206827
-4.0815006e-07
0.01668078
-3.5823914e-07
0.01268656
-2.4505233e-07
0.0085731194
-1.434649e-07
0.0052372395
-7.5194003e-08
0.0029401707
-3.5890883e-08
0.0015360804
-1.5517166e-08
0.00075137754
-5.8706992e-09
0.00034265684
-1.7630214e-09
0.00014224655
-3.0086568e-10
4.9734457e-05
1.0127514e-05
2.8229476e-10
1.0127232e-05
1.6515071e-09
4.9733089e-05
5.5061218e-09
0.0001422427
1.4577526e-08
0.00034264777
3.3772956e-08
0.00075135833
7.0847698e-08
0.0015360433
1.3528778e-07
0.0029401061
2.3124118e-07
0.0052371434
3.3835847e-07
0.0085730123
3.8611692e-07
0.012686512
2.7452992e-07
0.016680892
8.6613385e-12
0.019207102
-2.7450392e-07
0.019207102
-3.8607492e-07
0.016680892
-3.3831384e-07
0.012686512
-2.3122103e-07
0.0085730123
-1.3531231e-07
0.0052371435
-7.0911645e-08
0.0029401062
-3.3848414e-08
0.0015360434
-1.4636255e-08
0.00075135835
-5.5383321e-09
0.00034264777
-1.6633881e-09
0.0001422427
-2.8376946e-10
4.9733088e-05
1.0127231e-05
2.6623214e-10
1.0126965e-05
1.5575657e-09
4.9731798e-05
5.1930639e-09
0.00014223906
1.3749316e-08
0.00034263921
3.1856401e-08
0.00075134023
6.683475e-08
0.0015360083
1.276503e-07
0.0029400453
2.1827162e-07
0.0052370528
3.1962513e-07
0.0085729109
3.6521597e-07
0.012686467
2.6012294e-07
0.016680997
7.8442471e-12
0.019207362
-2.6009778e-07
0.019207362
-3.6517356e-07
0.016680997
-3.1957989e-07
0.012686467
-2.1825239e-07
0.008572911
-1.276783e-07
0.0052370529
-6.6904029e-08
0.0029400454
-3.1937232e-08
0.0015360084
-1.3811888e-08
0.00075134024
-5.2272562e-09
0.00034263921
-1.5701314e-09
0.00014223906
-2.6776632e-10
4.9731796e-05
1.0126965e-05
2.5122446e-10
1.0126714e-05
1.4698159e-09
4.9730579e-05
4.9006042e-09
0.00014223563
1.2975268e-08
0.00034263113
3.0064092e-08
0.00075132314
6.3079592e-08
0.0015359753
1.2049946e-07
0.0029399879
2.0611993e-07
0.0052369672
3.0205295e-07
0.008572815
3.4561708e-07
0.012686423
2.4661249e-07
0.016681096
6.8640112e-12
0.019207609
-2.465886e-07
0.019207609
-3.4557482e-07
0.016681096
-3.020077e-07
0.012686423
-2.0610209e-07
0.008572815
-1.2053105e-07
0.0052369673
-6.3153997e-08
0.002939988
-3.0149906e-08
0.0015359754
-1.3041325e-08
0.00075132316
-4.9365621e-09
0.00034263114
-1.4829789e-09
0.00014223563
-2.5280293e-10
4.9730578e-05
1.0126714e-05
2.3713806e-10
1.0126477e-05
1.3874072e-09
4.9729429e-05
4.6259443e-09
0.0001422324
1.2248622e-08
0.00034262351
2.8382403e-08
0.000751307
5.9556952e-08
0.0015359442
1.1378768e-07
0.0029399337
1.946958e-07
0.0052368863
2.8547903e-07
0.0085727242
3.2697762e-07
0.012686382
2.3363476e-07
0.016681189
5.7127386e-12
0.019207842
-2.3361267e-07
0.019207842
-3.2693618e-07
0.016681189
-2.8543445e-07
0.012686382
-1.9467983e-07
0.0085727243
-1.1382295e-07
0.0052368864
-5.9636132e-08
0.0029399338
-2.8472646e-08
0.0015359442
-1.2317679e-08
0.00075130702
-4.6633809e-09
0.00034262351
-1.4010538e-09
0.00014223239
-2.3874211e-10
4.9729427e-05
1.0126477e-05
2.2401405e-10
1.0126253e-05
1.3106862e-09
4.9728342e-05
4.3701746e-09
0.00014222934
1.1571216e-08
0.00034261631
2.6812332e-08
0.00075129176
5.6263707e-08
0.0015359147
1.0750883e-07
0.0029398824
1.840083e-07
0.0052368098
2.6997733e-07
0.0085726382
3.0959868e-07
0.012686342
2.215681e-07
0.016681277
4.3305665e-12
0.019208064
-2.2154832e-07
0.019208064
-3.0955873e-07
0.016681277
-2.6993418e-07
0.012686342
-1.839947e-07
0.0085726383
-1.0754777e-07
0.0052368099
-5.6347145e-08
0.0029398825
-2.6906271e-08
0.0015359148
-1.1642658e-08
0.00075129178
-4.4087365e-09
0.00034261631
-1.3246805e-09
0.00014222933
-2.2562351e-10
4.9728341e-05
1.0126253e-05
2.1163345e-10
1.0126041e-05
1.2382048e-09
4.9727316e-05
4.1285785e-09
0.00014222645
1.0932264e-08
0.00034260951
2.5334197e-08
0.00075127736
5.3167239e-08
0.0015358869
1.0160214e-07
0.002939834
1.7392744e-07
0.0052367374
2.5528572e-07
0.0085725569
2.9295416e-07
0.012686304
2.0987463e-07
0.01668136
2.7001152e-12
0.019208274
-2.0985775e-07
0.019208274
-2.9291647e-07
0.01668136
-2.5524478e-07
0.012686304
-1.7391672e-07
0.0085725569
-1.0164462e-07
0.0052367375
-5.3254223e-08
0.0029398341
-2.5430887e-08
0.0015358869
-1.1005314e-08
0.00075127738
-4.1678211e-09
0.00034260951
-1.2523748e-09
0.00014222644
-2.1322171e-10
4.9727314e-05
1.0126041e-05
2.0027813e-10
1.0125841e-05
1.171867e-09
4.9726344e-05
3.9072642e-09
0.00014222371
1.0344976e-08
0.00034260307
2.3969377e-08
0.00075126374
5.0296783e-08
0.0015358605
9.6117869e-08
0.0029397882
1.645765e-07
0.005236669
2.4168855e-07
0.0085724798
2.7764682e-07
0.012686268
1.9918369e-07
0.016681439
9.3105417e-13
0.019208473
-1.9917007e-07
0.019208473
-2.7761206e-07
0.016681439
-2.4165061e-07
0.012686268
-1.645691e-07
0.0085724798
-9.6163678e-08
0.0052366691
-5.0386486e-08
0.0029397883
-2.4067768e-08
0.0015358606
-1.0418788e-08
0.00075126376
-3.946716e-09
0.00034260307
-1.1860373e-09
0.00014222371
-2.0182327e-10
4.9726343e-05
1.0125841e-05
1.8934625e-10
1.0125652e-05
1.1077516e-09
4.9725426e-05
3.6936464e-09
0.00014222112
9.7812783e-09
0.00034259698
2.2669186e-08
0.00075125085
4.7579006e-08
0.0015358356
9.0932661e-08
0.0029397448
1.5570243e-07
0.0052366042
2.2869818e-07
0.0085724068
2.6284391e-07
0.012686234
1.8870171e-07
0.016681513
-1.0144771e-12
0.019208662
-1.8869178e-07
0.019208662
-2.6281281e-07
0.016681513
-2.286641e-07
0.012686234
-1.5569882e-07
0.0085724068
-9.0981492e-08
0.0052366043
-4.7670388e-08
0.0029397449
-2.2767967e-08
0.0015358357
-9.8547814e-09
0.00075125087
-3.732692e-09
0.00034259699
-1.1216809e-09
0.00014222112
-1.9080946e-10
4.9725424e-05
1.0125651e-05
1.7997439e-10
1.0125472e-05
1.0531127e-09
4.9724553e-05
3.5107866e-09
0.00014221867
9.2923082e-09
0.0003425912
2.1521557e-08
0.00075123862
4.5143262e-08
0.001535812
8.6252626e-08
0.0029397037
1.4770337e-07
0.0052365428
2.1704705e-07
0.0085723374
2.4969711e-07
0.012686202
1.7947939e-07
0.016681583
-2.9560339e-12
0.019208841
-1.7947324e-07
0.019208841
-2.4967002e-07
0.016681583
-2.1701738e-07
0.012686202
-1.4770389e-07
0.0085723375
-8.6304186e-08
0.0052365429
-4.523537e-08
0.0029397038
-2.1619484e-08
0.0015358121
-9.3644519e-09
0.00075123864
-3.5488044e-09
0.0003425912
-1.0665531e-09
0.00014221866
-1.813169e-10
4.9724551e-05
1.0125471e-05
1.68873e-10
1.0125303e-05
9.8820907e-10
4.9723734e-05
3.2974331e-09
0.00014221636
8.7428928e-09
0.00034258576
2.029464e-08
0.00075122707
4.2663263e-08
0.0015357896
8.1641339e-08
0.0029396647
1.3992214e-07
0.0052364845
2.0571281e-07
0.0085722716
2.3675082e-07
0.012686171
1.7030077e-07
0.01668165
-4.8978362e-12
0.019209011
-1.7029869e-07
0.019209011
-2.367282e-07
0.01668165
-2.0568808e-07
0.012686171
-1.399271e-07
0.0085722717
-8.1695169e-08
0.0052364846
-4.275469e-08
0.0029396648
-2.0389882e-08
0.0015357897
-8.8121503e-09
0.00075122709
-3.3335372e-09
0.00034258576
-1.0008135e-09
0.00014221636
-1.7004085e-10
4.9723732e-05
1.0125302e-05
1.640827e-10
1.0125139e-05
9.6032556e-10
4.9722938e-05
3.1983366e-09