/*--------------------------------*- C++ -*----------------------------------*\
| =========                 |                                                 |
| \\      /  F ield         | OpenFOAM: The Open Source CFD Toolbox           |
|  \\    /   O peration     | Version:  2406                                  |
|   \\  /    A nd           | Website:  www.openfoam.com                      |
|    \\/     M anipulation  |                                                 |
\*---------------------------------------------------------------------------*/
FoamFile
{
    version     2.0;
    format      ascii;
    arch        "LSB;label=32;scalar=64";
    class       volVectorField;
    location    "32";
    object      U;
}
// * * * * * * * * * * * * * * * * * * * * * * * * * * * * * * * * * * * * * //

dimensions      [0 1 -1 0 0 0 0];

internalField   nonuniform List<vector> 
1176
(
(0.019493789 7.0786396e-07 0)
(0.066677318 8.1696574e-06 0)
(0.13357994 3.9503164e-05 0)
(0.22724701 0.00010873575 0)
(0.35591522 0.00021176025 0)
(0.52772023 0.00030396283 0)
(0.74780387 0.00031818015 0)
(1.0136216 0.00024904582 0)
(1.3093323 0.00016666989 0)
(1.6017081 0.00011264674 0)
(1.8421723 7.021407e-05 0)
(1.9793239 2.3940824e-05 0)
(1.9793239 -2.3940667e-05 0)
(1.8421723 -7.0214494e-05 0)
(1.6017081 -0.00011264885 0)
(1.3093323 -0.00016667562 0)
(1.0136216 -0.0002490573 0)
(0.74780387 -0.00031819732 0)
(0.52772023 -0.00030398169 0)
(0.35591521 -0.00021177468 0)
(0.22724699 -0.00010874463 0)
(0.13357993 -3.9505494e-05 0)
(0.066677309 -8.1726824e-06 0)
(0.019493786 -7.0742824e-07 0)
(0.020187017 -3.7419177e-06 0)
(0.068813532 -2.463864e-05 0)
(0.13732107 -9.6548556e-05 0)
(0.23247391 -0.00024839462 0)
(0.36204617 -0.00047268785 0)
(0.53373557 -0.00067421191 0)
(0.75267407 -0.00069486956 0)
(1.0170176 -0.00049687386 0)
(1.3116385 -0.00023345941 0)
(1.6034438 -4.9824624e-05 0)
(1.8436588 1.9764647e-05 0)
(1.9807026 1.3427986e-05 0)
(1.9807026 -1.3426724e-05 0)
(1.8436588 -1.9762193e-05 0)
(1.6034438 4.982972e-05 0)
(1.3116385 0.00023346853 0)
(1.0170177 0.00049688792 0)
(0.75267409 0.00069488763 0)
(0.53373558 0.00067422968 0)
(0.36204618 0.00047270032 0)
(0.2324739 0.00024840135 0)
(0.13732106 9.6550799e-05 0)
(0.068813527 2.4639695e-05 0)
(0.020187015 3.7419052e-06 0)
(0.020018442 2.0918373e-06 0)
(0.068327405 1.2720772e-05 0)
(0.13655405 4.6877255e-05 0)
(0.23159544 0.00011389737 0)
(0.36138709 0.00019769265 0)
(0.53366969 0.00023903229 0)
(0.75344344 0.000205598 0)
(1.0184881 0.0001136109 0)
(1.3134639 7.4313203e-05 0)
(1.6053464 7.9532345e-05 0)
(1.8455118 7.0515799e-05 0)
(1.9825245 2.7824612e-05 0)
(1.9825245 -2.7827226e-05 0)
(1.8455118 -7.0519393e-05 0)
(1.6053464 -7.9537506e-05 0)
(1.3134639 -7.4319785e-05 0)
(1.0184881 -0.00011361777 0)
(0.75344342 -0.00020560309 0)
(0.53366967 -0.00023903563 0)
(0.36138708 -0.0001976936 0)
(0.23159544 -0.00011389727 0)
(0.13655405 -4.6877107e-05 0)
(0.068327407 -1.2720507e-05 0)
(0.020018443 -2.0918412e-06 0)
(0.019966547 7.0076493e-07 0)
(0.068159232 4.6870465e-06 0)
(0.13624021 1.9355439e-05 0)
(0.2311194 5.6456159e-05 0)
(0.36078093 0.00013444563 0)
(0.53306293 0.0002582931 0)
(0.75295637 0.00035344726 0)
(1.0181104 0.00036911978 0)
(1.313184 0.00030758843 0)
(1.6051633 0.00022777209 0)
(1.8453995 0.00014555925 0)
(1.9824491 4.9997352e-05 0)
(1.9824491 -4.9996632e-05 0)
(1.8453995 -0.00014555819 0)
(1.6051633 -0.00022777052 0)
(1.313184 -0.00030758604 0)
(1.0181104 -0.00036911763 0)
(0.75295637 -0.00035344661 0)
(0.53306293 -0.00025829299 0)
(0.36078093 -0.0001344462 0)
(0.2311194 -5.6456657e-05 0)
(0.13624021 -1.9355528e-05 0)
(0.068159232 -4.68732e-06 0)
(0.019966547 -7.0070603e-07 0)
(0.019942203 2.9076917e-07 0)
(0.068078703 1.9872014e-06 0)
(0.13608628 8.2361153e-06 0)
(0.23087699 2.3699314e-05 0)
(0.36044744 5.6881598e-05 0)
(0.53266448 0.00012306879 0)
(0.75256878 0.00022681803 0)
(1.017808 0.00032272194 0)
(1.3129044 0.00034572427 0)
(1.604912 0.00030729941 0)
(1.8452029 0.00021095281 0)
(1.9822898 7.4614331e-05 0)
(1.9822898 -7.4614638e-05 0)
(1.8452029 -0.00021095322 0)
(1.604912 -0.00030729995 0)
(1.3129044 -0.00034572485 0)
(1.017808 -0.00032272183 0)
(0.75256877 -0.00022681731 0)
(0.53266448 -0.00012306782 0)
(0.36044744 -5.6880891e-05 0)
(0.23087699 -2.369894e-05 0)
(0.13608628 -8.2359429e-06 0)
(0.068078703 -1.9872082e-06 0)
(0.019942203 -2.9074124e-07 0)
(0.019933132 1.7181547e-07 0)
(0.068047755 1.1940739e-06 0)
(0.13602489 5.0651974e-06 0)
(0.23077535 1.4968851e-05 0)
(0.36029899 3.6219524e-05 0)
(0.5324792 7.6944192e-05 0)
(0.75239427 0.00014713761 0)
(1.0177222 0.00023749009 0)
(1.3129292 0.00028525571 0)
(1.6049746 0.00027441462 0)
(1.8452865 0.00019644595 0)
(1.9823834 7.1176789e-05 0)
(1.9823834 -7.1177212e-05 0)
(1.8452865 -0.00019644652 0)
(1.6049746 -0.0002744153 0)
(1.3129292 -0.00028525636 0)
(1.0177222 -0.0002374905 0)
(0.75239427 -0.00014713783 0)
(0.5324792 -7.6944203e-05 0)
(0.36029899 -3.6219446e-05 0)
(0.23077535 -1.496878e-05 0)
(0.13602489 -5.0651496e-06 0)
(0.068047756 -1.1940795e-06 0)
(0.019933132 -1.7180371e-07 0)
(0.0199234 1.558758e-07 0)
(0.068015507 1.0700743e-06 0)
(0.13596286 4.4934622e-06 0)
(0.23067607 1.3195454e-05 0)
(0.36015773 3.1857107e-05 0)
(0.53230178 6.6958191e-05 0)
(0.75221429 0.0001241188 0)
(1.0176105 0.00019917039 0)
(1.3129358 0.0002549083 0)
(1.6050904 0.00024595156 0)
(1.8454579 0.00018127885 0)
(1.9825798 6.6548451e-05 0)
(1.9825798 -6.6548627e-05 0)
(1.8454579 -0.00018127905 0)
(1.6050904 -0.00024595161 0)
(1.3129358 -0.00025490814 0)
(1.0176105 -0.00019917016 0)
(0.75221429 -0.00012411863 0)
(0.53230178 -6.6958132e-05 0)
(0.36015773 -3.1857113e-05 0)
(0.23067607 -1.3195485e-05 0)
(0.13596286 -4.4934812e-06 0)
(0.068015507 -1.0700902e-06 0)
(0.0199234 -1.5587596e-07 0)
(0.019915697 1.2758618e-07 0)
(0.067989792 8.7801603e-07 0)
(0.13591293 3.6959976e-06 0)
(0.23059503 1.0901593e-05 0)
(0.36003987 2.6613324e-05 0)
(0.53214753 5.7237071e-05 0)
(0.75204133 0.00010911041 0)
(1.0174723 0.00017936619 0)
(1.3128926 0.0002380247 0)
(1.6051414 0.00023746749 0)
(1.8455877 0.00017750678 0)
(1.9827514 6.553945e-05 0)
(1.9827514 -6.5539407e-05 0)
(1.8455877 -0.00017750672 0)
(1.6051414 -0.00023746729 0)
(1.3128926 -0.0002380243 0)
(1.0174723 -0.00017936582 0)
(0.75204133 -0.00010911019 0)
(0.53214753 -5.7237012e-05 0)
(0.36003987 -2.6613351e-05 0)
(0.23059503 -1.0901642e-05 0)
(0.13591293 -3.6960463e-06 0)
(0.067989792 -8.780089e-07 0)
(0.019915697 -1.2759884e-07 0)
(0.019909217 1.0465806e-07 0)
(0.067968141 7.2313626e-07 0)
(0.13587084 3.0521012e-06 0)
(0.23052654 9.0118218e-06 0)
(0.35993984 2.1999857e-05 0)
(0.53201542 4.7473393e-05 0)
(0.75188901 9.2013997e-05 0)
(1.0173341 0.00015618182 0)
(1.3128278 0.00021699672 0)
(1.6051595 0.00022709628 0)
(1.8456699 0.00017232637 0)
(1.982868 6.4147796e-05 0)
(1.982868 -6.4147616e-05 0)
(1.8456699 -0.0001723261 0)
(1.6051595 -0.00022709584 0)
(1.3128278 -0.00021699621 0)
(1.0173341 -0.00015618149 0)
(0.75188901 -9.2013904e-05 0)
(0.53201542 -4.7473477e-05 0)
(0.35993984 -2.1999989e-05 0)
(0.23052654 -9.0119253e-06 0)
(0.13587084 -3.0521833e-06 0)
(0.067968141 -7.2311869e-07 0)
(0.019909217 -1.0467905e-07 0)
(0.019903971 8.6126709e-08 0)
(0.067950553 5.9696315e-07 0)
(0.13583649 2.5273765e-06 0)
(0.2304703 7.4916099e-06 0)
(0.35985692 1.8376288e-05 0)
(0.53190436 3.9835667e-05 0)
(0.75175836 7.7712129e-05 0)
(1.0172122 0.00013432433 0)
(1.3127613 0.00019323371 0)
(1.6051772 0.00021058353 0)
(1.8457533 0.0001627298 0)
(1.9829863 6.1084357e-05 0)
(1.9829863 -6.1084131e-05 0)
(1.8457533 -0.00016272944 0)
(1.6051772 -0.000210583 0)
(1.3127613 -0.00019323322 0)
(1.0172122 -0.00013432409 0)
(0.75175837 -7.7712138e-05 0)
(0.53190436 -3.9835849e-05 0)
(0.35985692 -1.8376491e-05 0)
(0.2304703 -7.4917507e-06 0)
(0.13583649 -2.5274803e-06 0)
(0.067950552 -5.9694108e-07 0)
(0.019903971 -8.6152297e-08 0)
(0.019899543 7.3356624e-08 0)
(0.067935688 5.0896283e-07 0)
(0.13580742 2.1568876e-06 0)
(0.23042259 6.4027635e-06 0)
(0.35978626 1.574759e-05 0)
(0.5318089 3.427782e-05 0)
(0.75164409 6.7204602e-05 0)
(1.0171021 0.00011722995 0)
(1.3126976 0.00017262468 0)
(1.6051928 0.0001930891 0)
(1.8458371 0.00015219873 0)
(1.9831061 5.7544858e-05 0)
(1.9831061 -5.7544698e-05 0)
(1.8458371 -0.00015219842 0)
(1.6051928 -0.00019308865 0)
(1.3126976 -0.00017262432 0)
(1.0171021 -0.00011722982 0)
(0.75164409 -6.72047e-05 0)
(0.5318089 -3.4278064e-05 0)
(0.35978626 -1.574783e-05 0)
(0.23042259 -6.4029219e-06 0)
(0.13580742 -2.1570023e-06 0)
(0.067935688 -5.0893733e-07 0)
(0.019899543 -7.3384469e-08 0)
(0.019895721 6.3727047e-08 0)
(0.06792285 4.4252212e-07 0)
(0.13578228 1.8767381e-06 0)
(0.23038125 5.5765307e-06 0)
(0.35972483 1.3738688e-05 0)
(0.53172535 2.9998015e-05 0)
(0.75154264 5.9111574e-05 0)
(1.0170011 0.00010388821 0)
(1.3126345 0.00015540284 0)
(1.6052015 0.00017849531 0)
(1.8459125 0.00014271558 0)
(1.9832185 5.4330625e-05 0)
(1.9832185 -5.4330564e-05 0)
(1.8459125 -0.00014271538 0)
(1.6052015 -0.00017849502 0)
(1.3126345 -0.00015540265 0)
(1.0170011 -0.0001038882 0)
(0.75154264 -5.9111741e-05 0)
(0.53172535 -2.9998303e-05 0)
(0.35972483 -1.3738954e-05 0)
(0.23038125 -5.5767006e-06 0)
(0.13578228 -1.8768598e-06 0)
(0.06792285 -4.4249514e-07 0)
(0.019895721 -6.375598e-08 0)
(0.019892371 5.6090071e-08 0)
(0.067911586 3.8977866e-07 0)
(0.13576021 1.654126e-06 0)
(0.2303449 4.9187713e-06 0)
(0.35967069 1.2132024e-05 0)
(0.53165136 2.6542457e-05 0)
(0.7514519 5.24988e-05 0)
(1.0169086 9.287572e-05 0)
(1.3125728 0.00014061492 0)
(1.605205 0.00016529621 0)
(1.8459798 0.00013398929 0)
(1.9833221 5.1387424e-05 0)
(1.9833221 -5.138744e-05 0)
(1.8459798 -0.00013398918 0)
(1.605205 -0.00016529605 0)
(1.3125728 -0.00014061484 0)
(1.0169086 -9.2875767e-05 0)
(0.7514519 -5.2499002e-05 0)
(0.53165136 -2.6542767e-05 0)
(0.35967069 -1.2132305e-05 0)
(0.2303449 -4.9189506e-06 0)
(0.13576021 -1.6542549e-06 0)
(0.067911586 -3.8975082e-07 0)
(0.019892371 -5.6120177e-08 0)
(0.019889403 4.9849124e-08 0)
(0.067901607 3.4661816e-07 0)
(0.13574064 1.4717663e-06 0)
(0.23031264 4.3793984e-06 0)
(0.35962253 1.0812327e-05 0)
(0.53158531 2.3691435e-05 0)
(0.75137029 4.6984173e-05 0)
(1.016824 8.3546338e-05 0)
(1.3125139 0.0001277375 0)
(1.6052051 0.0001529335 0)
(1.8460415 0.00012582038 0)
(1.9834196 4.861647e-05 0)
(1.9834196 -4.8616501e-05 0)
(1.8460415 -0.00012582031 0)
(1.6052051 -0.00015293342 0)
(1.3125139 -0.00012773746 0)
(1.016824 -8.3546392e-05 0)
(0.75137029 -4.6984379e-05 0)
(0.53158531 -2.3691757e-05 0)
(0.35962253 -1.0812625e-05 0)
(0.23031264 -4.3795909e-06 0)
(0.13574064 -1.4719066e-06 0)
(0.067901607 -3.4658873e-07 0)
(0.019889403 -4.9881558e-08 0)
(0.019886752 4.4699184e-08 0)
(0.067892685 3.1094443e-07 0)
(0.13572313 1.3208211e-06 0)
(0.23028375 3.9322165e-06 0)
(0.35957935 9.715902e-06 0)
(0.53152592 2.1315629e-05 0)
(0.75129648 4.2360313e-05 0)
(1.0167465 7.5619958e-05 0)
(1.3124581 0.00011654241 0)
(1.6052027 0.00014169878 0)
(1.8460982 0.00011827104 0)
(1.9835117 4.6031566e-05 0)
(1.9835117 -4.6031533e-05 0)
(1.8460982 -0.00011827094 0)
(1.6052027 -0.00014169867 0)
(1.3124581 -0.00011654232 0)
(1.0167465 -7.5619968e-05 0)
(0.75129648 -4.2360504e-05 0)
(0.53152592 -2.1315968e-05 0)
(0.35957935 -9.7162274e-06 0)
(0.23028375 -3.9324315e-06 0)
(0.13572313 -1.3209802e-06 0)
(0.067892685 -3.1091194e-07 0)
(0.019886752 -4.4735844e-08 0)
(0.019884362 4.0386837e-08 0)
(0.067884644 2.8104003e-07 0)
(0.13570735 1.1941598e-06 0)
(0.23025769 3.5564982e-06 0)
(0.35954035 8.7929196e-06 0)
(0.53147216 1.9310079e-05 0)
(0.75122934 3.8440239e-05 0)
(1.0166753 6.8839045e-05 0)
(1.3124053 0.00010678365 0)
(1.6051983 0.0001315524 0)
(1.8461504 0.00011132809 0)
(1.9835985 4.3631214e-05 0)
(1.9835985 -4.3631041e-05 0)
(1.8461504 -0.00011132788 0)
(1.6051983 -0.00013155217 0)
(1.3124053 -0.00010678345 0)
(1.0166753 -6.8838975e-05 0)
(0.75122934 -3.8440409e-05 0)
(0.53147216 -1.931045e-05 0)
(0.35954035 -8.7932907e-06 0)
(0.23025769 -3.5567485e-06 0)
(0.13570735 -1.1943473e-06 0)
(0.067884644 -2.8100247e-07 0)
(0.019884362 -4.0430095e-08 0)
(0.019882195 3.6711883e-08 0)
(0.067877349 2.5553919e-07 0)
(0.13569303 1.0860828e-06 0)
(0.23023403 3.235641e-06 0)
(0.3595049 8.0036092e-06 0)
(0.5314232 1.7590983e-05 0)
(0.75116797 3.5067314e-05 0)
(1.0166096 6.2964271e-05 0)
(1.3123553 9.8203368e-05 0)
(1.6051923 0.00012233379 0)
(1.8461982 0.0001049133 0)
(1.9836803 4.139061e-05 0)
(1.9836803 -4.1390243e-05 0)
(1.8461982 -0.00010491291 0)
(1.6051923 -0.00012233338 0)
(1.3123553 -9.8203001e-05 0)
(1.0166096 -6.29641e-05 0)
(0.75116797 -3.5067471e-05 0)
(0.5314232 -1.7591407e-05 0)
(0.3595049 -8.0040493e-06 0)
(0.23023403 -3.235942e-06 0)
(0.13569303 -1.0863098e-06 0)
(0.067877349 -2.5549425e-07 0)
(0.019882195 -3.6764372e-08 0)
(0.019880219 3.3539185e-08 0)
(0.067870695 2.3351136e-07 0)
(0.13567996 9.9267728e-07 0)
(0.23021243 2.9581642e-06 0)
(0.35947252 7.3203209e-06 0)
(0.53137842 1.6100189e-05 0)
(0.75111164 3.2133097e-05 0)
(1.0165488 5.7823535e-05 0)
(1.3123082 9.0602664e-05 0)
(1.6051852 0.00011395364 0)
(1.8462423 9.8956195e-05 0)
(1.9837576 3.9289201e-05 0)
(1.9837576 -3.9288607e-05 0)
(1.8462423 -9.8955581e-05 0)
(1.6051852 -0.00011395301 0)
(1.3123082 -9.0602105e-05 0)
(1.0165488 -5.7823259e-05 0)
(0.75111164 -3.2133257e-05 0)
(0.53137842 -1.6100696e-05 0)
(0.35947252 -7.320856e-06 0)
(0.23021243 -2.9585326e-06 0)
(0.13567996 -9.9295538e-07 0)
(0.067870695 -2.3345654e-07 0)
(0.019880219 -3.3603656e-08 0)
(0.019878409 3.0774652e-08 0)
(0.0678646 2.1430736e-07 0)
(0.13566798 9.1120641e-07 0)
(0.23019263 2.7159998e-06 0)
(0.35944282 6.7234546e-06 0)
(0.53133728 1.4796068e-05 0)
(0.75105977 2.9559784e-05 0)
(1.0164925 5.3292695e-05 0)
(1.3122638 8.3831803e-05 0)
(1.6051772 0.00010632433 0)
(1.846283 9.3403538e-05 0)
(1.9838307 3.7312769e-05 0)
(1.9838307 -3.7311941e-05 0)
(1.846283 -9.3402685e-05 0)
(1.6051772 -0.00010632345 0)
(1.3122638 -8.3831037e-05 0)
(1.0164925 -5.3292315e-05 0)
(0.75105977 -2.9559966e-05 0)
(0.53133728 -1.4796688e-05 0)
(0.35944282 -6.724112e-06 0)
(0.23019263 -2.7164526e-06 0)
(0.13566798 -9.1154755e-07 0)
(0.0678646 -2.1424006e-07 0)
(0.019878409 -3.0853902e-08 0)
(0.019876745 2.8344504e-08 0)
(0.067858993 1.9741904e-07 0)
(0.13565697 8.3953136e-07 0)
(0.23017441 2.5028473e-06 0)
(0.35941547 6.1976869e-06 0)
(0.53129936 1.3645864e-05 0)
(0.75101183 2.7285423e-05 0)
(1.0164401 4.9271905e-05 0)
(1.3122219 7.7767966e-05 0)
(1.6051688 9.9356457e-05 0)
(1.8463207 8.8213931e-05 0)
(1.9838998 3.5449932e-05 0)
(1.9838998 -3.5448882e-05 0)
(1.8463207 -8.8212838e-05 0)
(1.6051688 -9.9355329e-05 0)
(1.3122219 -7.7766994e-05 0)
(1.0164401 -4.9271432e-05 0)
(0.75101183 -2.728565e-05 0)
(0.53129936 -1.3646629e-05 0)
(0.35941547 -6.1984948e-06 0)
(0.23017441 -2.5034021e-06 0)
(0.13565697 -8.3994767e-07 0)
(0.067858993 -1.9733664e-07 0)
(0.019876745 -2.8441349e-08 0)
(0.019875208 2.6190719e-08 0)
(0.067853818 1.8244616e-07 0)
(0.1356468 7.7596553e-07 0)
(0.23015758 2.3137351e-06 0)
(0.3593902 5.7309177e-06 0)
(0.5312643 1.2623645e-05 0)
(0.75096742 2.5260481e-05 0)
(1.0163914 4.5679751e-05 0)
(1.3121824 7.230836e-05 0)
(1.6051599 9.2973761e-05 0)
(1.8463555 8.3350758e-05 0)
(1.9839652 3.3690029e-05 0)
(1.9839652 -3.3688781e-05 0)
(1.8463555 -8.3349437e-05 0)
(1.6051599 -9.2972386e-05 0)
(1.3121824 -7.2307187e-05 0)
(1.0163914 -4.5679197e-05 0)
(0.75096742 -2.5260779e-05 0)
(0.5312643 -1.2624589e-05 0)
(0.3593902 -5.7319044e-06 0)
(0.23015758 -2.3144093e-06 0)
(0.1356468 -7.7646926e-07 0)
(0.067853818 -1.8234603e-07 0)
(0.019875208 -2.6307998e-08 0)
(0.019873787 2.4268107e-08 0)
(0.067849027 1.6907636e-07 0)
(0.13563738 7.1919022e-07 0)
(0.230142 2.1447678e-06 0)
(0.35936679 5.3136434e-06 0)
(0.53123178 1.1708986e-05 0)
(0.75092616 2.3445732e-05 0)
(1.016346 4.2450777e-05 0)
(1.3121452 6.7367948e-05 0)
(1.6051509 8.7107961e-05 0)
(1.8463878 7.8785676e-05 0)
(1.9840271 3.2024476e-05 0)
(1.9840271 -3.2023062e-05 0)
(1.8463878 -7.8784147e-05 0)
(1.6051509 -8.710635e-05 0)
(1.3121452 -6.7366583e-05 0)
(1.016346 -4.2450157e-05 0)
(0.75092617 -2.3446126e-05 0)
(0.53123179 -1.1710142e-05 0)
(0.35936679 -5.3148378e-06 0)
(0.230142 -2.1455794e-06 0)
(0.13563738 -7.1979377e-07 0)
(0.067849027 -1.6895583e-07 0)
(0.019873786 -2.4408694e-08 0)
(0.019872467 2.2541092e-08 0)
(0.067844581 1.5706345e-07 0)
(0.13562864 6.6816504e-07 0)
(0.23012754 1.9928681e-06 0)
(0.35934505 4.9383411e-06 0)
(0.53120156 1.0885678e-05 0)
(0.75088776 2.1809953e-05 0)
(1.0163035 3.9532464e-05 0)
(1.31211 6.2876862e-05 0)
(1.6051418 8.170255e-05 0)
(1.8464178 7.449245e-05 0)
(1.9840857 3.0445131e-05 0)
(1.9840857 -3.0443582e-05 0)
(1.8464178 -7.4490735e-05 0)
(1.6051418 -8.1700715e-05 0)
(1.31211 -6.2875312e-05 0)
(1.0163035 -3.953179e-05 0)
(0.75088777 -2.1810468e-05 0)
(0.53120157 -1.088708e-05 0)
(0.35934505 -4.9397726e-06 0)
(0.23012754 -1.9938354e-06 0)
(0.13562864 -6.6888106e-07 0)
(0.067844581 -1.5691984e-07 0)
(0.019872467 -2.2707908e-08 0)
(0.01987124 2.0981203e-08 0)
(0.067840446 1.4621029e-07 0)
(0.13562051 6.2205633e-07 0)
(0.23011408 1.8555679e-06 0)
(0.35932481 4.5989665e-06 0)
(0.53117342 1.014066e-05 0)
(0.75085195 2.0327887e-05 0)
(1.0162638 3.6882115e-05 0)
(1.3120768 5.8777389e-05 0)
(1.6051327 7.6707255e-05 0)
(1.8464458 7.0451964e-05 0)
(1.9841412 2.894595e-05 0)
(1.9841412 -2.8944295e-05 0)
(1.8464458 -7.0450084e-05 0)
(1.6051327 -7.6705208e-05 0)
(1.3120768 -5.8775661e-05 0)
(1.0162638 -3.6881401e-05 0)
(0.75085195 -2.032855e-05 0)
(0.53117342 -1.0142342e-05 0)
(0.35932481 -4.6006653e-06 0)
(0.23011408 -1.8567096e-06 0)
(0.13562051 -6.2289769e-07 0)
(0.067840446 -1.4604089e-07 0)
(0.01987124 -2.1177217e-08 0)
(0.019870096 1.9565417e-08 0)
(0.067836592 1.3635738e-07 0)
(0.13561293 5.8018926e-07 0)
(0.23010153 1.7308684e-06 0)
(0.35930594 4.2906211e-06 0)
(0.53114716 9.4633319e-06 0)
(0.75081849 1.8978978e-05 0)
(1.0162266 3.4464741e-05 0)
(1.3120455 5.5021396e-05 0)
(1.6051237 7.2081289e-05 0)
(1.8464718 6.6643448e-05 0)
(1.9841938 2.7520503e-05 0)
(1.9841938 -2.7518766e-05 0)
(1.8464718 -6.664142e-05 0)
(1.6051237 -7.2079038e-05 0)
(1.3120455 -5.5019494e-05 0)
(1.0162266 -3.4463997e-05 0)
(0.7508185 -1.8979815e-05 0)
(0.53114716 -9.4653313e-06 0)
(0.35930594 -4.2926179e-06 0)
(0.23010153 -1.7322033e-06 0)
(0.13561293 -5.8116902e-07 0)
(0.067836592 -1.3615947e-07 0)
(0.019870096 -1.9793636e-08 0)
(0.019869029 1.8274894e-08 0)
(0.067832994 1.2737415e-07 0)
(0.13560586 5.4201123e-07 0)
(0.23008981 1.6171314e-06 0)
(0.35928831 4.0092853e-06 0)
(0.53112262 8.8449788e-06 0)
(0.75078719 1.7746275e-05 0)
(1.0161917 3.2251399e-05 0)
(1.3120159 5.1568686e-05 0)
(1.6051149 6.7786814e-05 0)
(1.846496 6.3053684e-05 0)
(1.9842436 2.6164761e-05 0)
(1.9842436 -2.6162963e-05 0)
(1.846496 -6.305152e-05 0)
(1.6051149 -6.7784362e-05 0)
(1.312016 -5.1566613e-05 0)
(1.0161917 -3.2250639e-05 0)
(0.7507872 -1.7747314e-05 0)
(0.53112263 -8.8473313e-06 0)
(0.35928832 -4.0116113e-06 0)
(0.23008981 -1.6186787e-06 0)
(0.13560586 -5.4314247e-07 0)
(0.067832994 -1.27145e-07 0)
(0.019869029 -1.8538333e-08 0)
(0.019868031 1.7094109e-08 0)
(0.067829631 1.1915296e-07 0)
(0.13559924 5.0706637e-07 0)
(0.23007886 1.5130054e-06 0)
(0.35927183 3.7516425e-06 0)
(0.53109966 8.278408e-06 0)
(0.75075787 1.661577e-05 0)
(1.0161589 3.0218003e-05 0)
(1.311988 4.838523e-05 0)
(1.6051063 6.3794219e-05 0)
(1.8465187 5.9664479e-05 0)
(1.9842909 2.4873365e-05 0)
(1.9842909 -2.4871526e-05 0)
(1.8465187 -5.9662187e-05 0)
(1.6051063 -6.3791568e-05 0)
(1.311988 -4.8382988e-05 0)
(1.0161589 -3.0217238e-05 0)
(0.75075788 -1.6617037e-05 0)
(0.53109966 -8.2811504e-06 0)
(0.35927183 -3.7543289e-06 0)
(0.23007886 -1.5147842e-06 0)
(0.13559924 -5.0836202e-07 0)
(0.067829631 -1.1888986e-07 0)
(0.019868031 -1.7395747e-08 0)
(0.019867097 1.6010089e-08 0)
(0.067826482 1.1160389e-07 0)
(0.13559305 4.7497386e-07 0)
(0.2300686 1.4173606e-06 0)
(0.35925639 3.5149152e-06 0)
(0.53107814 7.7575802e-06 0)
(0.75073038 1.5575671e-05 0)
(1.0161281 2.8344299e-05 0)
(1.3119617 4.5442378e-05 0)
(1.6050979 6.0073993e-05 0)
(1.8465398 5.6467391e-05 0)
(1.9843356 2.3644002e-05 0)
(1.9843356 -2.3642135e-05 0)
(1.8465398 -5.6464975e-05 0)
(1.6050979 -6.0071142e-05 0)
(1.3119617 -4.5439965e-05 0)
(1.0161281 -2.8343541e-05 0)
(0.75073039 -1.5577195e-05 0)
(0.53107815 -7.760749e-06 0)
(0.35925639 -3.5179926e-06 0)
(0.2300686 -1.4193894e-06 0)
(0.13559305 -4.764464e-07 0)
(0.067826482 -1.1130418e-07 0)
(0.019867096 -1.6352806e-08 0)
(0.019866221 1.5011929e-08 0)
(0.067823531 1.0465126e-07 0)
(0.13558724 4.454131e-07 0)
(0.23005898 1.329246e-06 0)
(0.35924191 3.2967692e-06 0)
(0.53105796 7.2774281e-06 0)
(0.75070457 1.4616074e-05 0)
(1.0160992 2.66131e-05 0)
(1.3119367 4.2715289e-05 0)
(1.6050897 5.6604466e-05 0)
(1.8465596 5.3444844e-05 0)
(1.984378 2.2471695e-05 0)
(1.984378 -2.246981e-05 0)
(1.8465596 -5.3442306e-05 0)
(1.6050897 -5.6601413e-05 0)
(1.3119367 -4.2712707e-05 0)
(1.0160992 -2.6612361e-05 0)
(0.75070458 -1.4617882e-05 0)
(0.53105796 -7.2810584e-06 0)
(0.35924191 -3.300267e-06 0)
(0.23005898 -1.3315424e-06 0)
(0.13558724 -4.470742e-07 0)
(0.06782353 -1.0431242e-07 0)
(0.019866221 -1.5398418e-08 0)
(0.0198654 1.4090374e-08 0)
(0.067820761 9.8230939e-08 0)
(0.1355818 4.1811238e-07 0)
(0.23004995 1.2478548e-06 0)
(0.35922832 3.0952164e-06 0)
(0.531039 6.8336155e-06 0)
(0.75068032 1.3728488e-05 0)
(1.0160719 2.5009776e-05 0)
(1.3119132 4.0183072e-05 0)
(1.6050818 5.3361708e-05 0)
(1.8465781 5.0593025e-05 0)
(1.9844182 2.1355691e-05 0)
(1.9844182 -2.1353797e-05 0)
(1.8465781 -5.0590368e-05 0)
(1.6050818 -5.3358452e-05 0)
(1.3119132 -4.0180323e-05 0)
(1.016072 -2.5009069e-05 0)
(0.75068033 -1.3730607e-05 0)
(0.53103901 -6.8377408e-06 0)
(0.35922833 -3.0991616e-06 0)
(0.23004996 -1.2504346e-06 0)
(0.1355818 -4.1997244e-07 0)
(0.067820761 -9.7850657e-08 0)
(0.019865399 -1.4523043e-08 0)
(0.019864628 1.3237485e-08 0)
(0.067818161 9.2287714e-08 0)
(0.13557668 3.9283768e-07 0)
(0.23004148 1.172493e-06 0)
(0.35921555 2.9085556e-06 0)
(0.5310212 6.422451e-06 0)
(0.75065752 1.2905675e-05 0)
(1.0160463 2.3521624e-05 0)
(1.3118909 3.7826911e-05 0)
(1.6050743 5.0329895e-05 0)
(1.8465955 4.7893193e-05 0)
(1.9844563 2.0290681e-05 0)
(1.9844563 -2.0288783e-05 0)
(1.8465955 -4.7890422e-05 0)
(1.6050743 -5.0326439e-05 0)
(1.3118909 -3.7823999e-05 0)
(1.0160463 -2.3520965e-05 0)
(0.75065753 -1.290813e-05 0)
(0.53102121 -6.4271014e-06 0)
(0.35921556 -2.912972e-06 0)
(0.23004148 -1.17537e-06 0)
(0.13557668 -3.9490532e-07 0)
(0.06781816 -9.1863981e-08 0)
(0.019864628 -1.371834e-08 0)
(0.019863903 1.2446493e-08 0)
(0.067815716 8.6774772e-08 0)
(0.13557187 3.6939069e-07 0)
(0.23003351 1.1025704e-06 0)
(0.35920355 2.7353263e-06 0)
(0.53100445 6.0407335e-06 0)
(0.75063606 1.2141347e-05 0)
(1.0160221 2.2137838e-05 0)
(1.3118699 3.5631422e-05 0)
(1.6050669 4.7488987e-05 0)
(1.8466118 4.5346864e-05 0)
(1.9844924 1.9277621e-05 0)
(1.9844924 -1.9275724e-05 0)
(1.8466118 -4.5343988e-05 0)
(1.6050669 -4.7485335e-05 0)
(1.3118699 -3.5628355e-05 0)
(1.0160221 -2.2137244e-05 0)
(0.75063607 -1.2144164e-05 0)
(0.53100446 -6.0459354e-06 0)
(0.35920356 -2.7402333e-06 0)
(0.23003351 -1.1057551e-06 0)
(0.13557187 -3.7167225e-07 0)
(0.067815715 -8.6306041e-08 0)
(0.019863903 -1.2976996e-08 0)
(0.019863221 1.1711397e-08 0)
(0.067813416 8.1650196e-08 0)
(0.13556735 3.4759351e-07 0)
(0.23002601 1.0375609e-06 0)
(0.35919225 2.5742443e-06 0)
(0.53098868 5.6856876e-06 0)
(0.75061585 1.1430049e-05 0)
(1.0159993 2.0848672e-05 0)
(1.31185 3.3581651e-05 0)
(1.6050599 4.4827457e-05 0)
(1.8466272 4.2932129e-05 0)
(1.9845266 1.831008e-05 0)
(1.9845266 -1.8308194e-05 0)
(1.8466271 -4.292916e-05 0)
(1.6050599 -4.482362e-05 0)
(1.31185 -3.3578444e-05 0)
(1.0159993 -2.0848163e-05 0)
(0.75061587 -1.1433251e-05 0)
(0.53098869 -5.6914615e-06 0)
(0.35919226 -2.5796556e-06 0)
(0.23002601 -1.0410597e-06 0)
(0.13556735 -3.5009232e-07 0)
(0.067813415 -8.1135445e-08 0)
(0.01986322 -1.2292332e-08 0)
(0.019862579 1.1027223e-08 0)
(0.067811252 7.6879817e-08 0)
(0.13556309 3.2730156e-07 0)
(0.23001895 9.7703135e-07 0)
(0.35918162 2.4242266e-06 0)
(0.53097384 5.3549131e-06 0)
(0.75059681 1.0767053e-05 0)
(1.0159778 1.9646113e-05 0)
(1.3118312 3.1666522e-05 0)
(1.6050532 4.2328326e-05 0)
(1.8466415 4.0657409e-05 0)
(1.984559 1.7391237e-05 0)
(1.984559 -1.7389377e-05 0)
(1.8466415 -4.0654366e-05 0)
(1.6050532 -4.2324322e-05 0)
(1.3118312 -3.1663196e-05 0)
(1.0159778 -1.964571e-05 0)
(0.75059683 -1.0770659e-05 0)
(0.53097385 -5.3612725e-06 0)
(0.35918163 -2.4301483e-06 0)
(0.23001895 -9.8084599e-07 0)
(0.13556309 -3.3001734e-07 0)
(0.067811251 -7.6318744e-08 0)
(0.019862578 -1.1658526e-08 0)
(0.019861974 1.0389188e-08 0)
(0.067809213 7.2429812e-08 0)
(0.13555907 3.0837094e-07 0)
(0.2300123 9.2055954e-07 0)
(0.3591716 2.2842572e-06 0)
(0.53095985 5.0462439e-06 0)
(0.75057886 1.014809e-05 0)
(1.0159575 1.852229e-05 0)
(1.3118134 2.9873223e-05 0)
(1.6050467 3.9982824e-05 0)
(1.8466551 3.8494989e-05 0)
(1.9845898 1.6512529e-05 0)
(1.9845898 -1.6510716e-05 0)
(1.8466551 -3.8491898e-05 0)
(1.6050467 -3.9978681e-05 0)
(1.3118134 -2.9869808e-05 0)
(1.0159576 -1.852202e-05 0)
(0.75057888 -1.0152119e-05 0)
(0.53095986 -5.0531936e-06 0)
(0.35917161 -2.2906873e-06 0)
(0.2300123 -9.2468588e-07 0)
(0.13555907 -3.112991e-07 0)
(0.067809211 -7.1823064e-08 0)
(0.019861974 -1.1069774e-08 0)
(0.019861404 9.7938252e-09 0)
(0.067807291 6.8277006e-08 0)
(0.13555529 2.9070403e-07 0)
(0.23000603 8.6784693e-07 0)
(0.35916216 2.1535625e-06 0)
(0.53094666 4.7579094e-06 0)
(0.75056194 9.569654e-06 0)
(1.0159384 1.7471515e-05 0)
(1.3117965 2.8194707e-05 0)
(1.6050405 3.7777268e-05 0)
(1.8466678 3.6462904e-05 0)
(1.9846188 1.5680377e-05 0)
(1.9846188 -1.5678636e-05 0)
(1.8466677 -3.6459805e-05 0)
(1.6050405 -3.7773025e-05 0)
(1.3117965 -2.819124e-05 0)
(1.0159384 -1.7471408e-05 0)
(0.75056195 -9.5741149e-06 0)
(0.53094667 -4.7654431e-06 0)
(0.35916217 -2.1604874e-06 0)
(0.23000603 -8.722735e-07 0)
(0.13555529 -2.9383484e-07 0)
(0.06780729 -6.7626096e-08 0)
(0.019861404 -1.0521453e-08 0)
(0.019860867 9.2369017e-09 0)
(0.067805479 6.4390558e-08 0)
(0.13555173 2.741689e-07 0)
(0.23000012 8.1851401e-07 0)
(0.35915325 2.0312639e-06 0)
(0.53093421 4.4881062e-06 0)
(0.75054596 9.0281999e-06 0)
(1.0159203 1.648685e-05 0)
(1.3117806 2.6618502e-05 0)
(1.6050346 3.5703422e-05 0)
(1.8466798 3.452389e-05 0)
(1.9846465 1.4882623e-05 0)
(1.9846465 -1.488099e-05 0)
(1.8466798 -3.452083e-05 0)
(1.6050346 -3.5699127e-05 0)
(1.3117806 -2.6615032e-05 0)
(1.0159203 -1.6486936e-05 0)
(0.75054598 -9.0330986e-06 0)
(0.53093423 -4.4962056e-06 0)
(0.35915326 -2.0386591e-06 0)
(0.23000012 -8.2322197e-07 0)
(0.13555173 -2.7748703e-07 0)
(0.067805478 -6.3698391e-08 0)
(0.019860866 -1.0007964e-08 0)
(0.01986036 8.7167097e-09 0)
(0.06780377 6.0760768e-08 0)
(0.13554837 2.5872583e-07 0)
(0.22999455 7.7242218e-07 0)
(0.35914485 1.9169289e-06 0)
(0.53092248 4.2357009e-06 0)
(0.75053089 8.5214246e-06 0)
(1.0159032 1.5565108e-05 0)
(1.3117655 2.5142519e-05 0)
(1.605029 3.3752933e-05 0)
(1.846691 3.2709976e-05 0)
(1.9846726 1.413068e-05 0)
(1.9846726 -1.4129194e-05 0)
(1.846691 -3.2707006e-05 0)
(1.605029 -3.3748642e-05 0)
(1.3117655 -2.5139099e-05 0)
(1.0159033 -1.556542e-05 0)
(0.75053091 -8.5267568e-06 0)
(0.5309225 -4.2443315e-06 0)
(0.35914486 -1.9247548e-06 0)
(0.22999455 -7.7738321e-07 0)
(0.13554836 -2.6220953e-07 0)
(0.067803769 -6.0031415e-08 0)
(0.019860359 -9.5261445e-09 0)
(0.019859881 8.2285403e-09 0)
(0.067802156 5.7351553e-08 0)
(0.13554519 2.4421931e-07 0)
(0.22998928 7.2914069e-07 0)
(0.35913691 1.8096341e-06 0)
(0.53091139 3.9989551e-06 0)
(0.75051664 8.0459774e-06 0)
(1.0158871 1.4699088e-05 0)
(1.3117512 2.3752019e-05 0)
(1.6050236 3.1914081e-05 0)
(1.8467017 3.0968898e-05 0)
(1.9846975 1.3406585e-05 0)
(1.9846975 -1.34053e-05 0)
(1.8467017 -3.0966073e-05 0)
(1.6050236 -3.1909861e-05 0)
(1.3117512 -2.3748709e-05 0)
(1.0158871 -1.4699654e-05 0)
(0.75051666 -8.051728e-06 0)
(0.53091141 -4.0080655e-06 0)
(0.35913692 -1.8178361e-06 0)
(0.22998928 -7.343168e-07 0)
(0.13554519 -2.4784008e-07 0)
(0.067802154 -5.6590404e-08 0)
(0.019859881 -9.0697399e-09 0)
(0.01985943 7.773946e-09 0)
(0.067800634 5.4178806e-08 0)
(0.13554219 2.3071954e-07 0)
(0.22998431 6.8882547e-07 0)
(0.35912943 1.7095363e-06 0)
(0.53090093 3.7777404e-06 0)
(0.7505032 7.6013583e-06 0)
(1.0158719 1.3889484e-05 0)
(1.3117377 2.245306e-05 0)
(1.6050185 3.0189313e-05 0)
(1.8467117 2.9353662e-05 0)
(1.9847208 1.2729677e-05 0)
(1.9847208 -1.2728636e-05 0)
(1.8467116 -2.9351037e-05 0)
(1.6050185 -3.0185234e-05 0)
(1.3117377 -2.2449925e-05 0)
(1.0158719 -1.3890333e-05 0)
(0.75050323 -7.6074997e-06 0)
(0.53090095 -3.7872614e-06 0)
(0.35912943 -1.7180441e-06 0)
(0.22998432 -6.9416922e-07 0)
(0.13554219 -2.3444216e-07 0)
(0.067800632 -5.3393074e-08 0)
(0.019859429 -8.6386418e-09 0)
(0.019859002 7.3450847e-09 0)
(0.067799193 5.1180046e-08 0)
(0.13553936 2.1795704e-07 0)
(0.22997961 6.5075934e-07 0)
(0.35912234 1.6152276e-06 0)
(0.53089102 3.5697189e-06 0)
(0.75049046 7.1833439e-06 0)
(1.0158574 1.3126562e-05 0)
(1.3117249 2.1223862e-05 0)
(1.6050136 2.8555901e-05 0)
(1.8467212 2.7789194e-05 0)
(1.9847433 1.2072896e-05 0)
(1.9847433 -1.2072147e-05 0)
(1.8467212 -2.7786834e-05 0)
(1.6050136 -2.855204e-05 0)
(1.3117249 -2.122097e-05 0)
(1.0158574 -1.3127715e-05 0)
(0.75049049 -7.1898326e-06 0)
(0.53089104 -3.5795588e-06 0)
(0.35912234 -1.6239513e-06 0)
(0.22997961 -6.5621087e-07 0)
(0.13553935 -2.2173866e-07 0)
(0.06779919 -5.0377435e-08 0)
(0.019859002 -8.2235451e-09 0)
(0.0198586 6.952274e-09 0)
(0.067797836 4.8439018e-08 0)
(0.13553669 2.0629037e-07 0)
(0.22997518 6.1586149e-07 0)
(0.35911566 1.528358e-06 0)
(0.5308817 3.3772003e-06 0)
(0.75047849 6.7955298e-06 0)
(1.0158438 1.2419264e-05 0)
(1.3117128 2.0086805e-05 0)
(1.605009 2.7039338e-05 0)
(1.84673 2.6360914e-05 0)
(1.9847642 1.1468472e-05 0)
(1.9847642 -1.1468041e-05 0)
(1.84673 -2.6358864e-05 0)
(1.6050089 -2.7035768e-05 0)
(1.3117128 -2.0084221e-05 0)
(1.0158438 -1.2420739e-05 0)
(0.75047851 -6.8023135e-06 0)