/*--------------------------------*- C++ -*----------------------------------*\
  =========                 |
  \\      /  F ield         | OpenFOAM: The Open Source CFD Toolbox
   \\    /   O peration     | Website:  https://openfoam.org
    \\  /    A nd           | Version:  10
     \\/     M anipulation  |
\*---------------------------------------------------------------------------*/
FoamFile
{
    format      ascii;
    class       volScalarField;
    location    "13";
    object      ddt0(T);
}
// * * * * * * * * * * * * * * * * * * * * * * * * * * * * * * * * * * * * * //

dimensions      [0 0 -1 1 0 0 0];

internalField   nonuniform List<scalar> 
10000
(
3297.54
1165.87
1268.71
1293.73
1295.31
1295.41
1295.52
1295.58
1295.61
1295.62
1295.63
1295.63
1295.64
1295.65
1295.65
1295.66
1295.66
1295.67
1295.67
1295.68
1295.68
1295.69
1295.69
1295.69
1295.7
1295.7
1295.71
1295.71
1295.71
1295.72
1295.72
1295.72
1295.72
1295.73
1295.73
1295.73
1295.73
1295.74
1295.74
1295.74
1295.74
1295.74
1295.74
1295.74
1295.75
1295.75
1295.75
1295.75
1295.75
1295.75
1295.75
1295.75
1295.75
1295.75
1295.75
1295.75
1295.75
1295.75
1295.75
1295.75
1295.75
1295.75
1295.75
1295.75
1295.74
1295.74
1295.74
1295.74
1295.74
1295.74
1295.74
1295.74
1295.74
1295.74
1295.74
1295.74
1295.74
1295.73
1295.73
1295.73
1295.73
1295.73
1295.73
1295.73
1295.73
1295.73
1295.73
1295.73
1295.73
1295.73
1295.73
1295.73
1295.73
1295.72
1295.72
1295.7
1295.3
1290.84
1261.61
1364.07
1387.18
-629.056
-360.261
-314.462
-313.705
-314.337
-314.342
-314.275
-314.235
-314.211
-314.192
-314.174
-314.157
-314.14
-314.124
-314.109
-314.093
-314.078
-314.064
-314.05
-314.036
-314.023
-314.01
-313.998
-313.986
-313.975
-313.964
-313.953
-313.943
-313.934
-313.925
-313.916
-313.908
-313.9
-313.893
-313.886
-313.88
-313.874
-313.868
-313.863
-313.858
-313.854
-313.85
-313.847
-313.844
-313.841
-313.839
-313.837
-313.835
-313.834
-313.833
-313.832
-313.832
-313.832
-313.832
-313.832
-313.833
-313.834
-313.835
-313.836
-313.837
-313.839
-313.84
-313.842
-313.844
-313.846
-313.848
-313.85
-313.853
-313.855
-313.857
-313.86
-313.862
-313.865
-313.867
-313.869
-313.872
-313.874
-313.876
-313.879
-313.881
-313.883
-313.885
-313.887
-313.889
-313.891
-313.893
-313.894
-313.896
-313.898
-313.899
-313.9
-313.901
-313.901
-313.891
-313.846
-313.903
-316.471
-335.108
-305.13
1459.32
-399.291
-89.7321
-40.3596
-40.1358
-40.9844
-41.0064
-40.9234
-40.8691
-40.8326
-40.8018
-40.7728
-40.7447
-40.7172
-40.6902
-40.6638
-40.6381
-40.613
-40.5887
-40.5651
-40.5422
-40.5201
-40.4988
-40.4782
-40.4583
-40.4393
-40.421
-40.4034
-40.3866
-40.3706
-40.3554
-40.3409
-40.3271
-40.3142
-40.3019
-40.2905
-40.2798
-40.2698
-40.2605
-40.252
-40.2442
-40.2371
-40.2306
-40.2248
-40.2197
-40.2152
-40.2113
-40.208
-40.2053
-40.2031
-40.2014
-40.2003
-40.1996
-40.1994
-40.1995
-40.2002
-40.2011
-40.2025
-40.2042
-40.2061
-40.2084
-40.211
-40.2137
-40.2167
-40.2199
-40.2233
-40.2268
-40.2304
-40.2341
-40.238
-40.2419
-40.2458
-40.2498
-40.2538
-40.2578
-40.2618
-40.2658
-40.2697
-40.2735
-40.2773
-40.281
-40.2846
-40.2881
-40.2914
-40.2946
-40.2977
-40.3007
-40.3034
-40.306
-40.3084
-40.3107
-40.313
-40.3153
-40.3173
-40.3096
-40.2421
-40.0264
-40.6161
-49.7182
-35.0234
1479.21
-359.461
-46.3836
2.42582
2.2617
1.33113
1.31313
1.41112
1.47894
1.52765
1.56995
1.61011
1.64924
1.68755
1.72507
1.76177
1.79759
1.83249
1.86642
1.89934
1.93125
1.96212
1.99195
2.02073
2.04846
2.07513
2.10074
2.12529
2.14877
2.17119
2.19254
2.21282
2.23204
2.25018
2.26727
2.2833
2.29829
2.31223
2.32516
2.33707
2.34799
2.35794
2.36693
2.37499
2.38215
2.38843
2.39386
2.39846
2.40227
2.40531
2.40763
2.40924
2.41019
2.4105
2.41021
2.40935
2.40796
2.40607
2.40371
2.40092
2.39774
2.39418
2.39029
2.3861
2.38164
2.37693
2.37202
2.36692
2.36168
2.35631
2.35084
2.3453
2.33971
2.3341
2.3285
2.32291
2.31738
2.3119
2.30652
2.30123
2.29607
2.29105
2.28618
2.28148
2.27696
2.27264
2.26853
2.26464
2.26097
2.25754
2.25432
2.25115
2.24736
2.24126
2.23329
2.25423
2.45183
2.88551
1.20498
6.18811
1480.44
-358.717
-46.1246
2.30552
2.02422
1.08397
1.07889
1.1908
1.27116
1.33159
1.38523
1.4365
1.48655
1.53561
1.58368
1.63072
1.67665
1.72142
1.76496
1.80724
1.84822
1.88789
1.92623
1.96322
1.99886
2.03315
2.06607
2.09763
2.12781
2.15662
2.18405
2.2101
2.23478
2.25808
2.28002
2.3006
2.31983
2.33772
2.3543
2.36958
2.38358
2.39633
2.40786
2.4182
2.42737
2.43541
2.44236
2.44824
2.45311
2.457
2.45995
2.462
2.4632
2.46358
2.46319
2.46207
2.46027
2.45782
2.45478
2.45118
2.44707
2.44249
2.43748
2.43208
2.42633
2.42028
2.41396
2.4074
2.40065
2.39374
2.38671
2.37958
2.3724
2.36519
2.35798
2.3508
2.34368
2.33664
2.32972
2.32293
2.31629
2.30983
2.30357
2.29753
2.29172
2.28617
2.28088
2.27588
2.27117
2.26676
2.26266
2.25877
2.25457
2.24794
2.23382
2.21294
2.24554
2.49196
2.67011
4.2134
1480.52
-359.244
-46.8525
1.49833
1.2075
0.279003
0.288012
0.412817
0.505125
0.577029
0.641881
0.704197
0.765112
0.824856
0.883423
0.940744
0.996735
1.05132
1.10442
1.156
1.20601
1.25443
1.30122
1.34639
1.3899
1.43176
1.47195
1.51047
1.54731
1.58246
1.61594
1.64772
1.67782
1.70625
1.733
1.75809
1.78153
1.80334
1.82355
1.84217
1.85923
1.87476
1.8888
1.90138
1.91254
1.92232
1.93077
1.93793
1.94384
1.94856
1.95213
1.9546
1.95603
1.95647
1.95597
1.95458
1.95235
1.94934
1.9456
1.94119
1.93615
1.93053
1.9244
1.91779
1.91076
1.90335
1.89561
1.8876
1.87934
1.87089
1.86229
1.85358
1.8448
1.83598
1.82717
1.8184
1.8097
1.8011
1.79264
1.78434
1.77623
1.76834
1.76069
1.75331
1.74622
1.73943
1.73297
1.72685
1.7211
1.71572
1.71074
1.70615
1.70179
1.69654
1.68635
1.66372
1.63603
1.67139
1.87027
2.39788
1480.61
-359.244
-46.8676
1.48725
1.20919
0.294725
0.316748
0.453642
0.557529
0.640737
0.716708
0.78998
0.861685
0.932037
1.00102
1.06854
1.13451
1.19883
1.26142
1.32222
1.38119
1.43828
1.49346
1.54673
1.59805
1.64741
1.69481
1.74024
1.78368
1.82513
1.86459
1.90206
1.93754
1.97104
2.00256
2.03212
2.05973
2.08542
2.10921
2.13113
2.15121
2.16949
2.18601
2.20081
2.21393
2.22543
2.23535
2.24375
2.25069
2.25621
2.26039
2.26327
2.26491
2.26539
2.26476
2.26308
2.26042
2.25684
2.2524
2.24716
2.24118
2.23453
2.22726
2.21943
2.21111
2.20234
2.19319
2.18371
2.17394
2.16395
2.15378
2.14349
2.13311
2.12269
2.11227
2.10191
2.09163
2.08147
2.07147
2.06167
2.05209
2.04277
2.03373
2.02501
2.01663
2.00862
2.00099
1.99377
1.98697
1.98062
1.97473
1.96934
1.96448
1.95991
1.95388
1.941
1.91479
1.88668
1.94002
2.1864
1480.67
-359.183
-46.7917
1.57783
1.31358
0.411962
0.446067
0.594576
0.709811
0.804188
0.891174
0.975307
1.05771
1.13858
1.21788
1.29551
1.37137
1.44533
1.51732
1.58726
1.65509
1.72078
1.78427
1.84556
1.90461
1.96142
2.01596
2.06822
2.1182
2.16588
2.21127
2.25436
2.29517
2.33368
2.36992
2.4039
2.43563
2.46515
2.49249
2.51767
2.54073
2.56172
2.58068
2.59765
2.61271
2.62589
2.63725
2.64687
2.6548
2.66111
2.66586
2.66912
2.67097
2.67147
2.6707
2.66872
2.6656
2.66143
2.65627
2.65019
2.64327
2.63557
2.62716
2.61811
2.60849
2.59836
2.58779
2.57683
2.56556
2.55403
2.54229
2.5304
2.51842
2.5064
2.49439
2.48242
2.47056
2.45885
2.44732
2.43601
2.42496
2.41422
2.4038
2.39375
2.38408
2.37484
2.36604
2.35772
2.34988
2.34256
2.33576
2.32952
2.3239
2.31898
2.31438
2.30777
2.29247
2.25829
2.23403
2.42508
1480.69
-359.146
-46.7408
1.64226
1.3905
0.500821
0.546506
0.706367
0.832789
0.938213
1.03611
1.13099
1.22399
1.31527
1.40478
1.49242
1.57806
1.66157
1.74285
1.82183
1.89844
1.97262
2.04434
2.11357
2.18027
2.24443
2.30603
2.36505
2.42149
2.47534
2.52659
2.57524
2.62129
2.66476
2.70566
2.744
2.7798
2.8131
2.84393
2.87232
2.89831
2.92196
2.94332
2.96244
2.97938
2.99421
3.00699
3.01779
3.02668
3.03374
3.03905
3.04267
3.04469
3.04519
3.04425
3.04195
3.03838
3.0336
3.02771
3.02078
3.0129
3.00414
2.99458
2.9843
2.97337
2.96187
2.94988
2.93745
2.92466
2.91158
2.89827
2.8848
2.87122
2.85759
2.84397
2.83042
2.81698
2.80371
2.79065
2.77784
2.76533
2.75316
2.74136
2.72998
2.71903
2.70857
2.69861
2.68918
2.68031
2.67202
2.66432
2.65724
2.65082
2.64517
2.64043
2.63607
2.62771
2.59741
2.52899
2.74028
1480.7
-359.123
-46.7051
1.69005
1.45002
0.571821
0.628822
0.799862
0.937337
1.05369
1.16237
1.2679
1.37136
1.47293
1.57255
1.67007
1.76537
1.85831
1.94878
2.03669
2.12197
2.20455
2.28439
2.36146
2.43571
2.50714
2.57571
2.64141
2.70423
2.76415
2.82118
2.87532
2.92656
2.97491
3.0204
3.06303
3.10284
3.13986
3.17412
3.20566
3.23454
3.2608
3.28451
3.30572
3.32451
3.34095
3.3551
3.36705
3.37687
3.38465
3.39048
3.39443
3.3966
3.39708
3.39596
3.39332
3.38925
3.38386
3.37722
3.36943
3.36057
3.35074
3.34002
3.3285
3.31627
3.30339
3.28996
3.27605
3.26175
3.24712
3.23224
3.21717
3.20199
3.18676
3.17155
3.1564
3.14139
3.12656
3.11197
3.09766
3.08369
3.0701
3.05692
3.04421
3.032
3.02031
3.00919
2.99867
2.98877
2.97951
2.97093
2.96303
2.95583
2.94943
2.94408
2.94013
2.93533
2.90872
2.80466
3.06007
1480.71
-359.104
-46.6745
1.73224
1.50357
0.636616
0.704759
0.886833
1.03523
1.16238
1.28172
1.39775
1.51156
1.6233
1.73288
1.84016
1.945
2.04724
2.14677
2.24349
2.33732
2.42819
2.51604
2.60083
2.68254
2.76113
2.83657
2.90885
2.97796
3.04388
3.1066
3.16614
3.22248
3.27564
3.32564
3.3725
3.41624
3.45691
3.49453
3.52917
3.56087
3.58969
3.6157
3.63896
3.65955
3.67754
3.69303
3.70608
3.7168
3.72527
3.73158
3.73584
3.73813
3.73856
3.73722
3.73422
3.72965
3.72361
3.71621
3.70754
3.6977
3.68679
3.6749
3.66213
3.64857
3.63431
3.61944
3.60405
3.58823
3.57204
3.55559
3.53893
3.52215
3.50531
3.4885
3.47176
3.45517
3.43879
3.42267
3.40687
3.39144
3.37643
3.36189
3.34785
3.33437
3.32147
3.3092
3.29758
3.28665
3.27644
3.26697
3.25826
3.25032
3.24321
3.23719
3.23303
3.23016
3.20661
3.07069
3.37363
1480.71
-359.086
-46.6455
1.77254
1.55503
0.699145
0.778277
0.971241
1.13042
1.26822
1.39808
1.52448
1.64849
1.77024
1.88964
2.00654
2.12078
2.23219
2.34065
2.44605
2.5483
2.64732
2.74307
2.83548
2.92452
3.01016
3.09237
3.17113
3.24642
3.31823
3.38656
3.4514
3.51275
3.57064
3.62507
3.67607
3.72367
3.76792
3.80884
3.84651
3.88097
3.91229
3.94053
3.96578
3.98812
4.00763
4.02439
4.03851
4.05008
4.0592
4.06597
4.07049
4.07287
4.07322
4.07165
4.06825
4.06316
4.05646
4.04827
4.03871
4.02787
4.01586
4.00279
3.98876
3.97387
3.95822
3.94191
3.92503
3.90768
3.88994
3.8719
3.85365
3.83527
3.81683
3.79841
3.78009
3.76193
3.744
3.72635
3.70906
3.69218
3.67576
3.65984
3.64449
3.62974
3.61563
3.60221
3.58951
3.57756
3.56639
3.55604
3.54652
3.53785
3.53007
3.52339
3.51882
3.51707
3.49622
3.33334
3.6789
1480.72
-359.069
-46.6172
1.81189
1.60536
0.760394
0.850359
1.05406
1.22386
1.37216
1.51238
1.64899
1.78304
1.91466
2.04373
2.17009
2.29357
2.41401
2.53125
2.64519
2.75572
2.86277
2.96627
3.06617
3.16243
3.255
3.34386
3.42898
3.51035
3.58795
3.66177
3.73182
3.79809
3.86061
3.91938
3.97444
4.02582
4.07357
4.11772
4.15834
4.19549
4.22924
4.25966
4.28684
4.31087
4.33184
4.34984
4.36497
4.37735
4.38707
4.39426
4.39901
4.40145
4.40169
4.39984
4.39604
4.39039
4.38301
4.37402
4.36354
4.35168
4.33856
4.3243
4.30899
4.29276
4.27572
4.25795
4.23958
4.2207
4.2014
4.18178
4.16194
4.14195
4.12191
4.10189
4.08198
4.06225
4.04277
4.02361
4.00483
3.9865
3.96867
3.95139
3.93473
3.91872
3.90341
3.88884
3.87506
3.86209
3.84998
3.83875
3.82843
3.81903
3.81058
3.80328
3.79822
3.79706
3.7785
3.59474
3.97493
1480.73
-359.052
-46.5895
1.85049
1.65477
0.820555
0.921186
1.13545
1.31571
1.47435
1.62476
1.77141
1.91533
2.05664
2.19522
2.33088
2.46345
2.59274
2.71861
2.84094
2.95961
3.07454
3.18566
3.29291
3.39624
3.49562
3.591
3.68237
3.7697
3.85297
3.93218
4.00733
4.07842
4.14546
4.20849
4.26751
4.32258
4.37374
4.42103
4.46453
4.5043
4.54041
4.57294
4.60199
4.62765
4.65002
4.6692
4.6853
4.69844
4.70872
4.71628
4.72122
4.72368
4.72378
4.72164
4.71739
4.71116
4.70307
4.69326
4.68185
4.66896
4.65471
4.63923
4.62265
4.60507
4.58661
4.56739
4.54752
4.5271
4.50623
4.48503
4.46359
4.442
4.42036
4.39875
4.37725
4.35595
4.33493
4.31425
4.29398
4.27421
4.25497
4.23634
4.21837
4.2011
4.1846
4.1689
4.15404
4.14007
4.12701
4.11491
4.10379
4.09367
4.08456
4.07665
4.07107
4.07011
4.05333
3.85504
4.26114
1480.73
-359.036
-46.5623
1.88835
1.70327
0.879618
0.990734
1.21539
1.40592
1.5747
1.73512
1.89163
2.04525
2.19607
2.34397
2.48876
2.63024
2.76823
2.90257
3.03311
3.15977
3.28243
3.40102
3.51547
3.62575
3.73179
3.83356
3.93104
4.0242
4.11303
4.19751
4.27765
4.35344
4.42491
4.49208
4.55498
4.61364
4.66812
4.71847
4.76476
4.80707
4.84546
4.88004
4.91089
4.93811
4.96182
4.98213
4.99914
5.01299
5.02379
5.03167
5.03677
5.03921
5.03912
5.03665
5.03193
5.0251
5.01628
5.00562
4.99325
4.97931
4.96392
4.94722
4.92934
4.9104
4.89052
4.86983
4.84845
4.82649
4.80406
4.78128
4.75824
4.73504
4.71179
4.68859
4.66551
4.64264
4.62007
4.59788
4.57614
4.55492
4.53429
4.51431
4.49503
4.47652
4.45883
4.442
4.42607
4.4111
4.39711
4.38415
4.37223
4.36139
4.35164
4.34314
4.33702
4.33597
4.32043
4.11357
4.5372
1480.74
-359.02
-46.5357
1.92544
1.75079
0.937517
1.05892
1.29376
1.49437
1.67311
1.84335
2.00952
2.17263
2.33278
2.48982
2.64355
2.79376
2.94027
3.08289
3.2215
3.35596
3.48619
3.61209
3.7336
3.85067
3.96323
4.07126
4.17471
4.27357
4.36782
4.45745
4.54245
4.62284
4.69862
4.76983
4.83649
4.89865
4.95635
5.00967
5.05867
5.10343
5.14403
5.18057
5.21315
5.24187
5.26686
5.28823
5.3061
5.3206
5.33186
5.34003
5.34523
5.34761
5.34732
5.34448
5.33926
5.33179
5.32221
5.31068
5.29734
5.28232
5.26577
5.24783
5.22864
5.20833
5.18702
5.16486
5.14197
5.11846
5.09446
5.07008
5.04544
5.02065
4.9958
4.97099
4.94633
4.9219
4.8978
4.8741
4.85088
4.82823
4.8062
4.78487
4.7643
4.74455
4.72568
4.70772
4.69074
4.67477
4.65986
4.64604
4.63335
4.6218
4.61141
4.60233
4.59567
4.5943
4.57954
4.36933
4.80296
1480.74
-359.004
-46.5096
1.96171
1.79729
0.994174
1.12565
1.37048
1.58095
1.76943
1.94928
2.12491
2.29732
2.4666
2.63258
2.79506
2.95381
3.10864
3.25938
3.40586
3.54797
3.68559
3.81864
3.94704
4.07073
4.18967
4.30379
4.41308
4.51751
4.61704
4.71168
4.80143
4.88628
4.96626
5.04139
5.11171
5.17725
5.23809
5.29428
5.34589
5.39302
5.43574
5.47417
5.5084
5.53855
5.56475
5.58712
5.60578
5.62088
5.63256
5.64096
5.64623
5.64851
5.64795
5.64472
5.63896
5.63082
5.62046
5.60803
5.59369
5.57758
5.55986
5.54066
5.52015
5.49845
5.47571
5.45206
5.42765
5.40259
5.37701
5.35105
5.3248
5.2984
5.27195
5.24555
5.21931
5.19333
5.16769
5.14248
5.1178
5.09371
5.0703
5.04763
5.02577
5.00479
4.98474
4.96567
4.94764
4.93069
4.91486
4.90019
4.88672
4.87447
4.86346
4.85382
4.84661
4.84477
4.83043
4.62125
5.05836
1480.75
-358.989
-46.4842
1.99711
1.84269
1.04951
1.19085
1.44543
1.66555
1.86356
2.05279
2.23767
2.41917
2.59736
2.77207
2.9431
3.1102
3.27316
3.43181
3.58599
3.73555
3.88039
4.02041
4.15554
4.2857
4.41084
4.53091
4.64589
4.75572
4.86041
4.95993
5.05428
5.14347
5.22752
5.30646
5.38031
5.44914
5.513
5.57196
5.62609
5.67549
5.72025
5.76048
5.79629
5.8278
5.85514
5.87843
5.89783
5.91348
5.92551
5.9341
5.93938
5.94151
5.94066
5.93699
5.93066
5.92182
5.91065
5.8973
5.88193
5.86471
5.84579
5.82533
5.80347
5.78038
5.75619
5.73105
5.70511
5.67849
5.65134
5.62378
5.59593
5.56793
5.53987
5.51188
5.48407
5.45653
5.42936
5.40265
5.3765
5.35099
5.3262
5.3022
5.27906
5.25685
5.23563
5.21545
5.19638
5.17845
5.16172
5.14621
5.13198
5.11904
5.10741
5.09721
5.08947
5.08705
5.07285
4.86826
5.30337
1480.75
-358.974
-46.4595
2.03161
1.88694
1.10347
1.25442
1.51853
1.74807
1.95537
2.15377
2.34767
2.53803
2.72492
2.90816
3.08751
3.26275
3.43365
3.60002
3.76169
3.91852
4.07039
4.21721
4.35888
4.49534
4.62652
4.75238
4.87287
4.98797
5.09766
5.20191
5.30073
5.39413
5.48212
5.56474
5.64202
5.71402
5.78079
5.84242
5.89897
5.95055
5.99725
6.0392
6.0765
6.10929
6.13769
6.16185
6.18192
6.19805
6.21039
6.2191
6.22434
6.22629
6.2251
6.22095
6.21401
6.20445
6.19243
6.17813
6.16172
6.14336
6.12323
6.10147
6.07827
6.05376
6.02812
6.00148
5.974
5.94582
5.91709
5.88793
5.85848
5.82887
5.79921
5.76964
5.74025
5.71115
5.68246
5.65426
5.62665
5.59972
5.57356
5.54823
5.52382
5.50039
5.47801
5.45673
5.43662
5.41773
5.40009
5.38376
5.36877
5.35515
5.34291
5.33218
5.3239
5.32081
5.30658
5.10934
5.53802
1480.76
-358.96
-46.4354
2.06517
1.93002
1.156
1.31632
1.58971
1.82843
2.04479
2.25212
2.4548
2.6538
2.84916
3.0407
3.22817
3.41133
3.58995
3.76383
3.9328
4.0967
4.25541
4.40883
4.55687
4.69945
4.8365
4.96798
5.09383
5.21404
5.32856
5.4374
5.54055
5.63802
5.72982
5.816
5.89658
5.97162
6.0412
6.10537
6.16425
6.21791
6.26646
6.31004
6.34875
6.38273
6.41213
6.43708
6.45776
6.4743
6.48688
6.49567
6.50083
6.50253
6.50097
6.4963
6.48871
6.47839
6.4655
6.45022
6.43274
6.41323
6.39186
6.3688
6.34422
6.3183
6.29118
6.26303
6.23401
6.20427
6.17395
6.14319
6.11214
6.08092
6.04967
6.0185
5.98754
5.9569
5.92668
5.897
5.86794
5.8396
5.81206
5.78542
5.75974
5.7351
5.71157
5.6892
5.66806
5.64821
5.62968
5.61253
5.59679
5.5825
5.56966
5.55841
5.5496
5.54579
5.53141
5.34356
5.76235
1480.76
-358.946
-46.4121
2.09777
1.97187
1.20706
1.3765
1.65892
1.90656
2.13174
2.34775
2.55899
2.76639
2.96999
3.16959
3.36496
3.55582
3.74194
3.92313
4.09918
4.26995
4.43531
4.59514
4.74935
4.89786
5.0406
5.17752
5.30857
5.43372
5.55293
5.66621
5.77353
5.87493
5.9704
6.06
6.14375
6.22172
6.29398
6.3606
6.42168
6.47732
6.52764
6.57274
6.61278
6.64788
6.67819
6.70386
6.72507
6.74197
6.75473
6.76354
6.76856
6.76998
6.76799
6.76277
6.7545
6.74337
6.72958
6.7133
6.69472
6.67403
6.6514
6.62702
6.60106
6.5737
6.54511
6.51544
6.48487
6.45356
6.42164
6.38929
6.35663
6.32381
6.29096
6.25821
6.22568
6.19349
6.16176
6.13059
6.10008
6.07034
6.04145
6.01349
5.98655
5.96071
5.93603
5.91259
5.89043
5.86963
5.85022
5.83225
5.81578
5.80082
5.7874
5.77562
5.7663
5.76173
5.74713
5.57007
5.97641
1480.77
-358.932
-46.3894
2.12939
2.0125
1.25661
1.43492
1.72611
1.98243
2.21616
2.44061
2.66015
2.8757
3.08731
3.29475
3.49777
3.69611
3.88952
4.07778
4.26071
4.43814
4.60993
4.77598
4.93617
5.09043
5.23868
5.38086
5.51693
5.64685
5.77059
5.88814
5.99949
6.10466
6.20367
6.29655
6.38334
6.46412
6.53894
6.60789
6.67107
6.72859
6.78056
6.82711
6.86837
6.9045
6.93565
6.96197
6.98364
7.00083
7.01371
7.02248
7.02731
7.0284
7.02593
7.02011
7.01112
6.99916
6.98443
6.96712
6.94742
6.92553
6.90162
6.8759
6.84855
6.81974
6.78965
6.75846
6.72634
6.69344
6.65994
6.62598
6.59171
6.55729
6.52284
6.48851
6.45442
6.42069
6.38745
6.35481
6.32286
6.29172
6.26147
6.23221
6.20403
6.17699
6.15118
6.12666
6.10349
6.08174
6.06146
6.0427
6.02549
6.00987
5.99588
5.9836
5.97376
5.96842
5.95356
5.78813
6.18025
1480.77
-358.919
-46.3675
2.16004
2.05186
1.30465
1.49155
1.79125
2.05598
2.29801
2.53065
2.75823
2.9817
3.20105
3.41609
3.62653
3.83212
4.03258
4.2277
4.41728
4.60116
4.77918
4.95124
5.11721
5.27702
5.43059
5.57785
5.71876
5.85328
5.98138
6.10304
6.21826
6.32706
6.42946
6.52548
6.61518
6.69863
6.77589
6.84706
6.91223
6.97151
7.02503
7.07293
7.11534
7.15241
7.18431
7.2112
7.23326
7.25067
7.26362
7.27229
7.27687
7.27757
7.27459
7.26813
7.25838
7.24555
7.22985
7.21148
7.19063
7.16751
7.14232
7.11524
7.08647
7.0562
7.02461
6.99189
6.9582
6.92372
6.88862
6.85305
6.81718
6.78115
6.74512
6.7092
6.67356
6.6383
6.60355
6.56943
6.53606
6.50352
6.47193
6.44138
6.41195
6.38373
6.35679
6.33121
6.30704
6.28436
6.26321
6.24365
6.22573
6.20946
6.1949
6.18212
6.17179
6.16567
6.15052
5.9971
6.3739
1480.78
-358.907
-46.3463
2.18969
2.08997
1.35115
1.54637
1.85431
2.12718
2.37725
2.61781
2.85319
3.0843
3.31117
3.53355
3.75118
3.96376
4.17105
4.3728
4.56881
4.75892
4.94296
5.12081
5.29236
5.45753
5.61622
5.76838
5.91395
6.05289
6.18517
6.31078
6.42972
6.54199
6.64762
6.74665
6.83912
6.92511
7.00468
7.07794
7.14499
7.20593
7.26091
7.31005
7.3535
7.39143
7.424
7.45139
7.47377
7.49133
7.50427
7.51278
7.51707
7.51733
7.51379
7.50664
7.49609
7.48236
7.46566
7.44619
7.42417
7.3998
7.37329
7.34484
7.31464
7.2829
7.2498
7.21553
7.18027
7.14421
7.10751
7.07034
7.03286
6.99523
6.9576
6.92011
6.88291
6.84612
6.80988
6.7743
6.7395
6.70558
6.67266
6.64082
6.61016
6.58076
6.5527
6.52606
6.50091
6.4773
6.4553
6.43496
6.41631
6.39942
6.38429
6.37102
6.3602
6.35333
6.33788
6.19646
6.5574
1480.78
-358.894
-46.3258
2.21836
2.1268
1.3961
1.59936
1.91526
2.19601
2.45385
2.70206
2.94497
3.18348
3.4176
3.64708
3.87164
4.09099
4.30486
4.51301
4.71523
4.91133
5.10117
5.28461
5.46154
5.63185
5.79547
5.95233
6.10237
6.24556
6.38185
6.51124
6.63373
6.74931
6.85803
6.95992
7.05502
7.14342
7.22518
7.30041
7.36921
7.43171
7.48803
7.53832
7.58273
7.62142
7.65458
7.68238
7.705
7.72265
7.73552
7.74381
7.74774
7.74752
7.74336
7.73548
7.7241
7.70943
7.69169
7.67111
7.64789
7.62225
7.5944
7.56455
7.53291
7.49968
7.46506
7.42924
7.39241
7.35475
7.31645
7.27767
7.23859
7.19936
7.16014
7.12108
7.08233
7.04402
7.00629
6.96925
6.93303
6.89774
6.86349
6.83038
6.79849
6.76793
6.73877
6.71108
6.68494
6.66042
6.63757
6.61645
6.59711
6.57958
6.5639
6.55015
6.53886
6.53125
6.51551
6.38577
6.73078
1480.78
-358.883
-46.306
2.24602
2.16235
1.43948
1.65051
1.9741
2.26244
2.52778
2.78338
3.03355
3.2792
3.52031
3.75663
3.98788
4.21374
4.43396
4.64826
4.85645
5.05834
5.25375
5.44256
5.62465
5.79991
5.96826
6.12962
6.28395
6.43119
6.57133
6.70433
6.83019
6.94894
7.06059
7.16519
7.26278
7.35345
7.43727
7.51435
7.58479
7.64872
7.70628
7.75761
7.80288
7.84226
7.87592
7.90405
7.92684
7.9445
7.95723
7.96525
7.96877
7.96801
7.96319
7.95454
7.94227
7.92663
7.90782
7.88609
7.86164
7.83471
7.8055
7.77425
7.74115
7.70642
7.67027
7.63289
7.59448
7.55523
7.51532
7.47493
7.43424
7.39341
7.35261
7.31199
7.2717
7.23187
7.19265
7.15417
7.11654
7.07989
7.04432
7.00993
6.97684
6.94512
6.91486
6.88613
6.85903
6.8336
6.80992
6.78803
6.76799
6.74984
6.73362
6.7194
6.70764
6.69933
6.68331
6.56471
6.89406
1480.79
-358.871
-46.287
2.27268
2.1966
1.48129
1.6998
2.03079
2.32646
2.59902
2.86173
3.1189
3.37142
3.61926
3.86217
4.09984
4.33198
4.55829
4.77852
4.99244
5.19987
5.40064
5.5946
5.78163
5.96163
6.13451
6.30018
6.4586
6.60972
6.75351
6.88995
7.01903
7.14077
7.2552
7.36236
7.4623
7.55511
7.64086
7.71965
7.79162
7.85687
7.91556
7.96784
8.01387
8.05383
8.08791
8.11629
8.13918
8.15678
8.16931
8.17699
8.18004
8.17869
8.17316
8.16369
8.15051
8.13385
8.11395
8.09103
8.06534
8.03708
8.0065
7.97382
7.93925
7.90301
7.86532
7.82637
7.78637
7.74552
7.70401
7.66201
7.61972
7.5773
7.53491
7.49273
7.4509
7.40956
7.36887
7.32894
7.28992
7.25191
7.21503
7.17939
7.14509
7.11222
7.08088
7.05113
7.02306
6.99674
6.97223
6.94959
6.92886
6.9101
6.89334
6.87866
6.86645
6.85748
6.84119
6.73303
7.04723
1480.79
-358.86
-46.2686
2.29833
2.22957
1.52151
1.74723
2.08534
2.38804
2.66755
2.9371
3.201
3.46011
3.71442
3.96366
4.20751
4.44566
4.67782
4.90373
5.12315
5.3359
5.54179
5.74068
5.93244
6.11697
6.29416
6.46395
6.62627
6.78108
6.92834
7.06804
7.20017
7.32474
7.44179
7.55136
7.65351
7.74831
7.83585
7.91625
7.98961
8.05607
8.11579
8.16891
8.2156
8.25606
8.29047
8.31902
8.34192
8.3594
8.37167
8.37895
8.38147
8.37947
8.37319
8.36286
8.34872
8.33101
8.30998
8.28586
8.25888
8.22929
8.19731
8.16319
8.12713
8.08937
8.05012
8.0096
7.96801
7.92556
7.88244
7.83883
7.79494
7.75093
7.70697
7.66323
7.61986
7.57703
7.53486
7.49351
7.45309
7.41374
7.37556
7.33868
7.30318
7.26918
7.23675
7.206
7.17698
7.14977
7.12444
7.10105
7.07965
7.06029
7.043
7.02787
7.01523
7.00563
6.9891
6.89058
7.19033
1480.79
-358.85
-46.251
2.32298
2.26124
1.56015
1.79277
2.13773
2.44718
2.73335
3.00947
3.27981
3.54526
3.80577
4.06107
4.31084
4.55475
4.79251
5.02385
5.24854
5.46637
5.67715
5.88075
6.07702
6.26586
6.44717
6.62087
6.7869
6.94521
7.09576
7.23854
7.37355
7.50079
7.62031
7.73214
7.83634
7.933
8.02221
8.10407
8.17871
8.24627
8.3069
8.36076
8.40802
8.44888
8.48353
8.51217
8.53502
8.5523
8.56423
8.57105
8.573
8.5703
8.56322
8.55198
8.53684
8.51805
8.49585
8.47049
8.44222
8.41126
8.37787
8.34228
8.30473
8.26544
8.22463
8.18253
8.13934
8.09528
8.05055
8.00534
7.95985
7.91424
7.86872
7.82343
7.77854
7.73421
7.69058
7.64781
7.60601
7.56532
7.52586
7.48773
7.45106
7.41593
7.38244
7.35068
7.32072
7.29264
7.26651
7.24238
7.22032
7.20036
7.18255
7.16697
7.15391
7.14373
7.127
7.03727
7.32335
1480.8
-358.84
-46.2341
2.34662
2.2916
1.59719
1.83644
2.18794
2.50387
2.79643
3.07882
3.35535
3.62685
3.89329
4.15439
4.40981
4.65924
4.90235
5.13888
5.36858
5.59125
5.80671
6.01478
6.21535
6.40829
6.5935
6.77091
6.94045
7.10207
7.25573
7.40142
7.53913
7.66888
7.79071
7.90464
8.01076
8.10914
8.19987
8.28308
8.35888
8.42742
8.48885
8.54335
8.59108
8.63225
8.66706
8.69571
8.71843
8.73544
8.74697
8.75327
8.75457
8.75113
8.7432
8.73101
8.71484
8.69493
8.67153
8.64491
8.6153
8.58297
8.54814
8.51108
8.47201
8.43117
8.3888
8.34511
8.30032
8.25466
8.20832
8.1615
8.11441
8.06722
8.02013
7.9733
7.92689
7.88108
7.836
7.79181
7.74864
7.70663
7.66589
7.62654
7.5887
7.55246
7.51791
7.48516
7.45427
7.42533
7.3984
7.37355
7.35083
7.33029
7.31197
7.29595
7.28248
7.27176
7.25485
7.17307
7.44631
1480.8
-358.83
-46.218
2.36924
2.32065
1.63264
1.87821
2.23598
2.5581
2.85675
3.14516
3.42758
3.70487
3.97698
4.24361
4.50443
4.7591
5.00731
5.24878
5.48327
5.71054
5.93043
6.14276
6.3474
6.54423
6.73314
6.91406
7.08691
7.25164
7.40823
7.55665
7.6969
7.82899
7.95296
8.06885
8.17674
8.2767
8.36883
8.45325
8.53009
8.59949
8.66162
8.71665
8.76476
8.80615
8.84102
8.8696
8.89211
8.90878
8.91986
8.92557
8.92618
8.92194
8.91311
8.89994
8.88269
8.86162
8.837
8.80908
8.77813
8.74438
8.70811
8.66955
8.62896
8.58657
8.54262
8.49734
8.45095
8.40367
8.35572
8.30731
8.25862
8.20985
8.1612
8.11283
8.06492
8.01762
7.97111
7.92551
7.88099
7.83766
7.79565
7.75509
7.71609
7.67875
7.64316
7.60943
7.57762
7.54783
7.52012
7.49455
7.47118
7.45007
7.43125
7.41481
7.40095
7.38973
7.37266
7.29799
7.55924
1480.8
-358.821
-46.2025
2.39084
2.3484
1.66648
1.9181
2.28185
2.60986
2.91434
3.20847
3.49651
3.77932
4.05682
4.32871
4.59467
4.85434
5.10739
5.35356
5.59258
5.82423
6.04831
6.26467
6.47317
6.67366
6.86607
7.05029
7.22626
7.39393
7.55325
7.70423
7.84684
7.98111
8.10707
8.22476
8.33427
8.43567
8.52906
8.61457
8.69233
8.76248
8.8252
8.88066
8.92904
8.97056
9.00543
9.03386
9.05608
9.07234
9.08289
9.08796
9.08783
9.08274
9.07296
9.05875
9.04039
9.01814
8.99226
8.96302
8.93069
8.89552
8.85778
8.81772
8.77559
8.73163
8.6861
8.63922
8.59123
8.54234
8.49278
8.44276
8.39249
8.34215
8.29194
8.24204
8.19263
8.14387
8.09592
8.04893
8.00306
7.95843
7.91517
7.87341
7.83326
7.79483
7.75821
7.72351
7.6908
7.66016
7.63168
7.60541
7.58141
7.55973
7.54042
7.52356
7.50932
7.49764
7.48046
7.41211
7.66218
1480.81
-358.812
-46.1878
2.41143
2.37484
1.69873
1.9561
2.32553
2.65917
2.96918
3.26875
3.56214
3.85019
4.13281
4.40971
4.68054
4.94495
5.2026
5.45321
5.69652
5.9323
6.16036
6.38053
6.59265
6.79661
6.99229
7.17962
7.35851
7.52892
7.6908
7.84415
7.98896
8.12524
8.25303
8.37238
8.48336
8.58606
8.68059
8.76706
8.84562
8.91641
8.97961
9.03539
9.08396
9.12552
9.16028
9.18848
9.21035
9.22614
9.23609
9.24046
9.23952
9.23354
9.22277
9.20749
9.18798
9.16451
9.13734
9.10676
9.07303
9.03641
8.99719
8.9556
8.91192
8.8664
8.81928
8.7708
8.72119
8.6707
8.61954
8.56792
8.51606
8.46415
8.41239
8.36097
8.31007
8.25985
8.21048
8.16211
8.1149
8.06898
8.02448
7.98153
7.94025
7.90074
7.86311
7.82744
7.79384
7.76238
7.73313
7.70617
7.68154
7.65931
7.63953
7.62225
7.60764
7.59554
7.57827
7.51553
7.75518
1480.81
-358.804
-46.1738
2.43101
2.39997
1.72938
1.99221
2.36705
2.70602
3.02128
3.32602
3.62448
3.91749
4.20497
4.48661
4.76205
5.03094
5.29294
5.54775
5.79511
6.03479
6.26659
6.49034
6.70587
6.91307
7.11183
7.30206
7.48368
7.65664
7.8209
7.97645
8.12328
8.26141
8.39087
8.51173
8.62404
8.72791
8.82344
8.91075
8.98998
9.0613
9.12487
9.18088
9.22954
9.27105
9.30563
9.33352
9.35496
9.3702
9.3795
9.38312
9.38132
9.37439
9.36258
9.3462
9.3255
9.30077
9.27229
9.24033
9.20518
9.16711
9.12638
9.08327
9.03803
8.99092
8.9422
8.89212
8.84091
8.7888
8.73604
8.68282
8.62938
8.57591
8.52262
8.46969
8.4173
8.36563
8.31485
8.26512
8.21658
8.16938
8.12365
8.07953
8.03712
7.99655
7.95791
7.92131
7.88682
7.85455
7.82455
7.7969
7.77166
7.74889
7.72863
7.71095
7.696
7.6835
7.66617
7.60838
7.83831
1480.81
-358.796
-46.1605
2.44958
2.42381
1.75844
2.02645
2.4064
2.75042
3.07065
3.38028
3.68354
3.98125
4.27332
4.55943
4.83923
5.11234
5.37843
5.6372
5.88837
6.13172
6.36703
6.59413
6.81286
7.02309
7.22472
7.41765
7.6018
7.77713
7.94358
8.10116
8.24984
8.38966
8.52065
8.64286
8.75636
8.86126
8.95765
9.04568
9.12547
9.19721
9.26105
9.31719
9.36584
9.40721
9.44152
9.46903
9.48997
9.5046
9.51318
9.51599
9.51328
9.50535
9.49248
9.47493
9.45301
9.427
9.39718
9.36383
9.32724
9.28768
9.24544
9.20078
9.15397
9.10528
9.05496
9.00327
8.95045
8.89674
8.84237
8.78757
8.73255
8.67753
8.6227
8.56827
8.51441
8.46131
8.40913
8.35803
8.30818
8.25972
8.21277
8.16749
8.12397
8.08235
8.04272
8.00518
7.96983
7.93675
7.90601
7.87769
7.85185
7.82855
7.80783
7.78976
7.77446
7.7616
7.74425
7.69082
7.91166
1480.82
-358.788
-46.148
2.46714
2.44635
1.78591
2.05881
2.4436
2.79238
3.11731
3.43155
3.73933
4.04147
4.33786
4.62819
4.91209
5.18917
5.45911
5.72159
5.97634
6.22311
6.46171
6.69194
6.91365
7.12671
7.331
7.52643
7.71293
7.89043
8.05891
8.21833
8.36871
8.51005
8.6424
8.76582
8.88038
8.98617
9.0833
9.17192
9.25217
9.3242
9.38821
9.44438
9.49293
9.53407
9.56805
9.59509
9.61546
9.62942
9.63722
9.63916
9.6355
9.62652
9.61253
9.5938
9.57062
9.54329
9.5121
9.47734
9.43928
9.39823
9.35446
9.30824
9.25986
9.20958
9.15766
9.10436
9.04993
8.99461
8.93864
8.88226
8.82567
8.7691
8.71275
8.65682
8.6015
8.54697
8.49341
8.44097
8.38982
8.3401
8.29196
8.24552
8.20091
8.15825
8.11764
8.07918
8.04298
8.0091
7.97764
7.94867
7.92223
7.89841
7.87724
7.85878
7.84316
7.82997
7.81261
7.76303
7.97535
1480.82
-358.781
-46.1361
2.4837
2.4676
1.81182
2.08933
2.47866
2.83194
3.16128
3.47986
3.7919
4.09819
4.39865
4.69293
4.98066
5.26148
5.53501
5.80096
6.05905
6.30902
6.55068
6.78382
7.0083
7.22397
7.43073
7.62847
7.81712
7.99662
8.16693
8.32804
8.47994
8.62266
8.75622
8.8807
8.99617
9.10272
9.20047
9.28956
9.37014
9.44237
9.50644
9.56255
9.61091
9.65175
9.6853
9.71181
9.73154
9.74475
9.75173
9.75274
9.74807
9.73801
9.72286
9.7029
9.67844
9.64976
9.61718
9.58097
9.54144
9.49888
9.45356
9.40578
9.35581
9.30393
9.25041
9.1955
9.13946
9.08254
9.02498
8.96701
8.90887
8.85076
8.7929
8.73549