/*--------------------------------*- C++ -*----------------------------------*\
  =========                 |
  \\      /  F ield         | OpenFOAM: The Open Source CFD Toolbox
   \\    /   O peration     | Website:  https://openfoam.org
    \\  /    A nd           | Version:  10
     \\/     M anipulation  |
\*---------------------------------------------------------------------------*/
FoamFile
{
    format      ascii;
    class       volScalarField;
    location    "19.5";
    object      T_0;
}
// * * * * * * * * * * * * * * * * * * * * * * * * * * * * * * * * * * * * * //

dimensions      [0 0 -1 0 0 0 0];

internalField   nonuniform List<scalar> 
100
(
2.16265
6.46786
10.7157
14.8684
18.8891
22.7421
26.3933
29.8103
32.9626
35.8224
38.3642
40.5654
42.4067
43.8715
44.9469
45.6234
45.8949
45.759
45.217
44.2737
42.9373
41.2199
39.1366
36.7059
33.9494
30.8916
27.5596
23.9829
20.1934
16.2247
12.112
7.8917
3.6014
-0.720861
-5.03672
-9.30788
-13.4964
-17.5651
-21.478
-25.2002
-28.6987
-31.9424
-34.9027
-37.5531
-39.8703
-41.8335
-43.4254
-44.6319
-45.4422
-45.8491
-45.8491
-45.4422
-44.6318
-43.4254
-41.8335
-39.8702
-37.5531
-34.9026
-31.9424
-28.6986
-25.2001
-21.4779
-17.5651
-13.4963
-9.30781
-5.03666
-0.720793
3.60147
7.89177
12.112
16.2248
20.1935
23.983
27.5596
30.8917
33.9495
36.706
39.1366
41.22
42.9374
44.2737
45.2171
45.7591
45.8949
45.6234
44.947
43.8715
42.4067
40.5655
38.3642
35.8224
32.9626
29.8103
26.3934
22.7422
18.8891
14.8684
10.7157
6.46787
2.16265
)
;

boundaryField
{
    xmin
    {
        type            fixedValue;
        value           uniform 0;
    }
    xmax
    {
        type            fixedValue;
        value           uniform 0;
    }
    frontAndBack
    {
        type            empty;
    }
}


// ************************************************************************* //
