/*--------------------------------*- C++ -*----------------------------------*\
  =========                 |
  \\      /  F ield         | OpenFOAM: The Open Source CFD Toolbox
   \\    /   O peration     | Website:  https://openfoam.org
    \\  /    A nd           | Version:  10
     \\/     M anipulation  |
\*---------------------------------------------------------------------------*/
FoamFile
{
    format      ascii;
    class       volScalarField;
    location    "7.3";
    object      T;
}
// * * * * * * * * * * * * * * * * * * * * * * * * * * * * * * * * * * * * * //

dimensions      [0 0 -1 0 0 0 0];

internalField   nonuniform List<scalar> 
100
(
-0.036725
-0.108873
-0.177165
-0.23918
-0.292722
-0.335894
-0.367167
-0.385433
-0.390045
-0.380839
-0.358142
-0.322758
-0.275939
-0.219346
-0.154982
-0.0851272
-0.0122571
0.0610471
0.132189
0.198648
0.258069
0.308349
0.347705
0.374743
0.388506
0.388506
0.374743
0.347704
0.308348
0.258068
0.198647
0.132188
0.0610459
-0.0122583
-0.0851284
-0.154983
-0.219347
-0.27594
-0.322758
-0.358143
-0.38084
-0.390045
-0.385433
-0.367167
-0.335894
-0.292721
-0.239179
-0.177164
-0.108872
-0.0367242
0.0367251
0.108873
0.177165
0.23918
0.292722
0.335894
0.367167
0.385434
0.390045
0.38084
0.358143
0.322758
0.27594
0.219346
0.154982
0.0851276
0.0122576
-0.0610467
-0.132188
-0.198647
-0.258069
-0.308348
-0.347704
-0.374743
-0.388506
-0.388506
-0.374743
-0.347704
-0.308348
-0.258069
-0.198647
-0.132188
-0.0610464
0.0122579
0.085128
0.154982
0.219346
0.27594
0.322758
0.358143
0.38084
0.390045
0.385433
0.367167
0.335894
0.292721
0.239179
0.177164
0.108872
0.0367242
)
;

boundaryField
{
    inlet
    {
        type            cyclic;
    }
    outlet
    {
        type            cyclic;
    }
    bottom
    {
        type            slip;
    }
    top
    {
        type            slip;
    }
    frontAndBack
    {
        type            empty;
    }
}


// ************************************************************************* //
