/*--------------------------------*- C++ -*----------------------------------*\
  =========                 |
  \\      /  F ield         | OpenFOAM: The Open Source CFD Toolbox
   \\    /   O peration     | Website:  https://openfoam.org
    \\  /    A nd           | Version:  10
     \\/     M anipulation  |
\*---------------------------------------------------------------------------*/
FoamFile
{
    format      ascii;
    class       volScalarField;
    location    "7.3";
    object      T_0;
}
// * * * * * * * * * * * * * * * * * * * * * * * * * * * * * * * * * * * * * //

dimensions      [0 0 -1 0 0 0 0];

internalField   nonuniform List<scalar> 
100
(
-0.0363464
-0.107751
-0.175338
-0.236714
-0.289704
-0.332431
-0.363382
-0.38146
-0.386024
-0.376913
-0.35445
-0.31943
-0.273095
-0.217084
-0.153384
-0.0842496
-0.0121308
0.0604178
0.130826
0.1966
0.255409
0.30517
0.34412
0.370879
0.3845
0.3845
0.370879
0.344119
0.305169
0.255408
0.196599
0.130825
0.0604166
-0.012132
-0.0842508
-0.153385
-0.217085
-0.273095
-0.319431
-0.354451
-0.376913
-0.386024
-0.38146
-0.363382
-0.332431
-0.289704
-0.236713
-0.175337
-0.10775
-0.0363456
0.0363464
0.107751
0.175338
0.236714
0.289704
0.332431
0.363382
0.38146
0.386024
0.376913
0.35445
0.319431
0.273095
0.217085
0.153384
0.08425
0.0121312
-0.0604173
-0.130826
-0.196599
-0.255408
-0.305169
-0.34412
-0.370879
-0.3845
-0.3845
-0.370879
-0.344119
-0.305169
-0.255408
-0.196599
-0.130825
-0.060417
0.0121316
0.0842503
0.153385
0.217085
0.273095
0.319431
0.35445
0.376913
0.386024
0.381459
0.363382
0.332431
0.289703
0.236713
0.175337
0.10775
0.0363456
)
;

boundaryField
{
    inlet
    {
        type            cyclic;
    }
    outlet
    {
        type            cyclic;
    }
    bottom
    {
        type            slip;
    }
    top
    {
        type            slip;
    }
    frontAndBack
    {
        type            empty;
    }
}


// ************************************************************************* //
