/*--------------------------------*- C++ -*----------------------------------*\
  =========                 |
  \\      /  F ield         | OpenFOAM: The Open Source CFD Toolbox
   \\    /   O peration     | Website:  https://openfoam.org
    \\  /    A nd           | Version:  10
     \\/     M anipulation  |
\*---------------------------------------------------------------------------*/
FoamFile
{
    format      ascii;
    class       volScalarField;
    location    "4.2";
    object      T;
}
// * * * * * * * * * * * * * * * * * * * * * * * * * * * * * * * * * * * * * //

dimensions      [0 0 -1 0 0 0 0];

internalField   nonuniform List<scalar> 
100
(
-0.0568982
-0.168678
-0.274482
-0.370562
-0.453516
-0.520403
-0.568854
-0.597154
-0.604299
-0.590037
-0.554872
-0.500051
-0.427515
-0.339834
-0.240114
-0.131888
-0.0189904
0.0945803
0.204801
0.307766
0.399828
0.477726
0.538701
0.580591
0.601915
0.601914
0.580591
0.5387
0.477726
0.399827
0.307765
0.2048
0.0945795
-0.0189913
-0.131889
-0.240115
-0.339835
-0.427515
-0.500051
-0.554872
-0.590037
-0.604299
-0.597154
-0.568854
-0.520402
-0.453515
-0.370562
-0.274481
-0.168677
-0.056897
0.0568983
0.168678
0.274482
0.370563
0.453516
0.520403
0.568855
0.597154
0.604299
0.590037
0.554872
0.500051
0.427515
0.339834
0.240114
0.131888
0.01899
-0.0945808
-0.204801
-0.307766
-0.399828
-0.477726
-0.538701
-0.580592
-0.601915
-0.601914
-0.580591
-0.5387
-0.477725
-0.399827
-0.307765
-0.204799
-0.0945791
0.0189917
0.13189
0.240115
0.339835
0.427516
0.500051
0.554872
0.590037
0.604299
0.597154
0.568854
0.520402
0.453515
0.370562
0.274481
0.168677
0.056897
)
;

boundaryField
{
    inlet
    {
        type            cyclic;
    }
    outlet
    {
        type            cyclic;
    }
    bottom
    {
        type            slip;
    }
    top
    {
        type            slip;
    }
    frontAndBack
    {
        type            empty;
    }
}


// ************************************************************************* //
