/*--------------------------------*- C++ -*----------------------------------*\
| =========                 |                                                 |
| \\      /  F ield         | OpenFOAM: The Open Source CFD Toolbox           |
|  \\    /   O peration     | Version:  2406                                  |
|   \\  /    A nd           | Website:  www.openfoam.com                      |
|    \\/     M anipulation  |                                                 |
\*---------------------------------------------------------------------------*/
FoamFile
{
    version     2.0;
    format      ascii;
    arch        "LSB;label=32;scalar=64";
    class       volScalarField;
    location    "11";
    object      p;
}
// * * * * * * * * * * * * * * * * * * * * * * * * * * * * * * * * * * * * * //

dimensions      [0 2 -2 0 0 0 0];

internalField   nonuniform List<scalar> 
1176
(
0.79700016
0.79702304
0.7970467
0.79705436
0.79702283
0.79692814
0.79677091
0.79658474
0.79640554
0.79623839
0.79608377
0.79598816
0.79598816
0.79608376
0.79623838
0.79640551
0.79658468
0.79677081
0.796928
0.79702263
0.79705409
0.79704634
0.79702261
0.79699968
0.77385173
0.77380477
0.77375702
0.77374012
0.77380262
0.77400498
0.7743703
0.7748347
0.77526556
0.77555166
0.77567106
0.77570532
0.77570532
0.77567107
0.77555168
0.7752656
0.77483476
0.77437038
0.77400509
0.77380276
0.77374028
0.7737572
0.77380498
0.77385195
0.75676697
0.75678899
0.75680878
0.75680687
0.75674781
0.75658663
0.75631487
0.75598692
0.75568071
0.75546791
0.75535711
0.75530829
0.75530829
0.75535711
0.7554679
0.75568069
0.7559869
0.75631484
0.7565866
0.75674776
0.75680682
0.75680872
0.75678892
0.7567669
0.74009508
0.74010421
0.74011626
0.74013266
0.74015521
0.74017278
0.74014054
0.74000713
0.73977502
0.73950246
0.73927825
0.73915775
0.73915775
0.73927825
0.73950246
0.73977503
0.74000714
0.74014055
0.74017278
0.74015519
0.74013263
0.74011621
0.74010414
0.740095
0.72367603
0.72367998
0.72368497
0.72369103
0.72370074
0.72372101
0.72375719
0.72379871
0.72382037
0.7237965
0.72373439
0.72368175
0.72368175
0.72373439
0.72379651
0.72382038
0.72379872
0.7237572
0.72372102
0.72370074
0.72369103
0.72368495
0.72367995
0.72367599
0.70721437
0.70721678
0.70722003
0.70722407
0.70722898
0.70723581
0.70724998
0.70728129
0.70733128
0.70738853
0.70743124
0.7074479
0.7074479
0.70743124
0.70738854
0.70733129
0.7072813
0.70724999
0.70723581
0.70722897
0.70722405
0.70722
0.70721674
0.70721432
0.69080855
0.69081069
0.6908135
0.69081693
0.69082083
0.69082434
0.69082641
0.69082858
0.69083713
0.69085436
0.69087226
0.69088398
0.69088398
0.69087226
0.69085437
0.69083714
0.69082859
0.69082641
0.69082434
0.69082082
0.69081691
0.69081347
0.69081064
0.6908085
0.67442868
0.67443044
0.67443277
0.67443569
0.67443936
0.67444373
0.67444819
0.67445134
0.67445258
0.6744542
0.67445124
0.67444873
0.67444873
0.67445124
0.6744542
0.67445259
0.67445135
0.67444819
0.67444374
0.67443935
0.67443567
0.67443273
0.67443038
0.67442861
0.6580744
0.65807585
0.65807778
0.65808019
0.65808321
0.65808699
0.65809204
0.65809908
0.65810777
0.6581178
0.65812557
0.65812915
0.65812915
0.65812557
0.6581178
0.65810778
0.6580991
0.65809205
0.65808699
0.65808319
0.65808016
0.65807772
0.65807577
0.6580743
0.6417367
0.6417379
0.64173951
0.64174154
0.64174411
0.64174729
0.64175145
0.64175784
0.641768
0.64178113
0.64179546
0.64180476
0.64180476
0.64179546
0.64178114
0.64176801
0.64175785
0.64175146
0.64174729
0.64174409
0.6417415
0.64173944
0.64173781
0.64173658
0.62541231
0.62541334
0.62541472
0.62541646
0.62541868
0.6254214
0.6254248
0.62542964
0.6254375
0.62544817
0.62546073
0.62546986
0.62546986
0.62546073
0.62544817
0.62543752
0.62542966
0.62542481
0.6254214
0.62541865
0.62541641
0.62541463
0.62541322
0.62541217
0.60909883
0.60909973
0.60910092
0.60910245
0.60910439
0.60910679
0.60910975
0.60911376
0.60911998
0.60912864
0.6091392
0.60914665
0.60914665
0.60913921
0.60912865
0.60912
0.60911378
0.60910977
0.60910679
0.60910436
0.60910239
0.60910082
0.60909959
0.60909866
0.59279463
0.59279542
0.59279648
0.59279783
0.59279955
0.59280168
0.59280431
0.59280785
0.59281325
0.592821
0.59283069
0.59283737
0.59283737
0.59283069
0.59282101
0.59281327
0.59280787
0.59280433
0.59280167
0.59279951
0.59279775
0.59279636
0.59279526
0.59279444
0.57649841
0.57649911
0.57650005
0.57650125
0.57650279
0.5765047
0.57650704
0.57651018
0.57651495
0.57652192
0.57653059
0.57653668
0.57653668
0.57653059
0.57652194
0.57651497
0.5765102
0.57650706
0.57650469
0.57650275
0.57650117
0.57649992
0.57649893
0.57649819
0.56020913
0.56020976
0.56021061
0.56021169
0.56021307
0.56021479
0.56021689
0.56021965
0.56022381
0.56022995
0.56023747
0.56024287
0.56024287
0.56023747
0.56022996
0.56022384
0.56021968
0.56021691
0.56021479
0.56021303
0.5602116
0.56021046
0.56020957
0.5602089
0.54392601
0.54392658
0.54392734
0.54392832
0.54392957
0.54393113
0.54393302
0.54393548
0.54393912
0.54394449
0.54395103
0.54395581
0.54395581
0.54395103
0.5439445
0.54393914
0.54393551
0.54393305
0.54393112
0.54392953
0.54392822
0.54392719
0.54392637
0.54392576
0.52764837
0.52764889
0.52764959
0.52765048
0.52765162
0.52765304
0.52765476
0.52765697
0.52766019
0.52766495
0.52767067
0.52767496
0.52767496
0.52767067
0.52766496
0.52766021
0.527657
0.52765478
0.52765303
0.52765158
0.52765038
0.52764943
0.52764868
0.52764812
0.51137569
0.51137616
0.5113768
0.51137761
0.51137866
0.51137996
0.51138153
0.51138352
0.5113864
0.51139065
0.5113957
0.51139956
0.51139956
0.5113957
0.51139066
0.51138642
0.51138355
0.51138155
0.51137995
0.51137862
0.51137752
0.51137664
0.51137596
0.51137544
0.49510749
0.49510792
0.4951085
0.49510926
0.49511022
0.49511141
0.49511285
0.49511466
0.49511724
0.49512104
0.49512554
0.49512902
0.49512902
0.49512554
0.49512105
0.49511726
0.49511469
0.49511287
0.49511141
0.49511017
0.49510916
0.49510836
0.49510772
0.49510725
0.47884337
0.47884377
0.47884431
0.478845
0.47884589
0.47884699
0.47884831
0.47884996
0.47885228
0.47885571
0.47885974
0.47886289
0.47886289
0.47885974
0.47885572
0.47885231
0.47884999
0.47884833
0.47884698
0.47884584
0.47884491
0.47884417
0.47884358
0.47884315
0.46258299
0.46258336
0.46258386
0.4625845
0.46258532
0.46258634
0.46258756
0.46258907
0.46259118
0.46259427
0.46259792
0.46260078
0.46260078
0.46259792
0.46259428
0.4625912
0.4625891
0.46258758
0.46258633
0.46258528
0.46258442
0.46258373
0.46258319
0.46258279
0.44632605
0.44632639
0.44632685
0.44632744
0.44632821
0.44632915
0.44633029
0.44633168
0.44633359
0.44633641
0.44633972
0.44634233
0.44634233
0.44633972
0.44633642
0.44633361
0.4463317
0.4463303
0.44632915
0.44632817
0.44632737
0.44632674
0.44632624
0.44632587
0.43007227
0.43007259
0.43007302
0.43007357
0.43007428
0.43007516
0.43007621
0.4300775
0.43007925
0.43008182
0.43008485
0.43008723
0.43008723
0.43008485
0.43008183
0.43007927
0.43007752
0.43007623
0.43007516
0.43007425
0.43007351
0.43007293
0.43007247
0.43007213
0.41382143
0.41382173
0.41382213
0.41382264
0.4138233
0.41382412
0.4138251
0.41382629
0.4138279
0.41383025
0.41383304
0.41383522
0.41383522
0.41383303
0.41383026
0.41382791
0.41382631
0.41382511
0.41382412
0.41382328
0.41382259
0.41382205
0.41382163
0.41382131
0.3975733
0.39757358
0.39757395
0.39757443
0.39757505
0.39757582
0.39757673
0.39757783
0.39757931
0.39758148
0.39758405
0.39758605
0.39758605
0.39758404
0.39758148
0.39757933
0.39757785
0.39757674
0.39757582
0.39757503
0.3975744
0.3975739
0.39757351
0.39757322
0.3813277
0.38132796
0.38132831
0.38132876
0.38132934
0.38133005
0.3813309
0.38133193
0.3813333
0.38133529
0.38133767
0.38133952
0.38133951
0.38133767
0.3813353
0.38133331
0.38133194
0.38133091
0.38133005
0.38132932
0.38132873
0.38132827
0.38132791
0.38132765
0.36508445
0.36508469
0.36508502
0.36508544
0.36508598
0.36508665
0.36508745
0.3650884
0.36508967
0.36509151
0.36509372
0.36509542
0.36509542
0.36509372
0.36509152
0.36508968
0.36508841
0.36508745
0.36508665
0.36508597
0.36508543
0.365085
0.36508467
0.36508443
0.34884339
0.34884362
0.34884392
0.34884432
0.34884482
0.34884545
0.3488462
0.34884709
0.34884827
0.34884997
0.34885203
0.3488536
0.3488536
0.34885202
0.34884997
0.34884827
0.34884709
0.3488462
0.34884545
0.34884482
0.34884432
0.34884393
0.34884363
0.34884341
0.33260438
0.33260459
0.33260488
0.33260524
0.33260572
0.33260631
0.33260701
0.33260784
0.33260894
0.33261052
0.33261244
0.3326139
0.3326139
0.33261243
0.33261052
0.33260894
0.33260784
0.33260701
0.33260631
0.33260573
0.33260526
0.33260491
0.33260463
0.33260443
0.31636728
0.31636748
0.31636775
0.31636809
0.31636854
0.31636909
0.31636975
0.31637053
0.31637155
0.31637303
0.31637481
0.31637617
0.31637617
0.31637481
0.31637302
0.31637155
0.31637053
0.31636975
0.31636909
0.31636855
0.31636812
0.3163678
0.31636755
0.31636737
0.30013197
0.30013216
0.30013241
0.30013274
0.30013316
0.30013367
0.30013429
0.30013503
0.30013598
0.30013735
0.30013902
0.30014029
0.30014029
0.30013902
0.30013735
0.30013597
0.30013502
0.30013429
0.30013368
0.30013318
0.30013278
0.30013249
0.30013227
0.3001321
0.28389834
0.28389852
0.28389876
0.28389906
0.28389946
0.28389995
0.28390053
0.28390122
0.28390211
0.28390339
0.28390495
0.28390613
0.28390613
0.28390495
0.28390338
0.28390209
0.2839012
0.28390052
0.28389995
0.28389949
0.28389913
0.28389886
0.28389866
0.28389851
0.26766629
0.26766646
0.26766668
0.26766697
0.26766734
0.2676678
0.26766835
0.26766899
0.26766983
0.26767103
0.26767249
0.2676736
0.2676736
0.26767249
0.26767102
0.26766981
0.26766897
0.26766833
0.26766781
0.26766738
0.26766705
0.26766681
0.26766663
0.2676665
0.25143572
0.25143588
0.25143609
0.25143636
0.25143671
0.25143715
0.25143766
0.25143827
0.25143905
0.25144017
0.25144154
0.25144257
0.25144257
0.25144154
0.25144015
0.25143903
0.25143824
0.25143764
0.25143715
0.25143676
0.25143645
0.25143624
0.25143608
0.25143597
0.23520655
0.23520669
0.23520689
0.23520715
0.23520748
0.23520789
0.23520837
0.23520894
0.23520968
0.23521072
0.23521202
0.23521299
0.23521299
0.23521201
0.23521071
0.23520965
0.23520891
0.23520835
0.23520789
0.23520753
0.23520725
0.23520706
0.23520692
0.23520682
0.21897868
0.21897882
0.21897901
0.21897925
0.21897956
0.21897994
0.2189804
0.21898094
0.21898163
0.21898261
0.21898382
0.21898473
0.21898473
0.21898382
0.21898259
0.2189816
0.2189809
0.21898038
0.21897995
0.21897961
0.21897936
0.21897919
0.21897907
0.21897898
0.20275205
0.20275218
0.20275235
0.20275258
0.20275287
0.20275324
0.20275367
0.20275417
0.20275482
0.20275574
0.20275689
0.20275774
0.20275774
0.20275688
0.20275573
0.20275479
0.20275413
0.20275364
0.20275324
0.20275293
0.20275271
0.20275255
0.20275245
0.20275237
0.18652657
0.1865267
0.18652686
0.18652708
0.18652735
0.1865277
0.1865281
0.18652858
0.18652919
0.18653005
0.18653112
0.18653192
0.18653192
0.18653112
0.18653003
0.18652915
0.18652854
0.18652807
0.1865277
0.18652742
0.18652721
0.18652707
0.18652698
0.18652692
0.1703022
0.17030231
0.17030247
0.17030267
0.17030293
0.17030325
0.17030364
0.17030409
0.17030466
0.17030547
0.17030649
0.17030724
0.17030724
0.17030648
0.17030545
0.17030462
0.17030404
0.17030361
0.17030326
0.17030299
0.17030281
0.17030269
0.1703026
0.17030255
0.15407885
0.15407896
0.15407911
0.1540793
0.15407955
0.15407985
0.15408021
0.15408064
0.15408117
0.15408193
0.15408287
0.15408358
0.15408358
0.15408287
0.15408191
0.15408114
0.15408059
0.15408018
0.15407986
0.15407961
0.15407944
0.15407933
0.15407926
0.15407921
0.13785648
0.13785658
0.13785672
0.1378569
0.13785713
0.13785742
0.13785776
0.13785816
0.13785866
0.13785938
0.13786027
0.13786094
0.13786094
0.13786027
0.13785936
0.13785862
0.13785811
0.13785773
0.13785743
0.1378572
0.13785704
0.13785694
0.13785688
0.13785684
0.12163504
0.12163513
0.12163527
0.12163544
0.12163566
0.12163593
0.12163625
0.12163662
0.12163709
0.12163775
0.12163857
0.12163917
0.12163917
0.12163857
0.12163773
0.12163705
0.12163658
0.12163622
0.12163593
0.12163572
0.12163558
0.12163549
0.12163544
0.1216354
0.10541444
0.10541453
0.10541466
0.10541482
0.10541503
0.10541528
0.10541559
0.10541594
0.10541638
0.10541699
0.10541776
0.10541832
0.10541833
0.10541776
0.10541698
0.10541634
0.10541589
0.10541556
0.10541529
0.10541509
0.10541496
0.10541488
0.10541483
0.1054148
0.089194716
0.089194803
0.089194921
0.089195073
0.089195269
0.089195511
0.089195797
0.089196125
0.089196527
0.089197067
0.089197724
0.089198197
0.089198201
0.089197725
0.089197051
0.089196489
0.089196081
0.089195767
0.08919552
0.089195335
0.089195211
0.089195137
0.089195093
0.089195062
0.072975699
0.072975781
0.072975891
0.072976035
0.072976222
0.072976454
0.072976728
0.072977041
0.072977415
0.07297791
0.072978497
0.072978902
0.072978906
0.072978501
0.072977896
0.07297738
0.072976998
0.0729767
0.072976463
0.072976286
0.072976168
0.072976099
0.072976058
0.072976029
0.056757566
0.056757646
0.056757753
0.05675789
0.056758064
0.056758278
0.056758529
0.05675881
0.056759129
0.056759504
0.056759884
0.056760106
0.056760111
0.056759889
0.056759492
0.056759097
0.056758771
0.056758503
0.056758288
0.056758125
0.056758014
0.056757945
0.056757902
0.056757871
0.040539767
0.040539837
0.040539934
0.040540063
0.040540237
0.04054046
0.040540723
0.040541012
0.040541335
0.04054174
0.040542211
0.040542526
0.040542531
0.040542218
0.040541731
0.040541306
0.040540975
0.040540699
0.040540468
0.04054029
0.040540171
0.0405401
0.040540057
0.040540028
0.024323486
0.024323568
0.024323674
0.024323801
0.024323947
0.024324106
0.024324278
0.024324458
0.024324622
0.024324697
0.024324612
0.024324388
0.024324393
0.02432462
0.024324691
0.024324598
0.024324428
0.024324259
0.024324114
0.024323992
0.024323888
0.024323805
0.024323736
0.024323683
0.0081053787
0.0081054482
0.00810554
0.0081056603
0.0081058202
0.008106019
0.0081062387
0.0081064767
0.0081068527
0.0081076864
0.008109165
0.0081105365
0.0081105402
0.0081091708
0.0081076844
0.008106839
0.0081064578
0.0081062261
0.0081060227
0.0081058467
0.0081057125
0.0081056172
0.008105547
0.0081054932
)
;

boundaryField
{
    INLET
    {
        type            zeroGradient;
    }
    OUTLET
    {
        type            fixedValue;
        value           uniform 0;
    }
    WALL
    {
        type            zeroGradient;
    }
    frontAndBackPlanes
    {
        type            empty;
    }
}


// ************************************************************************* //
