/*--------------------------------*- C++ -*----------------------------------*\
| =========                 |                                                 |
| \\      /  F ield         | OpenFOAM: The Open Source CFD Toolbox           |
|  \\    /   O peration     | Version:  2406                                  |
|   \\  /    A nd           | Website:  www.openfoam.com                      |
|    \\/     M anipulation  |                                                 |
\*---------------------------------------------------------------------------*/
FoamFile
{
    version     2.0;
    format      ascii;
    arch        "LSB;label=32;scalar=64";
    class       surfaceScalarField;
    location    "11";
    object      phi;
}
// * * * * * * * * * * * * * * * * * * * * * * * * * * * * * * * * * * * * * //

dimensions      [0 3 -1 0 0 0 0];

oriented        oriented;

internalField   nonuniform List<scalar> 
2279
(
2.3617641e-08
1.0148926e-05
2.0509798e-07
4.982375e-05
6.9331811e-07
0.00014252872
1.5784721e-06
0.00034353082
2.6788479e-06
0.00075378089
3.347291e-06
0.0015415573
3.0435192e-06
0.0029497096
2.1516832e-06
0.005249171
1.4318031e-06
0.008582269
9.8959133e-07
0.012685995
5.1266659e-07
0.016666385
1.5927697e-14
0.01918202
-5.1266232e-07
0.01918202
-9.8957321e-07
0.016666385
-1.4317571e-06
0.012685995
-2.1515928e-06
0.008582269
-3.0433601e-06
0.0052491709
-3.3470262e-06
0.0029497095
-2.6784515e-06
0.0015415572
-1.5779947e-06
0.0007537808
-6.928636e-07
0.00034353076
-2.0478553e-07
0.00014252869
-2.3470716e-08
4.9823734e-05
1.0148922e-05
-9.5248234e-08
1.0244175e-05
-5.3793956e-07
5.0266441e-05
-1.6230004e-06
0.00014361378
-3.5389514e-06
0.00034544677
-5.9201856e-06
0.00075616213
-7.4055016e-06
0.0015430426
-6.5847267e-06
0.0029488888
-3.9361595e-06
0.0052465224
-1.3883893e-06
0.0085797213
-6.51199e-08
0.012684671
2.4240444e-07
0.016666078
-6.2278791e-12
0.019182263
-2.4241888e-07
0.019182263
6.5098268e-08
0.016666078
1.3883538e-06
0.012684671
3.9361072e-06
0.0085797213
6.5846558e-06
0.0052465225
7.4054054e-06
0.0029488889
5.9200559e-06
0.0015430427
3.5388094e-06
0.00075616217
1.6228813e-06
0.0003454468
5.3786958e-07
0.00014361379
9.5222125e-08
5.0266445e-05
1.0244176e-05
5.0140069e-08
1.0194035e-05
2.6334551e-07
5.0053236e-05
7.4910806e-07
0.00014312802
1.5314596e-06
0.00034466442
2.3366573e-06
0.00075535693
2.547664e-06
0.0015428316
1.8390988e-06
0.0029495974
9.7567769e-07
0.0052473859
6.7696072e-07
0.00858002
6.7178747e-07
0.012684677
4.8416263e-07
0.016666266
-5.1577261e-12
0.019182747
-4.8417522e-07
0.019182747
-6.7180554e-07
0.016666266
-6.7698149e-07
0.012684677
-9.7569419e-07
0.00858002
-1.8390982e-06
0.0052473858
-2.5476374e-06
0.0029495974
-2.3366087e-06
0.0015428316
-1.5314018e-06
0.00075535693
-7.4906011e-07
0.00034466442
-2.6331577e-07
0.00014312802
-5.0127667e-08
5.0053237e-05
1.0194035e-05
1.958691e-08
1.0174448e-05
1.1184971e-07
4.9960974e-05
3.6128511e-07
0.00014287858
9.0504905e-07
0.00034412066
1.8716618e-06
0.00075439032
3.0948262e-06
0.0015416085
3.8987274e-06
0.0029487935
3.7285588e-06
0.005247556
2.9242134e-06
0.0085808243
1.9733757e-06
0.012685627
1.0127704e-06
0.016667226
-1.0885128e-12
0.01918376
-1.0127732e-06
0.01918376
-1.9733804e-06
0.016667226
-2.9242193e-06
0.012685627
-3.728562e-06
0.0085808243
-3.8987179e-06
0.005247556
-3.0947887e-06
0.0029487935
-1.8715905e-06
0.0015416085
-9.0495696e-07
0.00075439032
-3.6119641e-07
0.00034412066
-1.117874e-07
0.00014287858
-1.955675e-08
4.9960973e-05
1.0174448e-05
8.0841633e-09
1.0166364e-05
4.7141997e-08
4.9921916e-05
1.5494781e-07
0.00014277078
3.9846459e-07
0.00034387714
8.7979685e-07
0.00075390899
1.7015198e-06
0.0015407867
2.75128e-06
0.0029477437
3.4623672e-06
0.0052468449
3.4708673e-06
0.0085808158
2.8006904e-06
0.012686298
1.5505164e-06
0.016668476
-1.9804727e-12
0.01918531
-1.550523e-06
0.01918531
-2.8007046e-06
0.016668476
-3.4708906e-06
0.012686298
-3.4623904e-06
0.0085808158
-2.7512896e-06
0.0052468449
-1.7015054e-06
0.0029477437
-8.7975755e-07
0.0015407867
-3.9840982e-07
0.00075390899
-1.5489341e-07
0.00034387714
-4.7102425e-08
0.00014277078
-8.0642548e-09
4.9921917e-05
1.0166365e-05
4.9360927e-09
1.0161429e-05
2.869936e-08
4.9898153e-05
9.5122322e-08
0.00014270436
2.4921572e-07
0.00034372305
5.6361157e-07
0.00075359459
1.1213785e-06
0.001540229
1.918463e-06
0.0029469467
2.6588273e-06
0.0052461046
2.8930659e-06
0.0085805816
2.4787719e-06
0.012686712
1.4344289e-06
0.016669521
-1.29207e-12
0.019186745
-1.4344343e-06
0.019186745
-2.478784e-06
0.016669521
-2.8930829e-06
0.012686712
-2.658843e-06
0.0085805816
-1.9184654e-06
0.0052461046
-1.1213571e-06
0.0029469467
-5.6356454e-07
0.001540229
-2.4915213e-07
0.00075359459
-9.5059721e-08
0.00034372305
-2.8654243e-08
0.00014270436
-4.9136993e-09
4.9898154e-05
1.0161429e-05
4.4124885e-09
1.0157016e-05
2.5525974e-08
4.987704e-05
8.3830664e-08
0.00014264605
2.1689509e-07
0.00034358999
4.8450291e-07
0.00075332699
9.5636421e-07
0.0015397571
1.6413794e-06
0.0029462617
2.3245906e-06
0.0052454214
2.5939626e-06
0.0085803122
2.2393711e-06
0.012687066
1.3066789e-06
0.016670453
1.0268872e-12
0.019188051
-1.3066795e-06
0.019188051
-2.2393778e-06
0.016670453
-2.5939749e-06
0.012687066
-2.3246026e-06
0.0085803122
-1.6413795e-06
0.0052454214
-9.5633952e-07
0.0029462617
-4.8444916e-07
0.0015397571
-2.1682093e-07
0.00075332699
-8.375609e-08
0.00034358999
-2.5471425e-08
0.00014264605
-4.385121e-09
4.987704e-05
1.0157016e-05
3.6255911e-09
1.0153391e-05
2.1036715e-08
4.9859629e-05
6.9438374e-08
0.00014259765
1.8114206e-07
0.00034347828
4.0971579e-07
0.00075309841
8.2390711e-07
0.0015393429
1.4539985e-06
0.0029456316
2.143085e-06
0.0052447323
2.4674845e-06
0.0085799878
2.1884044e-06
0.012687346
1.2866508e-06
0.016671355
3.0985101e-12
0.019189338
-1.2866478e-06
0.019189338
-2.1884092e-06
0.016671355
-2.4674972e-06
0.012687346
-2.1430988e-06
0.0085799879
-1.4539993e-06
0.0052447323
-8.2387859e-07
0.0029456316
-4.0965196e-07
0.0015393429
-1.8105259e-07
0.00075309841
-6.9347521e-08
0.00034347828
-2.0969771e-08
0.00014259765
-3.5918215e-09
4.9859629e-05
1.0153391e-05
2.9831433e-09
1.0150408e-05
1.7347039e-08
4.9845265e-05
5.7377416e-08
0.00014255762
1.5007427e-07
0.00034338559
3.4097245e-07
0.00075290752
6.9193498e-07
0.001538992
1.244115e-06
0.0029450794
1.9041961e-06
0.0052440722
2.3016135e-06
0.0085795904
2.0975213e-06
0.01268755
1.252021e-06
0.016672201
4.6832855e-12
0.01919059
-1.2520156e-06
0.01919059
-2.097526e-06
0.016672201
-2.3016287e-06
0.01268755
-1.9042133e-06
0.0085795904
-1.2441158e-06
0.0052440722
-6.9189865e-07
0.0029450794
-3.4089117e-07
0.001538992
-1.4996042e-07
0.00075290752
-5.7262008e-08
0.00034338559
-1.7262097e-08
0.00014255762
-2.9403361e-09
4.9845266e-05
1.0150408e-05
2.46542e-09
1.0147942e-05
1.4363128e-08
4.9833368e-05
4.7626585e-08
0.00014252436
1.2502912e-07
0.00034330818
2.8559026e-07
0.00075274696
5.8418261e-07
0.0015386934
1.0641906e-06
0.0029445994
1.6641681e-06
0.0052434722
2.0898882e-06
0.0085791647
1.9529092e-06
0.012687687
1.1802571e-06
0.016672973
5.9353241e-12
0.01919177
-1.1802504e-06
0.01919177
-1.9529155e-06
0.016672973
-2.0899082e-06
0.012687687
-1.6641901e-06
0.0085791647
-1.0641914e-06
0.0052434722
-5.8413606e-07
0.0029445994
-2.8548714e-07
0.0015386934
-1.2488567e-07
0.00075274696
-4.7481925e-08
0.00034330819
-1.4257005e-08
0.00014252436
-2.4120497e-09
4.9833368e-05
1.0147942e-05
2.1024521e-09
1.014584e-05
1.22581e-08
4.9823212e-05
4.0688424e-08
0.00014249593
1.0699072e-07
0.00034324188
2.4507984e-07
0.00075260887
5.0385607e-07
0.0015384346
9.2624071e-07
0.002944177
1.4715212e-06
0.005242927
1.8909225e-06
0.0085787453
1.8050389e-06
0.012687773
1.1037045e-06
0.016673675
7.1036638e-12
0.019192874
-1.1036969e-06
0.019192874
-1.805048e-06
0.016673675
-1.8909487e-06
0.012687773
-1.471549e-06
0.0085787453
-9.2624128e-07
0.005242927
-5.0379773e-07
0.002944177
-2.4495225e-07
0.0015384346
-1.0681479e-07
0.00075260887
-4.051219e-08
0.00034324189
-1.2129355e-08
0.00014249593
-2.0378783e-09
4.9823213e-05
1.014584e-05
1.828266e-09
1.0144011e-05
1.0665591e-08
4.9814375e-05
3.5430543e-08
0.00014247116
9.3283595e-08
0.00034318403
2.1414049e-07
0.00075248801
4.4193039e-07
0.0015382068
8.1811894e-07
0.0029438008
1.3163899e-06
0.0052424287
1.7245077e-06
0.0085783372
1.6780596e-06
0.012687819
1.0378204e-06
0.016674315
8.4761141e-12
0.019193912
-1.0378117e-06
0.019193912
-1.6780717e-06
0.016674315
-1.7245399e-06
0.012687819
-1.3164234e-06
0.0085783372
-8.1811883e-07
0.0052424287
-4.4185926e-07
0.0029438008
-2.139873e-07
0.0015382068
-9.3074362e-08
0.00075248802
-3.5222383e-08
0.00034318403
-1.0514195e-08
0.00014247116
-1.7525499e-09
4.9814376e-05
1.0144012e-05
1.6105487e-09
1.0142401e-05
9.3998121e-09
4.9806586e-05
3.124471e-08
0.00014244932
8.2340995e-08
0.00034313293
1.893219e-07
0.00075238103
3.9182553e-07
0.0015380043
7.2924629e-07
0.0029434634
1.1851541e-06
0.0052419728
1.5781887e-06
0.0085779442
1.5623569e-06
0.012687835
9.7671575e-07
0.016674901
1.0039394e-11
0.019194888
-9.7670569e-07
0.019194888
-1.5623716e-06
0.016674901
-1.5782268e-06
0.012687835
-1.1851931e-06
0.0085779442
-7.2924516e-07
0.0052419728
-3.9174172e-07
0.0029434634
-1.8914413e-07
0.0015380043
-8.2100427e-08
0.00075238104
-3.1006943e-08
0.00034313294
-9.2276167e-09
0.00014244932
-1.5246699e-09
4.9806587e-05
1.0142401e-05
1.4323773e-09
1.0140969e-05
8.3631613e-09
4.9799655e-05
2.7812875e-08
0.00014242987
7.3353279e-08
0.0003430874
1.6886981e-07
0.00075228552
3.502702e-07
0.0015378229
6.5458731e-07
0.0029431591
1.0720669e-06
0.0052415553
1.4464463e-06
0.0085775698
1.454894e-06
0.012687826
9.1882845e-07
0.016675437
1.185482e-11
0.019195807
-9.1881653e-07
0.019195807
-1.4549108e-06
0.016675437
-1.4464899e-06
0.012687826
-1.0721108e-06
0.0085775698
-6.5458497e-07
0.0052415553
-3.5017477e-07
0.0029431591
-1.6867022e-07
0.0015378229
-7.3085501e-08
0.00075228552
-2.7549844e-08
0.0003430874
-8.1734461e-09
0.00014242987
-1.3380178e-09
4.9799656e-05
1.0140969e-05
1.2850258e-09
1.0139684e-05
7.5051235e-09
4.9793435e-05
2.4968915e-08
0.0001424124
6.589132e-08
0.00034304647
1.5183869e-07
0.00075219957
3.154871e-07
0.0015376593
5.9150033e-07
0.0029428831
9.7479388e-07
0.005241172
1.3297168e-06
0.0085772149
1.3568052e-06
0.012687799
8.652728e-07
0.016675928
1.3944256e-11
0.019196673
-8.6525849e-07
0.019196673
-1.3568237e-06
0.016675928
-1.329765e-06
0.012687799
-9.7484171e-07
0.0085772149
-5.914967e-07
0.005241172
-3.1538203e-07
0.0029428831
-1.5162175e-07
0.0015376593
-6.5602591e-08
0.00075219958
-2.4686945e-08
0.00034304648
-7.3025384e-09
0.00014241241
-1.184528e-09
4.9793436e-05
1.0139684e-05
1.1614193e-09
1.0138522e-05
6.7850305e-09
4.9787811e-05
2.2580146e-08
0.00014239661
5.9615043e-08
0.00034300944
1.3748106e-07
0.00075212171
2.8604765e-07
0.0015375107
5.3771388e-07
0.0029426314
8.9071194e-07
0.005240819
1.2264089e-06
0.0085768792
1.2675077e-06
0.012687758
8.159489e-07
0.01667638
1.6265646e-11
0.019197488
-8.1593164e-07
0.019197488
-1.2675267e-06
0.01667638
-1.2264602e-06
0.012687758
-8.9076238e-07
0.0085768792
-5.3770898e-07
0.005240819
-2.8593563e-07
0.0029426314
-1.3725254e-07
0.0015375107
-5.9313196e-08
0.00075212171
-2.2286985e-08
0.00034300944
-6.5751936e-09
0.00014239661
-1.0575873e-09
4.9787813e-05
1.0138523e-05
1.0559381e-09
1.0137466e-05
6.170479e-09
4.9782696e-05
2.0540469e-08
0.00014238224
5.4250963e-08
0.00034297573
1.2518978e-07
0.00075205077
2.6076792e-07
0.0015373751
4.9125342e-07
0.0029424009
8.1722969e-07
0.0052404931
1.1341935e-06
0.0085765622
1.1858085e-06
0.012687707
7.7023855e-07
0.016676795
1.8700936e-11
0.019198259
-7.7021795e-07
0.019198259
-1.1858273e-06
0.016676795
-1.1342465e-06
0.012687707
-8.1728137e-07
0.0085765623
-4.9124738e-07
0.0052404931
-2.6065213e-07
0.0029424009
-1.2495615e-07
0.0015373751
-5.3944564e-08
0.00075205077
-2.0244424e-08
0.00034297573
-5.9593382e-09
0.00014238224
-9.5171762e-10
4.9782698e-05
1.0137466e-05
9.6475427e-10
1.0136501e-05
5.6392466e-09
4.9778022e-05
1.8776683e-08
0.0001423691
4.9609104e-08
0.0003429449
1.1453949e-07
0.00075198584
2.3880968e-07
0.0015372509
4.5070435e-07
0.002942189
7.5248578e-07
0.0052401913
1.0515081e-06
0.0085762632
1.1108487e-06
0.012687647
7.2771328e-07
0.016677178
2.1098062e-11
0.019198986
-7.2768908e-07
0.019198986
-1.1108662e-06
0.016677179
-1.051561e-06
0.012687647
-7.5253709e-07
0.0085762633
-4.5069736e-07
0.0052401913
-2.3869358e-07
0.002942189
-1.1430765e-07
0.0015372509
-4.9307083e-08
0.00075198585
-1.8486294e-08
0.0003429449
-5.4328482e-09
0.0001423691
-8.6311343e-10
4.9778023e-05
1.0136501e-05
8.8519821e-10
1.0135615e-05
5.1757924e-09
4.977373e-05
1.7237446e-08
0.00014235704
4.555565e-08
0.00034291658
1.0522881e-07
0.00075192617
2.1957388e-07
0.0015371365
4.1504123e-07
0.0029419936
6.9509051e-07
0.0052399112
9.7710079e-07
0.0085759812
1.0418836e-06
0.012687583
6.8803047e-07
0.016677532
2.3267349e-11
0.019199674
-6.8800267e-07
0.019199674
-1.0418987e-06
0.016677532
-9.7715171e-07
0.012687583
-6.9513989e-07
0.0085759813
-4.1503352e-07
0.0052399113
-2.1946078e-07
0.0029419936
-1.050052e-07
0.0015371365
-4.5266202e-08
0.00075192617
-1.6960431e-08
0.00034291658
-4.9795476e-09
0.00014235704
-7.887779e-10
4.9773731e-05
1.0135615e-05
8.1518602e-10
1.0134799e-05
4.7679818e-09
4.9769776e-05
1.588268e-08
0.00014234592
4.1986144e-08
0.00034289047
9.7022102e-08
0.00075187113
2.0258969e-07
0.001537031
3.8344652e-07
0.0029418127
6.4389545e-07
0.0052396508
9.0984767e-07
0.0085757153
9.7825094e-07
0.012687514
6.5089169e-07
0.01667786
2.4979443e-11
0.019200325
-6.5086075e-07
0.019200325
-9.7826314e-07
0.01667786
-9.0989536e-07
0.012687514
-6.4394171e-07
0.0085757153
-3.8343846e-07
0.0052396508
-2.024827e-07
0.0029418127
-9.6812534e-08
0.001537031
-4.1716518e-08
0.00075187114
-1.562578e-08
0.00034289048
-4.5865691e-09
0.00014234593
-7.2625055e-10
4.9769778e-05
1.0134799e-05
7.5308182e-10
1.0134045e-05
4.4062597e-09
4.9766122e-05
1.4680773e-08
0.00014233565
3.8818036e-08
0.00034286634
8.9732609e-08
0.00075182022
1.8748187e-07
0.0015369332
3.5526175e-07
0.002941645
5.9795651e-07
0.0052394081
8.4879132e-07
0.0085754645
9.1938011e-07
0.012687444
6.1603552e-07
0.016678163
2.6021818e-11
0.019200941
-6.160023e-07
0.019200941
-9.1938919e-07
0.016678163
-8.4883472e-07
0.012687444
-5.9799869e-07
0.0085754645
-3.5525368e-07
0.0052394081
-1.8738356e-07
0.002941645
-8.9541774e-08
0.0015369332
-3.8573998e-08
0.00075182023
-1.4449298e-08
0.00034286634
-4.2433365e-09
0.00014233565
-6.733934e-10
4.9766123e-05
1.0134045e-05
6.9761327e-10
1.0133346e-05
4.0831676e-09
4.9762735e-05
1.3606993e-08
0.00014232612
3.5986574e-08
0.00034284396
8.3213309e-08
0.00075177299
1.7395339e-07
0.0015368425
3.2996047e-07
0.002941489
5.5650408e-07
0.0052391816
7.9312177e-07
0.0085752278
8.6477972e-07
0.012687372
5.8325537e-07
0.016678445
2.6226186e-11
0.019201525
-5.8322111e-07
0.019201525
-8.647859e-07
0.016678445
-7.9316024e-07
0.012687372
-5.5654152e-07
0.0085752279
-3.2995271e-07
0.0052391816
-1.7386573e-07
0.002941489
-8.3044745e-08
0.0015368425
-3.5772421e-08
0.000751773
-1.3404868e-08
0.00034284396
-3.9414226e-09
0.00014232612
-6.2846154e-10
4.9762736e-05
1.0133346e-05
6.4777957e-10
1.0132697e-05
3.792825e-09
4.9759588e-05
1.2641813e-08
0.00014231727
3.3440549e-08
0.00034282316
7.7347663e-08
0.00075172909
1.6176791e-07
0.0015367581
3.071211e-07
0.0029413436
5.1891482e-07
0.0052389698
7.421718e-07
0.0085750046
8.140231e-07
0.0126873
5.5236453e-07
0.016678706
2.5494824e-11
0.019202077
-5.5233068e-07
0.019202077
-8.140269e-07
0.016678706
-7.4220508e-07
0.0126873
-5.1894713e-07
0.0085750047
-3.0711392e-07
0.0052389698
-1.6169236e-07
0.0029413436
-7.7203994e-08
0.0015367581
-3.3259501e-08
0.0007517291
-1.2472018e-08
0.00034282316
-3.6743133e-09
0.00014231727
-5.901538e-10
4.9759589e-05
1.0132697e-05
6.0277912e-10
1.0132093e-05
3.5305189e-09
4.9756659e-05
1.1769573e-08
0.00014230903
3.113885e-08
0.00034280379
7.2041944e-08
0.00075168819
1.5073474e-07
0.0015366794
2.8640131e-07
0.0029412079
4.8467577e-07
0.0052387715
6.9537781e-07
0.0085747939
7.6675046e-07
0.012687229
5.2322395e-07
0.01667895
2.3821468e-11
0.0192026
-5.2319201e-07
0.0192026
-7.6675256e-07
0.01667895
-6.9540586e-07
0.012687229
-4.8470271e-07
0.008574794
-2.8639488e-07
0.0052387716
-1.5067226e-07
0.002941208
-7.1924902e-08
0.0015366794
-3.0993059e-08
0.0007516882
-1.1634127e-08
0.00034280379
-3.4366557e-09
0.00014230903
-5.5737064e-10
4.975666e-05
1.0132093e-05
5.6196058e-10
1.0131529e-05
3.2924282e-09
4.9753926e-05
1.0977577e-08
0.00014230134
2.9048144e-08
0.00034278572
6.7220091e-08
0.00075165002
1.4069883e-07
0.0015366059
2.6752165e-07
0.0029410811
4.5336542e-07
0.0052385857
6.5227072e-07
0.008574595
7.2263994e-07
0.012687158
4.9569044e-07
0.016679177
2.129966e-11
0.019203096
-4.9566176e-07
0.019203096
-7.2264097e-07
0.016679177
-6.5229356e-07
0.012687158
-4.5338681e-07
0.0085745951
-2.6751612e-07
0.0052385857
-1.4065021e-07
0.0029410812
-6.7131207e-08
0.0015366059
-2.893962e-08
0.00075165003
-1.0878446e-08
0.00034278572
-3.2246204e-09
0.00014230135
-5.2946407e-10
4.9753927e-05
1.0131529e-05
5.2478638e-10
1.0131002e-05
3.0754135e-09
4.9751374e-05
1.0255409e-08
0.00014229416
2.7141076e-08
0.00034276883
6.2819619e-08
0.00075161434
1.3153249e-07
0.0015365372
2.5025083e-07
0.0029409624
4.2463033e-07
0.0052384113
6.1244673e-07
0.0085744072
6.8142393e-07
0.012687089
4.6966997e-07
0.016679389
1.8089951e-11
0.019203565
-4.696456e-07
0.019203565
-6.8142432e-07
0.016679389
-6.1246426e-07
0.01268709
-4.2464594e-07
0.0085744073
-2.5024623e-07
0.0052384114
-1.3149838e-07
0.0029409625
-6.2760242e-08
0.0015365372
-2.7071658e-08
0.00075161435
-1.0194441e-08
0.00034276883
-3.0350154e-09
0.00014229416
-5.0588377e-10
4.9751374e-05
1.0131002e-05
4.9080847e-10
1.013051e-05
2.876875e-09
4.9748986e-05
9.5944572e-09
0.00014228744
2.5395048e-08
0.00034275303
5.8788918e-08
0.00075158095
1.2313019e-07
0.0015364729
2.3439734e-07
0.0029408512
3.9817748e-07
0.0052382475
5.7556922e-07
0.0085742298
6.4285036e-07
0.012687022
4.4504157e-07
0.016679586
1.4370012e-11
0.01920401
-4.450222e-07
0.019204011
-6.4285024e-07
0.016679586
-5.7558116e-07
0.012687022
-3.9818698e-07
0.0085742299
-2.3439371e-07
0.0052382476
-1.231113e-07
0.0029408512
-5.8760536e-08
0.0015364729
-2.536676e-08
0.00075158096
-9.5736667e-09
0.00034275303
-2.8653533e-09
0.00014228744
-4.8623515e-10
4.9748986e-05
1.013051e-05
4.5964844e-10
1.0130048e-05
2.6946317e-09
4.9746749e-05
8.9875109e-09
0.00014228115
2.3791139e-08
0.00034273822
5.5084721e-08
0.00075154966
1.1540325e-07
0.0015364125
2.197994e-07
0.0029407468
3.7375552e-07
0.0052380936
5.4134086e-07
0.0085740622
6.0671918e-07
0.012686957
4.2174576e-07
0.016679771
1.0548696e-11
0.019204432
-4.2173169e-07
0.019204432
-6.0671836e-07
0.016679771
-5.4134673e-07
0.012686957
-3.7375851e-07
0.0085740623
-2.1979679e-07
0.0052380937
-1.1540046e-07
0.0029407468
-5.5089104e-08
0.0015364126
-2.3806334e-08
0.00075154967
-9.0092023e-09
0.00034273823
-2.7136441e-09
0.00014228115
-4.702274e-10
4.9746749e-05
1.0130048e-05
4.309856e-10
1.0129616e-05
2.5268433e-09
4.9744651e-05
8.4284944e-09
0.00014227524
2.2313425e-08
0.00034272434
5.1670662e-08
0.0007515203
1.0827716e-07
0.0015363559
2.0632114e-07
0.0029406487
3.5115427e-07
0.0052379488
5.0951334e-07
0.0085739039
5.7282257e-07
0.012686893
3.9966804e-07
0.016679944
6.1479828e-12
0.019204832
-3.9965964e-07
0.019204832
-5.7282083e-07
0.016679945
-5.0951264e-07
0.012686894
-3.5115037e-07
0.008573904
-2.0631965e-07
0.0052379489
-1.0829139e-07
0.0029406488
-5.1709529e-08
0.001536356
-2.2374288e-08
0.00075152032
-8.4947307e-09
0.00034272434
-2.5778432e-09
0.00014227525
-4.5743111e-10
4.9744651e-05
1.0129616e-05
4.0454726e-10
1.012921e-05
2.3719488e-09
4.9742682e-05
7.9122534e-09
0.0001422697
2.0948375e-08
0.0003427113
4.8515739e-08
0.00075149274
1.0168818e-07
0.0015363028
1.9384547e-07
0.0029405566
3.3018909e-07
0.0052378124
4.7986162e-07
0.0085737542
5.4101392e-07
0.012686832
3.7878072e-07
0.016680107
1.9072234e-12
0.019205211
-3.787779e-07
0.019205211
-5.4101095e-07
0.016680107
-4.7985388e-07
0.012686832
-3.3017801e-07
0.0085737543
-1.9384531e-07
0.0052378125
-1.0172032e-07
0.0029405566
-4.8590662e-08
0.0015363028
-2.1056774e-08
0.00075149275
-8.0247033e-09
0.00034271131
-2.4560612e-09
0.0001422697
-4.4739436e-10
4.9742682e-05
1.012921e-05
3.8010113e-10
1.0128828e-05
2.2286096e-09
4.9740832e-05
7.4343632e-09
0.0001422645
1.9684391e-08
0.00034269905
4.5593461e-08
0.00075146683
9.5581955e-08
0.0015362528
1.8227291e-07
0.0029404699
3.1070467e-07
0.005237684
4.5219706e-07
0.0085736127
5.1110995e-07
0.012686773
3.5896264e-07
0.016680259
-2.3336868e-12
0.01920557
-3.589653e-07
0.01920557
-5.1110548e-07
0.016680259
-4.52182e-07
0.012686774
-3.1068628e-07
0.0085736129
-1.8227433e-07
0.0052376841
-9.5632754e-08
0.00294047
-4.5705525e-08
0.0015362528
-1.9841456e-08
0.00075146684
-7.5939132e-09
0.00034269906
-2.346367e-09
0.0001422645
-4.3958027e-10
4.9740832e-05
1.0128828e-05
3.5745193e-10
1.012847e-05
2.0956953e-09
4.9739092e-05
6.9910744e-09
0.0001422596
1.8511583e-08
0.00034268753
4.2881053e-08
0.00075144246
8.9911408e-08
0.0015362058
1.7151643e-07
0.0029403883
2.9256197e-07
0.005237563
4.2634677e-07
0.008573479
4.8301279e-07
0.012686717
3.4022167e-07
0.016680402
-6.5905387e-12
0.01920591
-3.4022974e-07
0.01920591
-4.8300673e-07
0.016680402
-4.2632436e-07
0.012686717
-2.9253639e-07
0.0085734791
-1.7151968e-07
0.0052375631
-8.9981152e-08
0.0029403884
-4.3030365e-08
0.0015362058
-1.8717083e-08
0.00075144248
-7.1972375e-09
0.00034268754
-2.2466247e-09
0.0001422596
-4.3329001e-10
4.9739092e-05
1.0128469e-05
3.3642954e-10
1.0128132e-05
1.9722027e-09
4.9737455e-05
6.5790507e-09
0.00014225499
1.7421207e-08
0.00034267669
4.035858e-08
0.00075141953
8.4635683e-08
0.0015361615
1.6150096e-07
0.0029403114
2.756426e-07
0.0052374488
4.0216154e-07
0.0085733524
4.565451e-07
0.012686662
3.2241525e-07
0.016680536
-1.0807884e-11
0.019206232
-3.2242868e-07
0.019206232
-4.5653756e-07
0.016680536
-4.0213204e-07
0.012686662
-2.7561014e-07
0.0085733526
-1.6150626e-07
0.0052374489
-8.4724158e-08
0.0029403115
-4.0544233e-08
0.0015361615
-1.7673567e-08
0.00075141954
-6.830032e-09
0.00034267669
-2.1548856e-09
0.00014225499
-4.2787964e-10
4.9737455e-05
1.0128132e-05
3.1689501e-10
1.0127814e-05
1.8573156e-09
4.9735914e-05
6.1955641e-09
0.00014225065
1.6405993e-08
0.00034266648
3.800912e-08
0.00075139793
7.9719477e-08
0.0015361198
1.5216089e-07
0.002940239
2.598411e-07
0.0052373412
3.7951075e-07
0.0085732328
4.3166217e-07
0.01268661
3.0559795e-07
0.016680662
-1.486906e-11
0.019206538
-3.0561661e-07
0.019206538
-4.3165336e-07
0.016680662
-3.7947463e-07
0.01268661
-2.5980224e-07
0.0085732329
-1.5216833e-07
0.0052373413
-7.9825808e-08
0.0029402391
-3.8228988e-08
0.0015361198
-1.6702094e-08
0.00075139794
-6.4881119e-09
0.00034266648
-2.069312e-09
0.00014225065
-4.2271196e-10
4.9735914e-05
1.0127814e-05
2.9871539e-10
1.0127515e-05
1.7502316e-09
4.9734462e-05
5.8379383e-09
0.00014224656
1.5458981e-08
0.00034265686
3.5816993e-08
0.00075137757
7.5130912e-08
0.0015360805
1.4343741e-07
0.0029401707
2.4506273e-07
0.0052372395
3.5826682e-07
0.0085731196
4.0817045e-07
0.01268656
2.8958654e-07
0.016680781
-1.8660291e-11
0.019206828
-2.8961013e-07
0.019206828
-4.0816056e-07
0.016680781
-3.5822464e-07
0.01268656
-2.4501804e-07
0.0085731197
-1.4344688e-07
0.0052372396
-7.5253527e-08
0.0029401708
-3.6067711e-08
0.0015360805
-1.5794172e-08
0.00075137759
-6.1673729e-09
0.00034265686
-1.9881098e-09
0.00014224656
-4.1717389e-10
4.9734461e-05
1.0127515e-05
2.8179349e-10
1.0127233e-05
1.6503926e-09
4.9733093e-05
5.5043024e-09
0.00014224271
1.4575069e-08
0.00034264779
3.3769961e-08
0.00075135838
7.0843881e-08
0.0015360434
1.3528183e-07
0.0029401063
2.3123074e-07
0.0052371436
3.3834188e-07
0.0085730125
3.8609463e-07
0.012686513
2.7450252e-07
0.016680892
-2.2019803e-11
0.019207102
-2.7453046e-07
0.019207102
-3.8608371e-07
0.016680892
-3.3829416e-07
0.012686513
-2.3118077e-07
0.0085730126
-1.3529308e-07
0.0052371437
-7.0980738e-08
0.0029401063
-3.4047428e-08
0.0015360434
-1.4943875e-08
0.00075135839
-5.8652475e-09
0.00034264779
-1.9102636e-09
0.00014224271
-4.1095216e-10
4.9733092e-05
1.0127232e-05
2.660077e-10
1.0126966e-05
1.5570612e-09
4.9731802e-05
5.1922175e-09
0.00014223908
1.3748086e-08
0.00034263924
3.1854621e-08
0.00075134028
6.6831867e-08
0.0015360084
1.2764489e-07
0.0029400455
2.1826134e-07
0.005237053
3.1960819e-07
0.0085729111
3.6519257e-07
0.012686467
2.6009372e-07
0.016680997
-2.4786725e-11
0.019207362
-2.6012515e-07
0.019207362
-3.6518047e-07
0.016680997
-3.1955537e-07
0.012686467
-2.1820659e-07
0.0085729113
-1.2765747e-07
0.0052370531
-6.6980454e-08
0.0029400455
-3.2153988e-08
0.0015360085
-1.4144175e-08
0.00075134029
-5.5785498e-09
0.00034263924
-1.8345511e-09
0.00014223907
-4.0370529e-10
4.9731801e-05
1.0126966e-05
2.5130378e-10
1.0126715e-05
1.4699799e-09
4.9730584e-05
4.9008247e-09
0.00014223565
1.2975389e-08
0.00034263116
3.006368e-08
0.00075132319
6.3077844e-08
0.0015359754
1.2049489e-07
0.0029399881
2.0611029e-07
0.0052369674
3.020363e-07
0.0085728152
3.4559327e-07
0.012686423
2.4658225e-07
0.016681096
-2.6843695e-11
0.019207609
-2.4661606e-07
0.019207609
-3.455796e-07
0.016681096
-3.019787e-07
0.012686424
-2.0605123e-07
0.0085728153
-1.205083e-07
0.0052369675
-6.3235549e-08
0.0029399881
-3.0380013e-08
0.0015359755
-1.3392415e-08
0.0007513232
-5.3064709e-09
0.00034263116
-1.7607778e-09
0.00014223564
-3.9541663e-10
4.9730583e-05
1.0126715e-05
2.3753999e-10
1.0126478e-05
1.3882798e-09
4.9729433e-05
4.6272935e-09
0.00014223241
1.2250174e-08
0.00034262354
2.8383466e-08
0.00075130706
5.9556502e-08
0.0015359443
1.1378424e-07
0.0029399338
1.9468731e-07
0.0052368865
2.8546341e-07
0.0085727245
3.2695425e-07
0.012686382
2.3360443e-07
0.01668119
-2.8152145e-11
0.019207842
-2.3363944e-07
0.019207842
-3.2693855e-07
0.01668119
-2.8540129e-07
0.012686382
-1.9462438e-07
0.0085727246
-1.1379797e-07
0.0052368866
-5.9720748e-08
0.0029399339
-2.8711951e-08
0.0015359443
-1.268201e-08
0.00075130707
-5.0464365e-09
0.00034262354
-1.6882824e-09
0.00014223241
-3.8605645e-10
4.9729433e-05
1.0126478e-05
2.247464e-10
1.0126254e-05
1.312282e-09
4.9728347e-05
4.3726715e-09
0.00014222935
1.1574222e-08
0.00034261634
2.6814901e-08
0.00075129182
5.6264636e-08
0.0015359148
1.0750674e-07
0.0029398826
1.8400142e-07
0.00523681
2.699635e-07
0.0085726385
3.0957667e-07
0.012686342
2.2153856e-07
0.016681278
-2.8802446e-11
0.019208064
-2.2157373e-07
0.019208064
-3.0955853e-07
0.016681278
-2.698972e-07
0.012686342
-1.8393517e-07
0.0085726386
-1.075204e-07
0.0052368101
-5.6433035e-08
0.0029398827
-2.7151e-08
0.0015359148
-1.201506e-08
0.00075129183
-4.7997816e-09
0.00034261634
-1.6175871e-09
0.00014222935
-3.7575428e-10
4.9728346e-05
1.0126254e-05
2.1269195e-10
1.0126042e-05
1.2405114e-09
4.9727321e-05
4.1321969e-09
0.00014222646
1.0936681e-08
0.00034260954
2.5338228e-08
0.00075127742
5.3169539e-08
0.001535887
1.0160149e-07
0.0029398342
1.7392247e-07
0.0052367377
2.5527425e-07
0.0085725571
2.9293428e-07
0.012686305
2.0984667e-07
0.016681361
-2.8973229e-11
0.019208274
-2.0988127e-07
0.019208274
-2.9291356e-07
0.016681361
-2.5520433e-07
0.012686305
-1.7385361e-07
0.0085725572
-1.0161487e-07
0.0052367378
-5.3340021e-08
0.0029398342
-2.56779e-08
0.001535887
-1.1381311e-08
0.00075127743
-4.5622909e-09
0.00034260954
-1.5475888e-09
0.00014222646
-3.6445483e-10
4.972732e-05
1.0126042e-05
2.0164648e-10
1.0125842e-05
1.1748447e-09
4.9726349e-05
3.9119322e-09
0.00014222372
1.0350697e-08
0.0003426031
2.3974738e-08
0.0007512638
5.0300318e-08
0.0015358607
9.6118556e-08
0.0029397884
1.6457345e-07
0.0052366692
2.4167971e-07
0.00857248
2.7762953e-07
0.012686269
1.991577e-07
0.016681439
-2.8949314e-11
0.019208473
-1.9919154e-07
0.019208473
-2.7760658e-07
0.016681439
-2.4160717e-07
0.012686269
-1.6450305e-07
0.0085724801
-9.6131723e-08
0.0052366693
-5.0471057e-08
0.0029397884
-2.4314147e-08
0.0015358607
-1.0794037e-08
0.00075126381
-4.340069e-09
0.0003426031
-1.4801643e-09
0.00014222372
-3.5242106e-10
4.9726348e-05
1.0125842e-05
1.9099871e-10
1.0125653e-05
1.1113405e-09
4.9725431e-05
3.69926e-09
0.00014222114
9.7881524e-09
0.00034259702
2.2675688e-08
0.00075125092
4.758355e-08
0.0015358358
9.0934424e-08
0.002939745
1.5570103e-07
0.0052366045
2.2869179e-07
0.0085724071
2.6282921e-07
0.012686235
1.8867773e-07
0.016681513
-2.911396e-11
0.019208662
-1.8871121e-07
0.019208662
-2.6280487e-07
0.016681513
-2.2861811e-07
0.012686235
-1.5563053e-07
0.0085724071
-9.0947743e-08
0.0052366045
-4.7753019e-08
0.0029397451
-2.3011331e-08
0.0015358358
-1.0225443e-08
0.00075125092
-4.120743e-09
0.00034259702
-1.4115048e-09
0.00014222114
-3.3908898e-10
4.972543e-05
1.0125653e-05
1.8187642e-10
1.0125473e-05
1.0572331e-09
4.9724558e-05
3.517209e-09
0.00014221868
9.3001389e-09
0.00034259124
2.1528944e-08
0.00075123869
4.5148489e-08
0.0015358121
8.6255027e-08
0.0029397039
1.4770306e-07
0.005236543
2.1704251e-07
0.0085723377
2.4968445e-07
0.012686202
1.7945685e-07
0.016681584
-2.9842634e-11
0.019208841
-1.7949112e-07
0.019208841
-2.4966011e-07
0.016681584
-2.1696952e-07
0.012686202
-1.4763432e-07
0.0085723378
-8.6269208e-08
0.0052365431
-4.5315086e-08
0.0029397039
-2.1856543e-08
0.0015358122
-9.7251764e-09
0.0007512387
-3.9256512e-09
0.00034259124
-1.3475287e-09
0.00014221868
-3.2491067e-10
4.9724557e-05
1.0125473e-05
1.7097648e-10
1.0125304e-05
9.9275476e-10
4.9723739e-05
3.3044946e-09
0.00014221637
8.751459e-09
0.00034258579
2.0302652e-08
0.00075122714
4.266883e-08
0.0015357898
8.1643832e-08
0.0029396649
1.3992206e-07
0.0052364847
2.0570903e-07
0.0085722719
2.367392e-07
0.012686171
1.7027877e-07
0.01668165
-3.1508432e-11
0.019209012
-1.7031563e-07
0.019209012
-2.367168e-07
0.01668165
-2.0563898e-07
0.012686171
-1.3985739e-07
0.008572272
-8.1660209e-08
0.0052364848
-4.2831511e-08
0.002939665
-2.0618164e-08
0.0015357898
-9.1578228e-09
0.00075122714
-3.6929944e-09
0.00034258579
-1.26792e-09
0.00014221637
-3.0623676e-10
4.9723738e-05
1.0125304e-05
1.6630454e-10
1.012514e-05
9.6510662e-10
4.9722943e-05
3.2057234e-09
0.00014221414