/*--------------------------------*- C++ -*----------------------------------*\
| =========                 |                                                 |
| \\      /  F ield         | OpenFOAM: The Open Source CFD Toolbox           |
|  \\    /   O peration     | Version:  2406                                  |
|   \\  /    A nd           | Website:  www.openfoam.com                      |
|    \\/     M anipulation  |                                                 |
\*---------------------------------------------------------------------------*/
FoamFile
{
    version     2.0;
    format      ascii;
    arch        "LSB;label=32;scalar=64";
    class       volVectorField;
    location    "11";
    object      U;
}
// * * * * * * * * * * * * * * * * * * * * * * * * * * * * * * * * * * * * * //

dimensions      [0 1 -1 0 0 0 0];

internalField   nonuniform List<vector> 
1176
(
(0.019493789 7.0786813e-07 0)
(0.066677318 8.169679e-06 0)
(0.13357994 3.9503203e-05 0)
(0.22724701 0.00010873581 0)
(0.35591522 0.0002117603 0)
(0.52772023 0.00030396285 0)
(0.74780387 0.00031818013 0)
(1.0136216 0.00024904579 0)
(1.3093323 0.00016666985 0)
(1.6017081 0.00011264668 0)
(1.8421723 7.021395e-05 0)
(1.9793239 2.3940685e-05 0)
(1.9793239 -2.3940464e-05 0)
(1.8421723 -7.0212889e-05 0)
(1.6017081 -0.00011264365 0)
(1.3093323 -0.00016666345 0)
(1.0136215 -0.00024903411 0)
(0.74780384 -0.0003181597 0)
(0.5277202 -0.00030392947 0)
(0.35591519 -0.00021171474 0)
(0.22724697 -0.00010868798 0)
(0.13357992 -3.9464461e-05 0)
(0.066677303 -8.1482908e-06 0)
(0.019493784 -7.0334233e-07 0)
(0.020187017 -3.7419107e-06 0)
(0.068813532 -2.4638604e-05 0)
(0.13732107 -9.6548489e-05 0)
(0.23247391 -0.00024839452 0)
(0.36204617 -0.00047268772 0)
(0.53373557 -0.00067421176 0)
(0.75267407 -0.00069486938 0)
(1.0170176 -0.00049687368 0)
(1.3116385 -0.00023345926 0)
(1.6034438 -4.9824576e-05 0)
(1.8436588 1.976446e-05 0)
(1.9807026 1.3427231e-05 0)
(1.9807026 -1.3428667e-05 0)
(1.8436588 -1.9766368e-05 0)
(1.6034438 4.9821754e-05 0)
(1.3116385 0.00023345514 0)
(1.0170177 0.00049686796 0)
(0.75267408 0.00069486153 0)
(0.53373556 0.00067420055 0)
(0.36204616 0.00047267354 0)
(0.23247389 0.0002483812 0)
(0.13732106 9.6539184e-05 0)
(0.068813523 2.4634286e-05 0)
(0.020187014 3.7411981e-06 0)
(0.020018442 2.0918441e-06 0)
(0.068327405 1.2720808e-05 0)
(0.13655405 4.6877326e-05 0)
(0.23159544 0.00011389749 0)
(0.36138709 0.00019769282 0)
(0.53366969 0.00023903253 0)
(0.75344344 0.00020559834 0)
(1.0184881 0.00011361137 0)
(1.3134639 7.4313752e-05 0)
(1.6053464 7.9532915e-05 0)
(1.8455118 7.0516392e-05 0)
(1.9825245 2.7825304e-05 0)
(1.9825245 -2.7826248e-05 0)
(1.8455118 -7.0517805e-05 0)
(1.6053464 -7.9534934e-05 0)
(1.3134639 -7.4315871e-05 0)
(1.0184881 -0.00011361251 0)
(0.75344344 -0.00020559669 0)
(0.53366969 -0.0002390286 0)
(0.36138709 -0.00019768702 0)
(0.23159545 -0.00011389203 0)
(0.13655405 -4.6873582e-05 0)
(0.068327411 -1.2718877e-05 0)
(0.020018444 -2.091491e-06 0)
(0.019966547 7.0077102e-07 0)
(0.068159232 4.6870778e-06 0)
(0.13624021 1.9355503e-05 0)
(0.2311194 5.645627e-05 0)
(0.36078093 0.0001344458 0)
(0.53306293 0.00025829337 0)
(0.75295637 0.00035344766 0)
(1.0181104 0.00036912029 0)
(1.313184 0.00030758898 0)
(1.6051633 0.00022777252 0)
(1.8453995 0.00014555944 0)
(1.9824491 4.9997167e-05 0)
(1.9824491 -4.9997418e-05 0)
(1.8453995 -0.00014555987 0)
(1.6051633 -0.00022777321 0)
(1.313184 -0.00030758924 0)
(1.0181104 -0.00036911973 0)
(0.75295637 -0.0003534455 0)
(0.53306293 -0.00025828755 0)
(0.36078093 -0.00013443727 0)
(0.2311194 -5.6447004e-05 0)
(0.13624021 -1.9347915e-05 0)
(0.068159231 -4.6827405e-06 0)
(0.019966547 -6.998427e-07 0)
(0.019942204 2.9077649e-07 0)
(0.068078703 1.9872403e-06 0)
(0.13608628 8.2361905e-06 0)
(0.23087699 2.3699441e-05 0)
(0.36044744 5.6881797e-05 0)
(0.53266449 0.0001230691 0)
(0.75256878 0.00022681852 0)
(1.017808 0.00032272262 0)
(1.3129044 0.00034572508 0)
(1.604912 0.00030730019 0)
(1.8452029 0.00021095336 0)
(1.9822898 7.4614508e-05 0)
(1.9822898 -7.461501e-05 0)
(1.8452029 -0.00021095435 0)
(1.604912 -0.00030730192 0)
(1.3129044 -0.00034572741 0)
(1.017808 -0.00032272424 0)
(0.75256878 -0.0002268182 0)
(0.53266448 -0.00012306614 0)
(0.36044744 -5.6876802e-05 0)
(0.23087699 -2.3693822e-05 0)
(0.13608628 -8.2314623e-06 0)
(0.068078702 -1.9844327e-06 0)
(0.019942203 -2.9015861e-07 0)
(0.019933132 1.7182232e-07 0)
(0.068047755 1.1941104e-06 0)
(0.13602489 5.0652669e-06 0)
(0.23077535 1.4968968e-05 0)
(0.36029899 3.621971e-05 0)
(0.5324792 7.6944498e-05 0)
(0.75239428 0.00014713811 0)
(1.0177222 0.00023749085 0)
(1.3129292 0.0002852566 0)
(1.6049746 0.00027441551 0)
(1.8452865 0.00019644664 0)
(1.9823834 7.1177101e-05 0)
(1.9823834 -7.1177454e-05 0)
(1.8452865 -0.00019644746 0)
(1.6049746 -0.00027441689 0)
(1.3129292 -0.00028525823 0)
(1.0177222 -0.00023749176 0)
(0.75239428 -0.00014713711 0)
(0.5324792 -7.6940817e-05 0)
(0.36029899 -3.6213832e-05 0)
(0.23077535 -1.4962462e-05 0)
(0.13602489 -5.0598535e-06 0)
(0.068047756 -1.1909333e-06 0)
(0.019933132 -1.7113306e-07 0)
(0.0199234 1.5588008e-07 0)
(0.068015507 1.0700961e-06 0)
(0.13596286 4.4935054e-06 0)
(0.23067607 1.3195532e-05 0)
(0.36015773 3.1857251e-05 0)
(0.53230178 6.6958465e-05 0)
(0.75221429 0.0001241193 0)
(1.0176105 0.0001991712 0)
(1.3129358 0.00025490935 0)
(1.6050904 0.00024595267 0)
(1.8454579 0.00018127972 0)
(1.9825798 6.6548895e-05 0)
(1.9825798 -6.6548819e-05 0)
(1.8454579 -0.00018128006 0)
(1.6050904 -0.00024595353 0)
(1.3129358 -0.00025491052 0)
(1.0176105 -0.00019917182 0)
(0.75221429 -0.00012411802 0)
(0.53230178 -6.6954271e-05 0)
(0.36015773 -3.1850454e-05 0)
(0.23067607 -1.3187846e-05 0)
(0.13596286 -4.4869941e-06 0)
(0.068015507 -1.0662359e-06 0)
(0.0199234 -1.5503649e-07 0)
(0.019915697 1.2758813e-07 0)
(0.067989793 8.7802488e-07 0)
(0.13591293 3.696018e-06 0)
(0.23059503 1.0901639e-05 0)
(0.36003987 2.6613431e-05 0)
(0.53214753 5.7237315e-05 0)
(0.75204133 0.0001091109 0)
(1.0174723 0.00017936703 0)
(1.3128926 0.00023802586 0)
(1.6051414 0.00023746874 0)
(1.8455877 0.00017750782 0)
(1.9827514 6.5540025e-05 0)
(1.9827514 -6.5539563e-05 0)
(1.8455877 -0.00017750786 0)
(1.6051414 -0.00023746953 0)
(1.3128926 -0.00023802713 0)
(1.0174723 -0.00017936778 0)
(0.75204133 -0.00010910945 0)
(0.53214753 -5.723235e-05 0)
(0.36003987 -2.6605267e-05 0)
(0.23059503 -1.0892308e-05 0)
(0.13591293 -3.6880539e-06 0)
(0.067989793 -8.7327551e-07 0)
(0.019915697 -1.265464e-07 0)
(0.019909217 1.0465872e-07 0)
(0.067968141 7.2313821e-07 0)
(0.13587084 3.0521104e-06 0)
(0.23052654 9.0118531e-06 0)
(0.35993984 2.1999948e-05 0)
(0.53201542 4.7473621e-05 0)
(0.75188901 9.2014471e-05 0)
(1.0173341 0.00015618265 0)
(1.3128278 0.00021699793 0)
(1.6051595 0.00022709761 0)
(1.8456699 0.00017232755 0)
(1.982868 6.41485e-05 0)
(1.982868 -6.4147753e-05 0)
(1.8456699 -0.00017232746 0)
(1.6051595 -0.0002270985 0)
(1.3128278 -0.00021699952 0)
(1.0173341 -0.00015618358 0)
(0.75188901 -9.2012606e-05 0)
(0.53201542 -4.746729e-05 0)
(0.35993984 -2.1989553e-05 0)
(0.23052654 -8.9999899e-06 0)
(0.13587084 -3.0420025e-06 0)
(0.067968142 -7.1711457e-07 0)
(0.019909217 -1.033379e-07 0)
(0.019903971 8.6126885e-08 0)
(0.067950553 5.9696238e-07 0)
(0.13583649 2.5273821e-06 0)
(0.2304703 7.4916376e-06 0)
(0.35985692 1.8376376e-05 0)
(0.53190436 3.9835887e-05 0)
(0.75175837 7.7712582e-05 0)
(1.0172122 0.00013432513 0)
(1.3127613 0.00019323493 0)
(1.6051772 0.00021058493 0)
(1.8457533 0.00016273113 0)
(1.9829863 6.1085203e-05 0)
(1.9829863 -6.1084239e-05 0)
(1.8457533 -0.00016273103 0)
(1.6051772 -0.00021058616 0)
(1.3127613 -0.00019323702 0)
(1.0172122 -0.0001343263 0)
(0.75175837 -7.771017e-05 0)
(0.53190436 -3.9827831e-05 0)
(0.35985692 -1.8363245e-05 0)
(0.2304703 -7.4767364e-06 0)
(0.13583649 -2.5147388e-06 0)
(0.067950554 -5.8944336e-07 0)
(0.019903972 -8.4479442e-08 0)
(0.019899543 7.3357092e-08 0)
(0.067935688 5.0896317e-07 0)
(0.13580742 2.1568959e-06 0)
(0.23042259 6.4027952e-06 0)
(0.35978626 1.574768e-05 0)
(0.5318089 3.4278034e-05 0)
(0.75164409 6.7205032e-05 0)
(1.0171021 0.00011723071 0)
(1.3126976 0.00017262588 0)
(1.6051929 0.00019309064 0)
(1.8458371 0.00015220026 0)
(1.9831061 5.7545905e-05 0)
(1.9831061 -5.7544751e-05 0)
(1.8458371 -0.00015220024 0)
(1.6051929 -0.00019309233 0)
(1.3126976 -0.00017262857 0)
(1.0171021 -0.00011723216 0)
(0.75164409 -6.7201986e-05 0)
(0.5318089 -3.4268028e-05 0)
(0.35978626 -1.5731527e-05 0)
(0.23042259 -6.3845948e-06 0)
(0.13580742 -2.1415335e-06 0)
(0.06793569 -4.9985185e-07 0)
(0.019899543 -7.1363132e-08 0)
(0.019895722 6.372833e-08 0)
(0.06792285 4.4252634e-07 0)
(0.13578228 1.8767524e-06 0)
(0.23038125 5.5765689e-06 0)
(0.35972484 1.3738781e-05 0)
(0.53172535 2.9998217e-05 0)
(0.75154265 5.9111969e-05 0)
(1.0170011 0.00010388892 0)
(1.3126345 0.000155404 0)
(1.6052015 0.00017849689 0)
(1.8459125 0.00014271725 0)
(1.9832185 5.4331873e-05 0)
(1.9832185 -5.43305e-05 0)
(1.8459125 -0.00014271731 0)
(1.6052015 -0.00017849901 0)
(1.3126345 -0.00015540728 0)
(1.0170011 -0.00010389063 0)
(0.75154264 -5.9108214e-05 0)
(0.53172535 -2.9986152e-05 0)
(0.35972484 -1.3719507e-05 0)
(0.23038125 -5.5550146e-06 0)
(0.13578228 -1.8586567e-06 0)
(0.067922852 -4.3182539e-07 0)
(0.019895722 -6.1389682e-08 0)
(0.019892371 5.6092039e-08 0)
(0.067911587 3.8978646e-07 0)
(0.13576021 1.6541443e-06 0)
(0.2303449 4.9188108e-06 0)
(0.35967069 1.2132109e-05 0)
(0.53165136 2.6542634e-05 0)
(0.7514519 5.2499147e-05 0)
(1.0169086 9.2876355e-05 0)
(1.3125728 0.00014061601 0)
(1.605205 0.00016529781 0)
(1.8459798 0.00013399113 0)
(1.9833221 5.1388889e-05 0)
(1.9833221 -5.1387263e-05 0)
(1.8459798 -0.00013399124 0)
(1.605205 -0.00016530035 0)
(1.3125728 -0.00014061986 0)
(1.0169086 -9.287829e-05 0)
(0.7514519 -5.2494674e-05 0)
(0.53165136 -2.6528578e-05 0)
(0.35967069 -1.210988e-05 0)
(0.23034491 -4.8941289e-06 0)
(0.13576021 -1.6335289e-06 0)
(0.067911588 -3.7763012e-07 0)
(0.019892371 -5.3438904e-08 0)
(0.019889403 4.98509e-08 0)
(0.067901607 3.4662552e-07 0)
(0.13574064 1.4717804e-06 0)
(0.23031264 4.3794262e-06 0)
(0.35962253 1.0812388e-05 0)
(0.53158531 2.369157e-05 0)
(0.75137029 4.6984455e-05 0)
(1.016824 8.3546883e-05 0)
(1.3125139 0.00012773849 0)
(1.6052051 0.00015293509 0)
(1.8460415 0.00012582229 0)
(1.9834196 4.861811e-05 0)
(1.9834196 -4.8616186e-05 0)
(1.8460415 -0.0001258224 0)
(1.6052051 -0.000152938 0)
(1.3125139 -0.00012774286 0)
(1.016824 -8.3549009e-05 0)
(0.75137029 -4.6979312e-05 0)
(0.53158531 -2.367573e-05 0)
(0.35962253 -1.0787573e-05 0)
(0.23031264 -4.3520573e-06 0)
(0.13574064 -1.4490314e-06 0)
(0.067901609 -3.3324824e-07 0)
(0.019889404 -4.6935306e-08 0)
(0.019886752 4.46994e-08 0)
(0.067892685 3.1094477e-07 0)
(0.13572313 1.3208187e-06 0)
(0.23028376 3.9322145e-06 0)
(0.35957935 9.7159163e-06 0)
(0.53152593 2.1315701e-05 0)
(0.75129648 4.2360511e-05 0)
(1.0167465 7.5620391e-05 0)
(1.3124581 0.00011654328 0)
(1.6052027 0.0001417003 0)
(1.8460982 0.00011827305 0)
(1.9835117 4.603338e-05 0)
(1.9835117 -4.6031109e-05 0)
(1.8460982 -0.0001182731 0)
(1.6052027 -0.00014170352 0)
(1.3124581 -0.00011654806 0)
(1.0167465 -7.5622659e-05 0)
(0.75129648 -4.2354802e-05 0)
(0.53152593 -2.1298428e-05 0)
(0.35957936 -9.6890876e-06 0)
(0.23028376 -3.9028101e-06 0)
(0.13572314 -1.2964891e-06 0)
(0.067892687 -2.9667629e-07 0)
(0.019886752 -4.1593762e-08 0)
(0.019884363 4.0383974e-08 0)
(0.067884644 2.810259e-07 0)
(0.13570735 1.1941271e-06 0)
(0.23025769 3.5564471e-06 0)
(0.35954035 8.7928657e-06 0)
(0.53147216 1.9310067e-05 0)
(0.75122934 3.8440335e-05 0)
(1.0166753 6.8839348e-05 0)
(1.3124053 0.00010678437 0)
(1.6051983 0.00013155381 0)
(1.8461504 0.00011133009 0)
(1.9835985 4.363315e-05 0)
(1.9835985 -4.3630486e-05 0)
(1.8461504 -0.00011133003 0)
(1.6051983 -0.0001315572 0)
(1.3124053 -0.00010678944 0)
(1.0166753 -6.8841693e-05 0)
(0.75122934 -3.8434204e-05 0)
(0.53147216 -1.9291816e-05 0)
(0.35954035 -8.7647466e-06 0)
(0.2302577 -3.5258115e-06 0)
(0.13570735 -1.1688892e-06 0)
(0.067884646 -2.6626303e-07 0)
(0.019884363 -3.7175053e-08 0)
(0.019882196 3.6704504e-08 0)
(0.067877349 2.5550354e-07 0)
(0.13569303 1.0860074e-06 0)
(0.23023403 3.2355229e-06 0)
(0.3595049 8.0034669e-06 0)
(0.53142321 1.7590868e-05 0)
(0.75116797 3.5067294e-05 0)
(1.0166096 6.2964429e-05 0)
(1.3123554 9.8203906e-05 0)
(1.6051923 0.00012233504 0)
(1.8461983 0.00010491531 0)
(1.9836803 4.139266e-05 0)
(1.9836804 -4.138958e-05 0)
(1.8461983 -0.00010491506 0)
(1.6051923 -0.00012233851 0)
(1.3123554 -9.8209119e-05 0)
(1.0166096 -6.2966789e-05 0)
(0.75116797 -3.5060917e-05 0)
(0.53142321 -1.7572159e-05 0)
(0.35950491 -7.9748562e-06 0)
(0.23023403 -3.2045252e-06 0)
(0.13569303 -1.0605759e-06 0)
(0.067877351 -2.4066496e-07 0)
(0.019882196 -3.3483444e-08 0)
(0.01988022 3.3526063e-08 0)
(0.067870696 2.334482e-07 0)
(0.13567996 9.9254835e-07 0)
(0.23021243 2.9579647e-06 0)
(0.35947253 7.3200744e-06 0)
(0.53137842 1.6099959e-05 0)
(0.75111165 3.2132953e-05 0)
(1.0165488 5.7823544e-05 0)
(1.3123082 9.0603017e-05 0)
(1.6051852 0.00011395472 0)
(1.8462424 9.8958117e-05 0)
(1.9837576 3.9291309e-05 0)
(1.9837576 -3.928781e-05 0)
(1.8462424 -9.8957611e-05 0)
(1.6051852 -0.00011395812 0)
(1.3123082 -9.0608205e-05 0)
(1.0165488 -5.7825847e-05 0)
(0.75111165 -3.2126522e-05 0)
(0.53137842 -1.6081346e-05 0)
(0.35947253 -7.2918095e-06 0)
(0.23021244 -2.9275028e-06 0)
(0.13567996 -9.6765356e-07 0)
(0.067870698 -2.1895781e-07 0)
(0.01988022 -3.0384668e-08 0)
(0.01987841 3.0754858e-08 0)
(0.067864601 2.1421219e-07 0)
(0.13566799 9.1101628e-07 0)
(0.23019264 2.7157086e-06 0)
(0.35944282 6.7230936e-06 0)
(0.53133729 1.4795714e-05 0)
(0.75105977 2.9559512e-05 0)
(1.0164925 5.3292554e-05 0)
(1.3122638 8.3831967e-05 0)
(1.6051772 0.0001063252 0)
(1.8462831 9.340539e-05 0)
(1.9838307 3.731492e-05 0)
(1.9838307 -3.7311033e-05 0)
(1.8462831 -9.3404596e-05 0)
(1.6051773 -0.00010632837 0)
(1.3122638 -8.3836969e-05 0)
(1.0164925 -5.3294735e-05 0)
(0.75105977 -2.9553214e-05 0)
(0.53133729 -1.4777721e-05 0)
(0.35944283 -6.6959484e-06 0)
(0.23019264 -2.6865988e-06 0)
(0.13566799 -8.8731416e-07 0)
(0.067864603 -2.0044846e-07 0)
(0.01987841 -2.7774839e-08 0)
(0.019876745 2.8317493e-08 0)
(0.067858994 1.9728935e-07 0)
(0.13565697 8.3927601e-07 0)
(0.23017441 2.5024599e-06 0)
(0.35941547 6.1972083e-06 0)
(0.53129937 1.3645387e-05 0)
(0.75101184 2.7285027e-05 0)
(1.0164401 4.9271622e-05 0)
(1.3122219 7.7767949e-05 0)
(1.6051688 9.935716e-05 0)
(1.8463207 8.8215625e-05 0)
(1.9838998 3.5452062e-05 0)
(1.9838998 -3.5447861e-05 0)
(1.8463207 -8.8214532e-05 0)
(1.6051688 -9.9360025e-05 0)
(1.3122219 -7.7772635e-05 0)
(1.0164401 -4.9273637e-05 0)
(0.75101184 -2.7279043e-05 0)
(0.53129937 -1.3628487e-05 0)
(0.35941548 -6.1718715e-06 0)
(0.23017442 -2.4754187e-06 0)
(0.13565697 -8.1733632e-07 0)
(0.067858996 -1.8457823e-07 0)
(0.019876746 -2.5568846e-08 0)
(0.019875209 2.6156416e-08 0)
(0.067853819 1.8228172e-07 0)
(0.1356468 7.7564518e-07 0)
(0.23015759 2.3132531e-06 0)
(0.3593902 5.7303252e-06 0)
(0.5312643 1.262305e-05 0)
(0.75096743 2.5259967e-05 0)
(1.0163914 4.5679328e-05 0)
(1.3121824 7.2308156e-05 0)
(1.6051599 9.2974224e-05 0)
(1.8463555 8.335231e-05 0)
(1.9839652 3.3692104e-05 0)
(1.9839652 -3.3687703e-05 0)
(1.8463555 -8.3350953e-05 0)
(1.6051599 -9.2976721e-05 0)
(1.3121824 -7.2312428e-05 0)
(1.0163914 -4.5681145e-05 0)
(0.75096743 -2.5254446e-05 0)
(0.53126431 -1.2607629e-05 0)
(0.35939021 -5.707347e-06 0)
(0.23015759 -2.2888467e-06 0)
(0.1356468 -7.5591472e-07 0)
(0.067853821 -1.7087755e-07 0)
(0.019875209 -2.3693617e-08 0)
(0.019873787 2.4226956e-08 0)
(0.067849029 1.6887949e-07 0)
(0.13563738 7.1880987e-07 0)
(0.23014201 2.1442002e-06 0)
(0.3593668 5.31295e-06 0)
(0.53123179 1.1708289e-05 0)
(0.75092617 2.3445117e-05 0)
(1.016346 4.2450231e-05 0)
(1.3121452 6.7367568e-05 0)
(1.6051509 8.7108225e-05 0)
(1.8463878 7.8787001e-05 0)
(1.9840271 3.2026419e-05 0)
(1.9840271 -3.2021969e-05 0)
(1.8463879 -7.8785453e-05 0)
(1.6051509 -8.7110336e-05 0)
(1.3121452 -6.7371363e-05 0)
(1.016346 -4.2451829e-05 0)
(0.75092618 -2.3440178e-05 0)
(0.53123179 -1.1694639e-05 0)
(0.3593668 -5.292742e-06 0)
(0.23014201 -2.1228483e-06 0)
(0.13563739 -7.0161795e-07 0)
(0.06784903 -1.5896882e-07 0)
(0.019873787 -2.2089802e-08 0)
(0.019872468 2.2494017e-08 0)
(0.067844583 1.5683876e-07 0)
(0.13562864 6.6773381e-07 0)
(0.23012754 1.9922294e-06 0)
(0.35934505 4.937566e-06 0)
(0.53120157 1.08849e-05 0)
(0.75088777 2.1809256e-05 0)
(1.0163035 3.9531809e-05 0)
(1.31211 6.2876312e-05 0)
(1.6051418 8.170256e-05 0)
(1.8464179 7.449355e-05 0)
(1.9840857 3.0446891e-05 0)
(1.9840857 -3.0442557e-05 0)
(1.8464179 -7.4491912e-05 0)
(1.6051418 -8.1704298e-05 0)
(1.31211 -6.2879595e-05 0)
(1.0163035 -3.9533177e-05 0)
(0.75088778 -2.1804985e-05 0)
(0.53120158 -1.0873235e-05 0)
(0.35934506 -4.920435e-06 0)
(0.23012754 -1.974249e-06 0)
(0.13562865 -6.5333183e-07 0)
(0.067844584 -1.4856442e-07 0)
(0.019872468 -2.0713015e-08 0)
(0.01987124 2.092951e-08 0)
(0.067840448 1.4596421e-07 0)
(0.13562051 6.215866e-07 0)
(0.23011408 1.8548772e-06 0)
(0.35932482 4.5981343e-06 0)
(0.53117343 1.0139827e-05 0)
(0.75085196 2.0327136e-05 0)
(1.0162638 3.6881379e-05 0)
(1.3120768 5.8776688e-05 0)
(1.6051327 7.6707047e-05 0)
(1.8464458 7.045277e-05 0)
(1.9841412 2.894745e-05 0)
(1.9841412 -2.8943401e-05 0)
(1.8464458 -7.0451153e-05 0)
(1.6051327 -7.6708447e-05 0)
(1.3120768 -5.8779445e-05 0)
(1.0162638 -3.6882509e-05 0)
(0.75085196 -2.032359e-05 0)
(0.53117343 -1.013029e-05 0)
(0.35932482 -4.5842845e-06 0)
(0.23011409 -1.8404818e-06 0)
(0.13562052 -6.1014637e-07 0)
(0.067840449 -1.3942518e-07 0)
(0.019871241 -1.9525971e-08 0)
(0.019870097 1.9510634e-08 0)
(0.067836594 1.3609736e-07 0)
(0.13561294 5.7969505e-07 0)
(0.23010154 1.7301465e-06 0)
(0.35930595 4.2897575e-06 0)
(0.53114717 9.4624725e-06 0)
(0.7508185 1.8978198e-05 0)
(1.0162266 3.4463948e-05 0)
(1.3120455 5.5020566e-05 0)
(1.6051237 7.2080835e-05 0)
(1.8464718 6.6643964e-05 0)
(1.9841938 2.7521697e-05 0)
(1.9841939 -2.7518086e-05 0)
(1.8464718 -6.6642471e-05 0)
(1.6051238 -7.2081931e-05 0)
(1.3120455 -5.5022787e-05 0)
(1.0162266 -3.4464835e-05 0)
(0.75081851 -1.8975423e-05 0)
(0.53114718 -9.4551851e-06 0)
(0.35930595 -4.2793759e-06 0)
(0.23010154 -1.7195406e-06 0)
(0.13561294 -5.7138618e-07 0)
(0.067836595 -1.3139246e-07 0)
(0.019870097 -1.8505932e-08 0)
(0.019869029 1.8218593e-08 0)
(0.067832997 1.2710784e-07 0)
(0.13560586 5.415067e-07 0)
(0.23008982 1.6163989e-06 0)
(0.35928832 4.0084151e-06 0)
(0.53112263 8.8441185e-06 0)
(0.75078721 1.7745494e-05 0)
(1.0161917 3.2250579e-05 0)
(1.312016 5.156776e-05 0)
(1.6051149 6.7786159e-05 0)
(1.846496 6.3053867e-05 0)
(1.9842437 2.6165592e-05 0)
(1.9842437 -2.6162542e-05 0)
(1.846496 -6.3052573e-05 0)
(1.6051149 -6.778697e-05 0)
(1.312016 -5.1569428e-05 0)
(1.0161917 -3.2251211e-05 0)
(0.75078722 -1.7743524e-05 0)
(0.53112264 -8.8391871e-06 0)
(0.35928833 -4.0016709e-06 0)
(0.23008982 -1.609773e-06 0)
(0.13560586 -5.3649073e-07 0)
(0.067832998 -1.2433309e-07 0)
(0.01986903 -1.7633812e-08 0)
(0.019868032 1.7037749e-08 0)
(0.067829634 1.1888743e-07 0)
(0.13559925 5.0656438e-07 0)
(0.23007887 1.5122805e-06 0)
(0.35927184 3.7507866e-06 0)
(0.53109967 8.2775675e-06 0)
(0.75075789 1.6615007e-05 0)
(1.0161589 3.0217181e-05 0)
(1.311988 4.838424e-05 0)
(1.6051063 6.3793368e-05 0)
(1.8465187 5.9664347e-05 0)
(1.9842909 2.4873811e-05 0)
(1.9842909 -2.4871413e-05 0)
(1.8465187 -5.9663297e-05 0)
(1.6051063 -6.3793885e-05 0)
(1.3119881 -4.8385319e-05 0)
(1.016159 -3.0217539e-05 0)
(0.7507579 -1.661388e-05 0)
(0.53109968 -8.2751101e-06 0)
(0.35927185 -3.7478666e-06 0)
(0.23007887 -1.5098431e-06 0)
(0.13559925 -5.0501652e-07 0)
(0.067829634 -1.181466e-07 0)
(0.019868032 -1.6895608e-08 0)
(0.019867097 1.5954908e-08 0)
(0.067826485 1.1134515e-07 0)
(0.13559305 4.7448517e-07 0)
(0.23006861 1.4166578e-06 0)
(0.3592564 3.5140897e-06 0)
(0.53107815 7.7567745e-06 0)
(0.7507304 1.557494e-05 0)
(1.0161282 2.8343493e-05 0)
(1.3119617 4.5441352e-05 0)
(1.6050979 6.0072994e-05 0)
(1.8465398 5.6466938e-05 0)
(1.9843356 2.3644039e-05 0)
(1.9843356 -2.3642352e-05 0)
(1.8465398 -5.6466139e-05 0)
(1.6050979 -6.0073185e-05 0)
(1.3119617 -4.5441799e-05 0)
(1.0161282 -2.8343561e-05 0)
(0.75073041 -1.5574706e-05 0)
(0.53107816 -7.7569328e-06 0)
(0.35925641 -3.5152126e-06 0)
(0.23006861 -1.4186491e-06 0)
(0.13559306 -4.7660452e-07 0)
(0.067826486 -1.1275499e-07 0)
(0.019867098 -1.6280885e-08 0)
(0.019866222 1.4958903e-08 0)
(0.067823534 1.0440407e-07 0)
(0.13558725 4.4494606e-07 0)
(0.23005899 1.3285764e-06 0)
(0.35924192 3.2959852e-06 0)
(0.53105797 7.2766653e-06 0)
(0.75070459 1.4615381e-05 0)
(1.0160992 2.6612318e-05 0)
(1.3119368 4.2714244e-05 0)
(1.6050897 5.6603332e-05 0)
(1.8465596 5.3444091e-05 0)
(1.9843781 2.2471333e-05 0)
(1.9843781 -2.2470364e-05 0)
(1.8465596 -5.3443549e-05 0)
(1.6050898 -5.6603159e-05 0)
(1.3119368 -4.2714013e-05 0)
(1.0160992 -2.6612082e-05 0)
(0.7507046 -1.4616094e-05 0)
(0.53105798 -7.2795802e-06 0)
(0.35924193 -3.3013575e-06 0)
(0.23005899 -1.3352144e-06 0)
(0.13558725 -4.5090832e-07 0)
(0.067823534 -1.0806655e-07 0)
(0.019866222 -1.577518e-08 0)
(0.019865401 1.4040243e-08 0)
(0.067820765 9.7998969e-08 0)
(0.1355818 4.1767331e-07 0)
(0.23004997 1.2472261e-06 0)
(0.35922834 3.0944811e-06 0)
(0.53103902 6.8328997e-06 0)
(0.75068034 1.3727833e-05 0)
(1.016072 2.5009017e-05 0)
(1.3119132 4.0182016e-05 0)
(1.6050819 5.3360468e-05 0)
(1.8465782 5.0591976e-05 0)
(1.9844182 2.1354931e-05 0)
(1.9844182 -2.1354681e-05 0)
(1.8465782 -5.0591678e-05 0)
(1.6050819 -5.3359892e-05 0)
(1.3119132 -4.018107e-05 0)
(1.016072 -2.5008472e-05 0)
(0.75068036 -1.3729549e-05 0)
(0.53103903 -6.8387033e-06 0)
(0.35922834 -3.1042837e-06 0)
(0.23004997 -1.2586912e-06 0)
(0.1355818 -4.2761696e-07 0)
(0.067820765 -1.0399183e-07 0)
(0.019865401 -1.5363429e-08 0)
(0.019864629 1.3190842e-08 0)
(0.067818164 9.2073962e-08 0)
(0.13557669 3.9243172e-07 0)
(0.23004149 1.1719119e-06 0)
(0.35921557 2.9078745e-06 0)
(0.53102122 6.4217833e-06 0)
(0.75065754 1.2905052e-05 0)
(1.0160463 2.3520879e-05 0)
(1.311891 3.7825837e-05 0)
(1.6050743 5.0328552e-05 0)
(1.8465955 4.7891873e-05 0)
(1.9844563 2.0289528e-05 0)
(1.9844563 -2.0290005e-05 0)
(1.8465956 -4.7891797e-05 0)
(1.6050743 -5.0327542e-05 0)
(1.311891 -3.7824157e-05 0)
(1.0160463 -2.3520033e-05 0)
(0.75065755 -1.2907824e-05 0)
(0.53102123 -6.4305711e-06 0)
(0.35921558 -2.9222221e-06 0)
(0.23004149 -1.1883051e-06 0)
(0.13557669 -4.0642565e-07 0)
(0.067818165 -1.0043257e-07 0)
(0.019864629 -1.5028156e-08 0)
(0.019863904 1.2403894e-08 0)
(0.06781572 8.6582097e-08 0)
(0.13557188 3.6902285e-07 0)
(0.23003352 1.1020433e-06 0)
(0.35920357 2.7347052e-06 0)
(0.53100447 6.0401157e-06 0)
(0.75063608 1.2140751e-05 0)
(1.0160221 2.2137094e-05 0)
(1.3118699 3.5630314e-05 0)
(1.605067 4.748754e-05 0)
(1.8466118 4.5345279e-05 0)
(1.9844924 1.9276077e-05 0)
(1.9844924 -1.9277281e-05 0)
(1.8466118 -4.5345414e-05 0)
(1.605067 -4.7486095e-05 0)
(1.3118699 -3.5627907e-05 0)
(1.0160222 -2.2135966e-05 0)
(0.7506361 -1.2144606e-05 0)
(0.53100448 -6.0519062e-06 0)
(0.35920357 -2.753588e-06 0)
(0.23003352 -1.1233242e-06 0)
(0.13557188 -3.8701593e-07 0)
(0.06781572 -9.7270711e-08 0)
(0.019863904 -1.4746985e-08 0)
(0.019863222 1.1673462e-08 0)
(0.067813421 8.1481778e-08 0)
(0.13556735 3.4726954e-07 0)
(0.23002602 1.0370958e-06 0)
(0.35919227 2.5736913e-06 0)
(0.53098871 5.6851241e-06 0)
(0.75061588 1.1429478e-05 0)
(1.0159993 2.0847916e-05 0)
(1.31185 3.3580488e-05 0)
(1.6050599 4.4825888e-05 0)
(1.8466272 4.2930294e-05 0)
(1.9845267 1.8308159e-05 0)
(1.9845267 -1.8310081e-05 0)
(1.8466272 -4.293064e-05 0)
(1.60506 -4.4824029e-05 0)
(1.31185 -3.3577387e-05 0)
(1.0159994 -2.0846532e-05 0)
(0.75061589 -1.1434412e-05 0)
(0.53098872 -5.699854e-06 0)
(0.35919228 -2.5969744e-06 0)
(0.23002602 -1.0630873e-06 0)
(0.13556735 -3.6909758e-07 0)
(0.067813421 -9.4397746e-08 0)
(0.019863222 -1.4499253e-08 0)
(0.01986258 1.0994694e-08 0)
(0.067811257 7.6739447e-08 0)
(0.1355631 3.2702844e-07 0)
(0.23001896 9.7663828e-07 0)
(0.35918164 2.4237528e-06 0)
(0.53097386 5.3544128e-06 0)
(0.75059684 1.0766508e-05 0)
(1.0159779 1.964534e-05 0)
(1.3118312 3.166529e-05 0)
(1.6050532 4.2326622e-05 0)
(1.8466415 4.0655328e-05 0)
(1.984559 1.7388961e-05 0)
(1.984559 -1.7391573e-05 0)
(1.8466415 -4.0655889e-05 0)
(1.6050532 -4.2324389e-05 0)
(1.3118312 -3.1661543e-05 0)
(1.0159779 -1.9643727e-05 0)
(0.75059686 -1.0772479e-05 0)
(0.53097387 -5.3719181e-06 0)
(0.35918165 -2.4511548e-06 0)
(0.23001897 -1.0070094e-06 0)
(0.1355631 -3.5240354e-07 0)
(0.067811256 -9.1708741e-08 0)
(0.01986258 -1.426472e-08 0)
(0.019861976 1.0362939e-08 0)
(0.067809218 7.2321906e-08 0)
(0.13555908 3.081569e-07 0)
(0.23001231 9.2025061e-07 0)
(0.35917162 2.2838771e-06 0)
(0.53095987 5.0458203e-06 0)
(0.75057889 1.0147584e-05 0)
(1.0159576 1.8521506e-05 0)
(1.3118134 2.9871921e-05 0)
(1.6050467 3.9980977e-05 0)
(1.8466551 3.8492682e-05 0)
(1.9845898 1.6509936e-05 0)
(1.9845898 -1.6513188e-05 0)
(1.8466551 -3.8493453e-05 0)
(1.6050468 -3.9978415e-05 0)
(1.3118134 -2.9867586e-05 0)
(1.0159576 -1.8519685e-05 0)
(0.75057891 -1.0154501e-05 0)
(0.53095989 -5.0658351e-06 0)
(0.35917163 -2.3149712e-06 0)
(0.23001232 -9.5451862e-07 0)
(0.13555908 -3.3667023e-07 0)
(0.067809217 -8.9101414e-08 0)
(0.019861975 -1.4023837e-08 0)
(0.019861406 9.7748106e-09 0)
(0.067807297 6.8206366e-08 0)
(0.1355553 2.9055801e-07 0)
(0.23000605 8.6763544e-07 0)
(0.35916218 2.1532923e-06 0)
(0.53094669 4.75758e-06 0)
(0.75056197 9.5692027e-06 0)
(1.0159384 1.7470739e-05 0)
(1.3117966 2.8193353e-05 0)
(1.6050406 3.7775295e-05 0)
(1.8466678 3.64604e-05 0)
(1.9846189 1.5677519e-05 0)
(1.9846189 -1.5681328e-05 0)
(1.8466678 -3.6461357e-05 0)
(1.6050406 -3.7772438e-05 0)
(1.3117966 -2.8188484e-05 0)
(1.0159384 -1.7468725e-05 0)
(0.75056199 -9.5769461e-06 0)
(0.5309467 -4.7797738e-06 0)
(0.35916219 -2.1875699e-06 0)
(0.23000605 -9.0524069e-07 0)
(0.1355553 -3.2174418e-07 0)
(0.067807296 -8.6521425e-08 0)
(0.019861405 -1.3766504e-08 0)
(0.019860868 9.2260604e-09 0)
(0.067805485 6.4361887e-08 0)
(0.13555174 2.7409961e-07 0)
(0.23000014 8.184129e-07 0)
(0.35915327 2.0311201e-06 0)
(0.53093425 4.4878897e-06 0)
(0.75054599 9.0278265e-06 0)
(1.0159203 1.6486113e-05 0)
(1.3117806 2.6617137e-05 0)
(1.6050347 3.570136e-05 0)
(1.8466798 3.4521245e-05 0)
(1.9846466 1.4879573e-05 0)
(1.9846466 -1.488383e-05 0)
(1.8466798 -3.4522339e-05 0)
(1.6050347 -3.5698226e-05 0)
(1.3117806 -2.661178e-05 0)
(1.0159204 -1.6483909e-05 0)
(0.75054601 -9.0362419e-06 0)
(0.53093426 -4.5118695e-06 0)
(0.35915328 -2.0679893e-06 0)
(0.23000014 -8.5871451e-07 0)
(0.13555174 -3.074322e-07 0)
(0.067805484 -8.3905056e-08 0)
(0.019860868 -1.3481726e-08 0)
(0.019860362 8.7148456e-09 0)
(0.067803776 6.0778093e-08 0)
(0.13554838 2.5874063e-07 0)
(0.22999456 7.7244225e-07 0)
(0.35914487 1.9169251e-06 0)
(0.53092251 4.2356144e-06 0)
(0.75053092 8.5211533e-06 0)
(1.0159033 1.5564449e-05 0)
(1.3117655 2.5141199e-05 0)
(1.605029 3.3750848e-05 0)
(1.846691 3.2707256e-05 0)
(1.9846726 1.4127523e-05 0)
(1.9846726 -1.4132096e-05 0)
(1.846691 -3.2708417e-05 0)
(1.605029 -3.3747436e-05 0)
(1.3117656 -2.5135393e-05 0)
(1.0159033 -1.5562054e-05 0)
(0.75053094 -8.5300797e-06 0)
(0.53092252 -4.260978e-06 0)
(0.35914488 -1.9557895e-06 0)
(0.22999457 -8.1480201e-07 0)
(0.13554838 -2.9369957e-07 0)
(0.067803775 -8.1246727e-08 0)
(0.019860361 -1.3168773e-08 0)
(0.019859883 8.236205e-09 0)
(0.067802162 5.741766e-08 0)
(0.1355452 2.4432312e-07 0)
(0.2299893 7.2928896e-07 0)
(0.35913694 1.8097793e-06 0)
(0.53091142 3.9990109e-06 0)
(0.75051668 8.045829e-06 0)
(1.0158871 1.4698545e-05 0)
(1.3117513 2.3750808e-05 0)
(1.6050236 3.1912053e-05 0)
(1.8467017 3.0966188e-05 0)
(1.9846976 1.340342e-05 0)
(1.9846976 -1.3408173e-05 0)
(1.8467018 -3.0967336e-05 0)
(1.6050237 -3.1908349e-05 0)
(1.3117513 -2.3744586e-05 0)
(1.0158871 -1.4695959e-05 0)
(0.75051669 -8.0551082e-06 0)
(0.53091143 -4.0253652e-06 0)
(0.35913694 -1.8500612e-06 0)
(0.2299893 -7.7309374e-07 0)
(0.1355452 -2.8041211e-07 0)
(0.067802161 -7.8524335e-08 0)
(0.019859883 -1.2826221e-08 0)
(0.019859432 7.7913465e-09 0)
(0.067800641 5.4294797e-08 0)
(0.13554221 2.3091398e-07 0)
(0.22998433 6.8910381e-07 0)
(0.35912945 1.7098328e-06 0)
(0.53090097 3.7779432e-06 0)
(0.75050324 7.6013455e-06 0)
(1.0158719 1.3889089e-05 0)
(1.3117378 2.245202e-05 0)
(1.6050185 3.0187431e-05 0)
(1.8467117 2.9351046e-05 0)
(1.9847209 1.2726589e-05 0)
(1.9847209 -1.2731402e-05 0)
(1.8467117 -2.9352107e-05 0)
(1.6050185 -3.0183426e-05 0)
(1.3117378 -2.2445426e-05 0)
(1.0158719 -1.3886324e-05 0)
(0.75050326 -7.6108355e-06 0)
(0.53090098 -3.8049203e-06 0)
(0.35912946 -1.7509859e-06 0)
(0.22998433 -7.3377167e-07 0)
(0.1355422 -2.676608e-07 0)
(0.067800639 -7.5766229e-08 0)
(0.019859431 -1.2458375e-08 0)
(0.019859004 7.3720553e-09 0)
(0.067799199 5.1345206e-08 0)
(0.13553937 2.1824028e-07 0)
(0.22997963 6.511644e-07 0)
(0.35912236 1.6156708e-06 0)
(0.53089106 3.5700651e-06 0)
(0.75049051 7.1834688e-06 0)
(1.0158574 1.312633e-05 0)
(1.3117249 2.1223038e-05 0)
(1.6050136 2.8554234e-05 0)
(1.8467213 2.778675e-05 0)
(1.9847434 1.2069957e-05 0)
(1.9847434 -1.2074745e-05 0)
(1.8467213 -2.7787678e-05 0)
(1.6050136 -2.8549941e-05 0)
(1.311725 -2.1216132e-05 0)
(1.0158575 -1.3123416e-05 0)
(0.75049052 -7.1930531e-06 0)
(0.53089107 -3.5973394e-06 0)
(0.35912237 -1.657206e-06 0)
(0.22997963 -6.9617172e-07 0)
(0.13553937 -2.5521848e-07 0)
(0.067799198 -7.2933735e-08 0)
(0.019859004 -1.2062468e-08 0)
(0.019858602 6.9882797e-09 0)
(0.067797843 4.8650811e-08 0)
(0.1355367 2.0665707e-07 0)
(0.2299752 6.1638441e-07 0)
(0.35911569 1.5289355e-06 0)
(0.53088174 3.3776756e-06 0)
(0.75047853 6.7957794e-06 0)
(1.0158439 1.2419191e-05 0)
(1.3117129 2.008621e-05 0)
(1.605009 2.7037933e-05 0)
(1.8467301 2.6358685e-05 0)
(1.9847642 1.1465715e-05 0)
(1.9847642 -1.147045e-05 0)
(1.8467301 -2.6359482e-05 0)
(1.605009 -2.703341e-05 0)
(1.3117129 -2.0079095e-05 0)
(1.0158439 -1.2416187e-05 0)
(0.75047854 -6.8053665e-06 0)