/*--------------------------------*- C++ -*----------------------------------*\
| =========                 |                                                 |
| \\      /  F ield         | OpenFOAM: The Open Source CFD Toolbox           |
|  \\    /   O peration     | Version:  2406                                  |
|   \\  /    A nd           | Website:  www.openfoam.com                      |
|    \\/     M anipulation  |                                                 |
\*---------------------------------------------------------------------------*/
FoamFile
{
    version     2.0;
    format      ascii;
    arch        "LSB;label=32;scalar=64";
    class       volScalarField;
    location    "29";
    object      p;
}
// * * * * * * * * * * * * * * * * * * * * * * * * * * * * * * * * * * * * * //

dimensions      [0 2 -2 0 0 0 0];

internalField   nonuniform List<scalar> 
1176
(
0.79699976
0.79702263
0.7970463
0.79705396
0.79702243
0.79692774
0.79677051
0.79658434
0.79640514
0.79623799
0.79608337
0.79598776
0.79598776
0.79608336
0.79623797
0.7964051
0.79658425
0.79677037
0.79692753
0.79702215
0.79705358
0.79704582
0.79702207
0.79699914
0.77385133
0.77380437
0.77375662
0.77373972
0.77380222
0.77400458
0.7743699
0.7748343
0.77526516
0.77555126
0.77567066
0.77570492
0.77570492
0.77567067
0.77555129
0.77526521
0.77483439
0.77437002
0.77400475
0.77380243
0.77373998
0.77375692
0.77380471
0.77385169
0.75676658
0.75678859
0.75680838
0.75680647
0.75674741
0.75658624
0.75631447
0.75598652
0.75568031
0.75546752
0.75535672
0.7553079
0.75530789
0.75535671
0.7554675
0.75568028
0.75598648
0.75631442
0.75658618
0.75674735
0.75680641
0.75680832
0.75678852
0.75676651
0.74009468
0.74010381
0.74011587
0.74013227
0.74015481
0.74017238
0.74014015
0.74000674
0.73977463
0.73950206
0.73927786
0.73915736
0.73915736
0.73927786
0.73950206
0.73977463
0.74000674
0.74014015
0.74017238
0.7401548
0.74013224
0.74011582
0.74010376
0.74009462
0.72367563
0.72367959
0.72368458
0.72369064
0.72370034
0.72372062
0.7237568
0.72379831
0.72381998
0.72379611
0.723734
0.72368136
0.72368136
0.723734
0.72379612
0.72381999
0.72379832
0.72375681
0.72372063
0.72370036
0.72369065
0.72368459
0.7236796
0.72367565
0.70721398
0.70721639
0.70721964
0.70722368
0.70722859
0.70723542
0.70724959
0.70728091
0.70733089
0.70738814
0.70743085
0.70744751
0.70744751
0.70743085
0.70738815
0.7073309
0.70728091
0.70724959
0.70723543
0.70722859
0.70722368
0.70721964
0.7072164
0.70721399
0.69080817
0.69081031
0.69081312
0.69081654
0.69082044
0.69082396
0.69082602
0.6908282
0.69083675
0.69085398
0.69087188
0.69088359
0.69088359
0.69087188
0.69085398
0.69083675
0.6908282
0.69082602
0.69082396
0.69082044
0.69081655
0.69081312
0.69081031
0.69080818
0.6744283
0.67443006
0.67443239
0.67443531
0.67443898
0.67444335
0.67444781
0.67445096
0.6744522
0.67445382
0.67445086
0.67444835
0.67444835
0.67445086
0.67445382
0.6744522
0.67445096
0.67444781
0.67444336
0.67443899
0.67443531
0.67443239
0.67443006
0.67442831
0.65807402
0.65807547
0.6580774
0.65807981
0.65808283
0.65808662
0.65809166
0.65809871
0.65810739
0.65811742
0.65812519
0.65812878
0.65812878
0.65812519
0.65811742
0.65810739
0.65809871
0.65809166
0.65808662
0.65808283
0.65807981
0.6580774
0.65807547
0.65807401
0.64173633
0.64173753
0.64173914
0.64174117
0.64174374
0.64174692
0.64175108
0.64175747
0.64176763
0.64178076
0.64179509
0.64180439
0.64180439
0.64179509
0.64178076
0.64176763
0.64175747
0.64175108
0.64174692
0.64174374
0.64174117
0.64173912
0.64173751
0.6417363
0.62541195
0.62541298
0.62541435
0.6254161
0.62541831
0.62542103
0.62542443
0.62542928
0.62543714
0.6254478
0.62546036
0.6254695
0.6254695
0.62546036
0.6254478
0.62543714
0.62542928
0.62542443
0.62542103
0.62541831
0.62541608
0.62541433
0.62541295
0.62541191
0.60909847
0.60909937
0.60910056
0.60910209
0.60910403
0.60910643
0.60910939
0.6091134
0.60911962
0.60912828
0.60913884
0.60914629
0.60914629
0.60913884
0.60912828
0.60911962
0.60911341
0.6091094
0.60910643
0.60910402
0.60910207
0.60910054
0.60909933
0.60909842
0.59279428
0.59279507
0.59279612
0.59279747
0.59279919
0.59280132
0.59280396
0.5928075
0.5928129
0.59282064
0.59283033
0.59283701
0.59283701
0.59283034
0.59282065
0.5928129
0.5928075
0.59280396
0.59280132
0.59279918
0.59279745
0.59279609
0.59279502
0.59279422
0.57649806
0.57649876
0.5764997
0.5765009
0.57650244
0.57650435
0.57650669
0.57650983
0.5765146
0.57652157
0.57653024
0.57653633
0.57653633
0.57653024
0.57652158
0.57651461
0.57650984
0.5765067
0.57650435
0.57650243
0.57650088
0.57649966
0.5764987
0.57649799
0.56020879
0.56020942
0.56021027
0.56021135
0.56021273
0.56021445
0.56021655
0.56021931
0.56022347
0.5602296
0.56023713
0.56024253
0.56024253
0.56023713
0.5602296
0.56022348
0.56021932
0.56021655
0.56021445
0.56021272
0.56021132
0.56021022
0.56020936
0.56020871
0.54392567
0.54392624
0.543927
0.54392798
0.54392924
0.54393079
0.54393269
0.54393514
0.54393878
0.54394415
0.54395069
0.54395548
0.54395548
0.54395069
0.54394416
0.54393879
0.54393515
0.54393269
0.54393079
0.54392922
0.54392795
0.54392695
0.54392617
0.54392558
0.52764804
0.52764856
0.52764926
0.52765015
0.52765129
0.52765271
0.52765443
0.52765663
0.52765985
0.52766462
0.52767034
0.52767463
0.52767463
0.52767034
0.52766462
0.52765986
0.52765664
0.52765444
0.52765271
0.52765128
0.52765011
0.5276492
0.52764848
0.52764795
0.51137537
0.51137584
0.51137647
0.51137729
0.51137834
0.51137964
0.51138121
0.5113832
0.51138607
0.51139032
0.51139537
0.51139924
0.51139923
0.51139537
0.51139032
0.51138608
0.51138321
0.51138121
0.51137963
0.51137832
0.51137725
0.51137641
0.51137575
0.51137526
0.49510717
0.4951076
0.49510819
0.49510894
0.4951099
0.49511109
0.49511253
0.49511434
0.49511692
0.49512072
0.49512522
0.49512871
0.49512871
0.49512522
0.49512073
0.49511693
0.49511435
0.49511254
0.49511109
0.49510988
0.4951089
0.49510812
0.49510751
0.49510705
0.47884306
0.47884346
0.478844
0.47884469
0.47884558
0.47884668
0.478848
0.47884965
0.47885197
0.4788554
0.47885943
0.47886259
0.47886259
0.47885943
0.4788554
0.47885198
0.47884966
0.47884801
0.47884668
0.47884556
0.47884464
0.47884392
0.47884335
0.47884293
0.46258269
0.46258306
0.46258355
0.46258419
0.46258502
0.46258603
0.46258726
0.46258877
0.46259087
0.46259397
0.46259761
0.46260048
0.46260048
0.46259761
0.46259397
0.46259088
0.46258878
0.46258727
0.46258603
0.46258499
0.46258414
0.46258347
0.46258294
0.46258254
0.44632575
0.4463261
0.44632656
0.44632715
0.44632791
0.44632886
0.44632999
0.44633138
0.44633329
0.44633611
0.44633943
0.44634204
0.44634203
0.44633943
0.44633612
0.44633331
0.4463314
0.44633
0.44632885
0.44632789
0.44632709
0.44632646
0.44632597
0.4463256
0.43007199
0.43007231
0.43007273
0.43007329
0.43007399
0.43007487
0.43007592
0.43007721
0.43007896
0.43008153
0.43008456
0.43008695
0.43008694
0.43008456
0.43008153
0.43007897
0.43007723
0.43007594
0.43007487
0.43007397
0.43007322
0.43007263
0.43007216
0.43007181
0.41382115
0.41382145
0.41382185
0.41382236
0.41382302
0.41382384
0.41382482
0.41382601
0.41382761
0.41382997
0.41383275
0.41383494
0.41383494
0.41383275
0.41382998
0.41382763
0.41382603
0.41382483
0.41382384
0.41382299
0.41382229
0.41382174
0.41382129
0.41382097
0.39757303
0.39757331
0.39757368
0.39757416
0.39757478
0.39757554
0.39757646
0.39757756
0.39757904
0.3975812
0.39758377
0.39758578
0.39758578
0.39758377
0.39758121
0.39757906
0.39757758
0.39757647
0.39757554
0.39757475
0.39757409
0.39757356
0.39757315
0.39757283
0.38132744
0.3813277
0.38132805
0.3813285
0.38132907
0.38132979
0.38133064
0.38133167
0.38133303
0.38133503
0.3813374
0.38133925
0.38133925
0.3813374
0.38133503
0.38133305
0.38133169
0.38133066
0.38132978
0.38132904
0.38132842
0.38132792
0.38132752
0.38132723
0.3650842
0.36508444
0.36508477
0.36508519
0.36508573
0.36508639
0.36508719
0.36508815
0.36508941
0.36509126
0.36509346
0.36509517
0.36509517
0.36509346
0.36509127
0.36508943
0.36508817
0.36508721
0.36508639
0.36508569
0.3650851
0.36508463
0.36508426
0.36508398
0.34884315
0.34884337
0.34884368
0.34884407
0.34884458
0.34884521
0.34884595
0.34884685
0.34884802
0.34884973
0.34885178
0.34885336
0.34885336
0.34885178
0.34884974
0.34884804
0.34884687
0.34884597
0.3488452
0.34884454
0.34884399
0.34884354
0.34884318
0.34884292
0.33260414
0.33260436
0.33260464
0.33260501
0.33260549
0.33260608
0.33260678
0.33260761
0.33260871
0.33261029
0.3326122
0.33261366
0.33261366
0.3326122
0.3326103
0.33260873
0.33260764
0.33260679
0.33260607
0.33260545
0.33260492
0.3326045
0.33260416
0.33260391
0.31636705
0.31636725
0.31636752
0.31636787
0.31636832
0.31636887
0.31636953
0.31637031
0.31637133
0.3163728
0.31637459
0.31637594
0.31637594
0.31637458
0.31637281
0.31637135
0.31637033
0.31636954
0.31636886
0.31636827
0.31636778
0.31636738
0.31636706
0.31636682
0.30013176
0.30013194
0.3001322
0.30013252
0.30013294
0.30013346
0.30013408
0.30013481
0.30013577
0.30013714
0.30013881
0.30014007
0.30014007
0.30013881
0.30013715
0.30013579
0.30013484
0.3001341
0.30013346
0.3001329
0.30013243
0.30013206
0.30013175
0.30013153
0.28389814
0.28389832
0.28389856
0.28389886
0.28389926
0.28389975
0.28390033
0.28390102
0.28390191
0.28390319
0.28390475
0.28390593
0.28390592
0.28390474
0.28390319
0.28390193
0.28390104
0.28390034
0.28389974
0.28389922
0.28389878
0.28389842
0.28389813
0.28389792
0.2676661
0.26766627
0.26766649
0.26766678
0.26766715
0.26766761
0.26766816
0.26766881
0.26766964
0.26767084
0.2676723
0.2676734
0.2676734
0.2676723
0.26767084
0.26766966
0.26766883
0.26766817
0.26766761
0.26766711
0.2676667
0.26766637
0.2676661
0.2676659
0.25143554
0.2514357
0.25143591
0.25143618
0.25143653
0.25143697
0.25143748
0.25143809
0.25143887
0.25143999
0.25144136
0.25144239
0.25144239
0.25144136
0.25143999
0.25143889
0.25143811
0.25143749
0.25143696
0.2514365
0.25143611
0.2514358
0.25143555
0.25143537
0.23520638
0.23520652
0.23520672
0.23520698
0.23520731
0.23520772
0.2352082
0.23520878
0.23520951
0.23521056
0.23521185
0.23521281
0.23521281
0.23521185
0.23521056
0.23520952
0.23520879
0.23520821
0.23520771
0.23520728
0.23520692
0.23520663
0.23520641
0.23520624
0.21897852
0.21897866
0.21897885
0.21897909
0.2189794
0.21897979
0.21898025
0.21898079
0.21898147
0.21898245
0.21898366
0.21898456
0.21898456
0.21898366
0.21898245
0.21898148
0.2189808
0.21898025
0.21897978
0.21897938
0.21897905
0.21897879
0.21897858
0.21897843
0.2027519
0.20275203
0.20275221
0.20275243
0.20275273
0.20275309
0.20275352
0.20275403
0.20275468
0.2027556
0.20275675
0.20275759
0.20275759
0.20275674
0.2027556
0.20275468
0.20275404
0.20275353
0.20275309
0.20275271
0.20275241
0.20275218
0.202752
0.20275186
0.18652644
0.18652656
0.18652673
0.18652694
0.18652722
0.18652757
0.18652797
0.18652845
0.18652906
0.18652992
0.18653099
0.18653178
0.18653178
0.18653098
0.18652992
0.18652906
0.18652845
0.18652797
0.18652756
0.18652722
0.18652695
0.18652674
0.18652659
0.18652647
0.17030207
0.17030219
0.17030234
0.17030255
0.17030281
0.17030313
0.17030352
0.17030397
0.17030454
0.17030536
0.17030637
0.17030711
0.17030711
0.17030636
0.17030535
0.17030453
0.17030396
0.17030351
0.17030313
0.17030282
0.17030258
0.17030241
0.17030228
0.17030219
0.15407874
0.15407885
0.154079
0.15407919
0.15407944
0.15407974
0.15408011
0.15408053
0.15408107
0.15408183
0.15408277
0.15408346
0.15408346
0.15408276
0.15408182
0.15408106
0.15408051
0.15408009
0.15407974
0.15407946
0.15407926
0.15407912
0.15407902
0.15407896
0.13785637
0.13785648
0.13785662
0.1378568
0.13785703
0.13785732
0.13785767
0.13785807
0.13785857
0.13785929
0.13786018
0.13786084
0.13786083
0.13786017
0.13785927
0.13785855
0.13785804
0.13785764
0.13785732
0.13785708
0.13785691
0.13785681
0.13785675
0.13785671
0.12163494
0.12163504
0.12163517
0.12163535
0.12163557
0.12163584
0.12163617
0.12163654
0.12163701
0.12163767
0.12163849
0.12163908
0.12163908
0.12163848
0.12163765
0.12163698
0.1216365
0.12163613
0.12163584
0.12163563
0.12163551
0.12163544
0.12163542
0.1216354
0.10541436
0.10541445
0.10541458
0.10541474
0.10541495
0.10541521
0.10541552
0.10541587
0.10541631
0.10541693
0.10541769
0.10541825
0.10541825
0.10541768
0.1054169
0.10541627
0.10541581
0.10541547
0.10541522
0.10541504
0.10541495
0.10541493
0.10541494
0.10541496
0.089194643
0.089194732
0.089194852
0.089195007
0.089195205
0.08919545
0.089195737
0.089196068
0.089196471
0.089197012
0.089197667
0.089198136
0.089198135
0.089197659
0.089196984
0.089196417
0.089196
0.089195688
0.089195462
0.089195323
0.089195271
0.089195288
0.089195336
0.089195379
0.072975637
0.072975721
0.072975834
0.07297598
0.072976169
0.072976403
0.07297668
0.072976994
0.072977371
0.072977867
0.072978453
0.072978855
0.072978855
0.072978446
0.072977835
0.072977306
0.072976914
0.072976623
0.072976423
0.072976314
0.072976298
0.072976352
0.072976434
0.072976502
0.056757517
0.056757598
0.056757707
0.056757846
0.056758023
0.056758239
0.056758491
0.056758775
0.056759095
0.056759471
0.056759852
0.056760072
0.056760074
0.056759848
0.056759438
0.056759022
0.056758684
0.056758429
0.056758263
0.056758187
0.056758199
0.056758276
0.056758375
0.056758456
0.040539731
0.040539802
0.0405399
0.040540031
0.040540207
0.040540431
0.040540696
0.040540986
0.040541311
0.040541718
0.04054219
0.040542506
0.040542511
0.040542191
0.040541685
0.040541233
0.040540889
0.040540631
0.040540457
0.040540377
0.040540389
0.040540468
0.04054057
0.040540652
0.024323462
0.024323545
0.024323653
0.024323781
0.024323928
0.024324089
0.024324261
0.024324443
0.024324607
0.024324684
0.024324601
0.02432438
0.024324387
0.024324608
0.024324657
0.024324533
0.024324349
0.024324201
0.024324118
0.024324089
0.024324104
0.02432415
0.024324202
0.024324239
0.008105369
0.0081054391
0.0081055318
0.008105653
0.0081058136
0.0081060129
0.0081062329
0.0081064709
0.0081068469
0.0081076813
0.0081091615
0.0081105363
0.0081105429
0.0081091715
0.0081076708
0.0081068027
0.0081064084
0.0081061891
0.0081060261
0.0081059124
0.0081058552
0.0081058413
0.0081058446
0.0081058456
)
;

boundaryField
{
    INLET
    {
        type            zeroGradient;
    }
    OUTLET
    {
        type            fixedValue;
        value           uniform 0;
    }
    WALL
    {
        type            zeroGradient;
    }
    frontAndBackPlanes
    {
        type            empty;
    }
}


// ************************************************************************* //
