/*--------------------------------*- C++ -*----------------------------------*\
| =========                 |                                                 |
| \\      /  F ield         | OpenFOAM: The Open Source CFD Toolbox           |
|  \\    /   O peration     | Version:  2406                                  |
|   \\  /    A nd           | Website:  www.openfoam.com                      |
|    \\/     M anipulation  |                                                 |
\*---------------------------------------------------------------------------*/
FoamFile
{
    version     2.0;
    format      ascii;
    arch        "LSB;label=32;scalar=64";
    class       surfaceScalarField;
    location    "29";
    object      phi;
}
// * * * * * * * * * * * * * * * * * * * * * * * * * * * * * * * * * * * * * //

dimensions      [0 3 -1 0 0 0 0];

oriented        oriented;

internalField   nonuniform List<scalar> 
2279
(
2.3617575e-08
1.0148926e-05
2.0509783e-07
4.982375e-05
6.9331788e-07
0.00014252872
1.5784718e-06
0.00034353082
2.6788478e-06
0.00075378089
3.347291e-06
0.0015415573
3.0435189e-06
0.0029497096
2.1516824e-06
0.005249171
1.4318015e-06
0.008582269
9.8958953e-07
0.012685995
5.1266556e-07
0.016666385
9.3036705e-13
0.01918202
-5.126572e-07
0.01918202
-9.8955923e-07
0.016666385
-1.4317259e-06
0.012685995
-2.1515403e-06
0.0085822689
-3.0432801e-06
0.0052491709
-3.3469167e-06
0.0029497095
-2.678319e-06
0.0015415572
-1.5778732e-06
0.00075378075
-6.9277995e-07
0.00034353073
-2.0474835e-07
0.00014252867
-2.3463065e-08
4.9823727e-05
1.014892e-05
-9.5248338e-08
1.0244175e-05
-5.3793981e-07
5.0266441e-05
-1.6230008e-06
0.00014361378
-3.5389522e-06
0.00034544677
-5.9201868e-06
0.00075616213
-7.4055035e-06
0.0015430426
-6.5847295e-06
0.0029488888
-3.936163e-06
0.0052465224
-1.388393e-06
0.0085797213
-6.5123308e-08
0.012684671
2.424022e-07
0.016666078
-6.2922001e-12
0.019182263
-2.4241596e-07
0.019182263
6.5103264e-08
0.016666078
1.3883564e-06
0.012684671
3.9361013e-06
0.0085797214
6.5846304e-06
0.0052465225
7.4053444e-06
0.0029488889
5.9199536e-06
0.0015430427
3.538693e-06
0.00075616219
1.6227887e-06
0.00034544681
5.3781731e-07
0.0001436138
9.5203503e-08
5.0266447e-05
1.0244176e-05
5.0139999e-08
1.0194035e-05
2.6334531e-07
5.0053236e-05
7.491076e-07
0.00014312802
1.5314587e-06
0.00034466442
2.3366554e-06
0.00075535693
2.5476607e-06
0.0015428316
1.8390935e-06
0.0029495974
9.7567064e-07
0.0052473858
6.7695315e-07
0.00858002
6.7178071e-07
0.012684677
4.8415834e-07
0.016666266
-5.2574263e-12
0.019182747
-4.8416977e-07
0.019182747
-6.7179428e-07
0.016666266
-6.7696665e-07
0.012684677
-9.7567786e-07
0.0085800199
-1.8390869e-06
0.0052473858
-2.5476392e-06
0.0029495974
-2.3366248e-06
0.0015428316
-1.5314261e-06
0.00075535692
-7.4908599e-07
0.00034466442
-2.6333572e-07
0.00014312802
-5.0138225e-08
5.0053238e-05
1.0194035e-05
1.9586878e-08
1.0174448e-05
1.1184956e-07
4.9960974e-05
3.6128465e-07
0.00014287858
9.0504795e-07
0.00034412066
1.8716595e-06
0.00075439032
3.094822e-06
0.0015416085
3.8987207e-06
0.0029487935
3.7285499e-06
0.005247556
2.9242036e-06
0.0085808243
1.973367e-06
0.012685627
1.0127648e-06
0.016667226
-9.9588559e-13
0.01918376
-1.0127645e-06
0.01918376
-1.9733616e-06
0.016667226
-2.9241913e-06
0.012685627
-3.7285288e-06
0.0085808243
-3.8986905e-06
0.005247556
-3.0947748e-06
0.0029487935
-1.8715922e-06
0.0015416085
-9.0497334e-07
0.00075439031
-3.6122009e-07
0.00034412066
-1.1180822e-07
0.00014287858
-1.9568543e-08
4.9960973e-05
1.0174448e-05
8.0841736e-09
1.0166364e-05
4.7141942e-08
4.9921916e-05
1.5494751e-07
0.00014277078
3.9846363e-07
0.00034387714
8.7979455e-07
0.00075390899
1.7015152e-06
0.0015407867
2.7512724e-06
0.0029477437
3.4623568e-06
0.0052468449
3.4708554e-06
0.0085808158
2.8006793e-06
0.012686298
1.5505084e-06
0.016668476
-4.9265587e-12
0.01918531
-1.5505194e-06
0.01918531
-2.8006945e-06
0.016668476
-3.4708764e-06
0.012686298
-3.4623758e-06
0.0085808158
-2.7512869e-06
0.0052468449
-1.7015259e-06
0.0029477437
-8.7980239e-07
0.0015407868
-3.9847044e-07
0.00075390899
-1.5495304e-07
0.00034387714
-4.7145205e-08
0.00014277078
-8.0853104e-09
4.9921916e-05
1.0166364e-05
4.936112e-09
1.0161429e-05
2.8699332e-08
4.9898153e-05
9.5122077e-08
0.00014270436
2.4921487e-07
0.00034372305
5.6360943e-07
0.00075359459
1.121374e-06
0.001540229
1.9184554e-06
0.0029469467
2.6588168e-06
0.0052461046
2.8930538e-06
0.0085805816
2.4787609e-06
0.012686712
1.4344212e-06
0.016669521
-4.2291633e-12
0.019186745
-1.4344317e-06
0.019186745
-2.4787756e-06
0.016669521
-2.8930688e-06
0.012686712
-2.6588289e-06
0.0085805816
-1.9184631e-06
0.0052461046
-1.1213801e-06
0.0029469467
-5.6361644e-07
0.001540229
-2.4922382e-07
0.00075359459
-9.5131399e-08
0.00034372305
-2.8706338e-08
0.00014270436
-4.9397322e-09
4.9898153e-05
1.0161429e-05
4.4124731e-09
1.0157016e-05
2.5525876e-08
4.987704e-05
8.3830324e-08
0.00014264605
2.1689416e-07
0.00034358999
4.8450074e-07
0.00075332698
9.5635981e-07
0.0015397571
1.6413718e-06
0.0029462616
2.3245794e-06
0.0052454214
2.5939495e-06
0.0085803122
2.2393592e-06
0.012687066
1.3066706e-06
0.016670453
-2.2680056e-12
0.019188051
-1.3066766e-06
0.019188051
-2.2393671e-06
0.016670453
-2.5939559e-06
0.012687066
-2.3245829e-06
0.0085803122
-1.6413746e-06
0.0052454214
-9.5636473e-07
0.0029462616
-4.8450804e-07
0.0015397571
-2.1690217e-07
0.00075332698
-8.3836928e-08
0.00034358998
-2.5530025e-08
0.00014264605
-4.4143567e-09
4.987704e-05
1.0157016e-05
3.6255289e-09
1.0153391e-05
2.1036536e-08
4.9859629e-05
6.9437954e-08
0.00014259765
1.8114113e-07
0.00034347828
4.0971375e-07
0.00075309841
8.2390297e-07
0.0015393429
1.4539911e-06
0.0029456316
2.1430738e-06
0.0052447323
2.4674712e-06
0.0085799878
2.1883917e-06
0.012687346
1.2866417e-06
0.016671355
-4.4754318e-13
0.019189338
-1.2866435e-06
0.019189338
-2.1883944e-06
0.016671355
-2.4674729e-06
0.012687346
-2.1430751e-06
0.0085799878
-1.4539941e-06
0.0052447323
-8.2390734e-07
0.0029456316
-4.0971781e-07
0.0015393429
-1.8114277e-07
0.00075309841
-6.943683e-08
0.00034347828
-2.1034416e-08
0.00014259765
-3.6240262e-09
4.9859629e-05
1.0153391e-05
2.9830711e-09
1.0150408e-05
1.7346864e-08
4.9845265e-05
5.7377062e-08
0.00014255762
1.5007352e-07
0.00034338559
3.4097078e-07
0.00075290751
6.9193142e-07
0.001538992
1.2441084e-06
0.0029450794
1.9041857e-06
0.0052440722
2.3016004e-06
0.0085795904
2.0975084e-06
0.01268755
1.2520112e-06
0.016672201
8.1991003e-13
0.01919059
-1.2520098e-06
0.01919059
-2.0975072e-06
0.016672201
-2.3015996e-06
0.01268755
-1.9041866e-06
0.0085795904
-1.2441102e-06
0.0052440722
-6.9193054e-07
0.0029450794
-3.409639e-07
0.001538992
-1.5006015e-07
0.00075290751
-5.7360913e-08
0.00034338559
-1.7333902e-08
0.00014255762
-2.976186e-09
4.9845265e-05
1.0150408e-05
2.4654063e-09
1.0147942e-05
1.4363096e-08
4.9833367e-05
4.7626487e-08
0.00014252436
1.2502876e-07
0.00034330818
2.8558911e-07
0.00075274695
5.8417974e-07
0.0015386934
1.0641849e-06
0.0029445994
1.6641587e-06
0.0052434722
2.0898757e-06
0.0085791647
1.952896e-06
0.012687687
1.1802464e-06
0.016672973
1.567569e-12
0.01919177
-1.1802433e-06
0.01919177
-1.9528932e-06
0.016672973
-2.0898743e-06
0.012687687
-1.6641601e-06
0.0085791647
-1.0641853e-06
0.0052434722
-5.8417236e-07
0.0029445994
-2.8556959e-07
0.0015386934
-1.2499873e-07
0.00075274695
-4.7594042e-08
0.00034330818
-1.4338513e-08
0.00014252436
-2.4527826e-09
4.9833367e-05
1.0147942e-05
2.1025332e-09
1.014584e-05
1.2258271e-08
4.9823212e-05
4.0688638e-08
0.00014249593
1.0699074e-07
0.00034324188
2.4507912e-07
0.00075260886
5.0385373e-07
0.0015384346
9.2623568e-07
0.002944177
1.4715125e-06
0.0052429269
1.8909102e-06
0.0085787453
1.8050247e-06
0.012687772
1.1036921e-06
0.016673675
1.7528169e-12
0.019192874
-1.1036887e-06
0.019192874
-1.8050222e-06
0.016673675
-1.8909106e-06
0.012687772
-1.4715159e-06
0.0085787453
-9.2623545e-07
0.0052429269
-5.0384038e-07
0.002944177
-2.450477e-07
0.0015384346
-1.0694511e-07
0.00075260886
-4.0641008e-08
0.00034324188
-1.2222897e-08
0.00014249593
-2.0845883e-09
4.9823212e-05
1.014584e-05
1.8284276e-09
1.0144011e-05
1.0665928e-08
4.9814374e-05
3.5430992e-08
0.00014247116
9.3283867e-08
0.00034318403
2.1414004e-07
0.00075248801
4.4192838e-07
0.0015382068
8.1811442e-07
0.0029438008
1.3163819e-06
0.0052424287
1.7244957e-06
0.0085783372
1.6780449e-06
0.012687819
1.0378066e-06
0.016674315
1.6908037e-12
0.019193912
-1.0378036e-06
0.019193912
-1.678044e-06
0.016674315
-1.7244992e-06
0.012687819
-1.3163881e-06
0.0085783372
-8.1811424e-07
0.0052424287
-4.4190996e-07
0.0029438008
-2.1409803e-07
0.0015382068
-9.3224245e-08
0.00075248801
-3.5369746e-08
0.00034318403
-1.0620888e-08
0.00014247116
-1.8057229e-09
4.9814375e-05
1.0144011e-05
1.6107463e-09
1.0142401e-05
9.4002202e-09
4.9806585e-05
3.1245256e-08
0.00014244932
8.2341366e-08
0.00034313293
1.8932156e-07
0.00075238103
3.9182371e-07
0.0015380043
7.2924215e-07
0.0029434634
1.1851466e-06
0.0052419728
1.5781768e-06
0.0085779441
1.5623412e-06
0.012687835
9.767e-07
0.0166749
1.4943882e-12
0.019194888
-9.766979e-07
0.019194888
-1.5623427e-06
0.0166749
-1.5781841e-06
0.012687835
-1.1851562e-06
0.0085779441
-7.2924256e-07
0.0052419728
-3.9180121e-07
0.0029434634
-1.8927052e-07
0.0015380043
-8.2269648e-08
0.00075238103
-3.1172144e-08
0.00034313293
-9.3467208e-09
0.00014244932
-1.5838645e-09
4.9806585e-05
1.0142401e-05
1.4325728e-09
1.0140969e-05
8.3635667e-09
4.9799655e-05
2.7813424e-08
0.00014242987
7.3353675e-08
0.00034308739
1.6886955e-07
0.00075228551
3.5026858e-07
0.0015378229
6.5458352e-07
0.0029431591
1.0720599e-06
0.0052415553
1.4464345e-06
0.0085775698
1.4548777e-06
0.012687826
9.188111e-07
0.016675437
1.2520177e-12
0.019195807
-9.1881013e-07
0.019195807
-1.454882e-06
0.016675437
-1.4464459e-06
0.012687826
-1.072073e-06
0.0085775698
-6.5458481e-07
0.0052415553
-3.5024276e-07
0.0029431591
-1.6881078e-07
0.0015378229
-7.3271402e-08
0.00075228551
-2.772984e-08
0.00034308739
-8.3025459e-09
0.00014242987
-1.4019582e-09
4.9799655e-05
1.0140969e-05
1.285209e-09
1.0139684e-05
7.5055118e-09
4.9793434e-05
2.4969464e-08
0.0001424124
6.5891779e-08
0.00034304647
1.518386e-07
0.00075219957
3.1548577e-07
0.0015376593
5.9149699e-07
0.0029428831
9.7478738e-07
0.005241172
1.3297053e-06
0.0085772149
1.3567881e-06
0.012687799
8.6525346e-07
0.016675928
1.0832593e-12
0.019196672
-8.6525359e-07
0.019196672
-1.3567953e-06
0.016675928
-1.3297206e-06
0.012687799
-9.7480371e-07
0.0085772149
-5.9149915e-07
0.005241172
-3.1545703e-07
0.0029428831
-1.517728e-07
0.0015376593
-6.5799754e-08
0.00075219956
-2.4876084e-08
0.00034304647
-7.4373957e-09
0.0001424124
-1.2510528e-09
4.9793435e-05
1.0139684e-05
1.1616087e-09
1.0138522e-05
6.7854471e-09
4.9787811e-05
2.2580779e-08
0.00014239661
5.9615692e-08
0.00034300944
1.3748128e-07
0.0007521217
2.8604676e-07
0.0015375107
5.3771111e-07
0.0029426314
8.9070612e-07
0.005240819
1.2263979e-06
0.0085768792
1.2674904e-06
0.012687758
8.1592813e-07
0.01667638
1.0444057e-12
0.019197488
-8.1592913e-07
0.019197488
-1.2675e-06
0.01667638
-1.2264165e-06
0.012687758
-8.9072527e-07
0.0085768792
-5.3771398e-07
0.005240819
-2.8601512e-07
0.0029426314
-1.3740854e-07
0.0015375107
-5.951391e-08
0.0007521217
-2.2477495e-08
0.00034300943
-6.7101071e-09
0.00014239661
-1.1238292e-09
4.9787811e-05
1.0138522e-05
1.0561707e-09
1.0137466e-05
6.1710069e-09
4.9782696e-05
2.0541322e-08
0.00014238224
5.4251978e-08
0.00034297572
1.251905e-07
0.00075205076
2.6076763e-07
0.0015373751
4.9125137e-07
0.0029424009
8.1722475e-07
0.005240493
1.1341833e-06
0.0085765622
1.185791e-06
0.012687707
7.7021625e-07
0.016676795
1.1268625e-12
0.019198259
-7.7021778e-07
0.019198259
-1.1858026e-06
0.016676795
-1.1342047e-06
0.012687707
-8.172464e-07
0.0085765622
-4.9125478e-07
0.005240493
-2.6073286e-07
0.0029424009
-1.2511033e-07
0.0015373751
-5.4139716e-08
0.00075205076
-2.0427342e-08
0.00034297572
-6.0878363e-09
0.00014238224
-1.0144545e-09
4.9782696e-05
1.0137466e-05
9.650737e-10
1.0136501e-05
5.6399808e-09
4.9778021e-05
1.8777904e-08
0.0001423691
4.9610666e-08
0.00034294489
1.1454088e-07
0.00075198583
2.3881012e-07
0.0015372509
4.5070308e-07
0.002942189
7.5248181e-07
0.0052401913
1.051499e-06
0.0085762632
1.1108317e-06
0.012687647
7.2769026e-07
0.016677178
1.3757775e-12
0.019198986
-7.2769196e-07
0.019198986
-1.1108449e-06
0.016677178
-1.051523e-06
0.012687647
-7.5250582e-07
0.0085762632
-4.5070691e-07
0.0052401913
-2.3877179e-07
0.002942189
-1.1445241e-07
0.0015372508
-4.9486689e-08
0.00075198583
-1.8651964e-08
0.00034294489
-5.5480517e-09
0.0001423691
-9.1895402e-10
4.9778021e-05
1.0136501e-05
8.8564504e-10
1.0135615e-05
5.1768192e-09
4.9773729e-05
1.7239165e-08
0.00014235704
4.5557909e-08
0.00034291657
1.05231e-07
0.00075192616
2.1957512e-07
0.0015371365
4.150408e-07
0.0029419936
6.9508759e-07
0.0052399112
9.7709286e-07
0.0085759812
1.0418673e-06
0.012687582
6.8800693e-07
0.016677532
1.7777269e-12
0.019199674
-6.8800845e-07
0.019199674
-1.0418817e-06
0.016677532
-9.7711918e-07
0.012687582
-6.9511398e-07
0.0085759812
-4.1504496e-07
0.0052399112
-2.1953271e-07
0.0029419935
-1.0513313e-07
0.0015371365
-4.542073e-08
0.00075192616
-1.7099788e-08
0.00034291657
-5.0750694e-09
0.00014235704
-8.3459474e-10
4.977373e-05
1.0135615e-05
8.1579035e-10
1.0134799e-05
4.7693627e-09
4.9769775e-05
1.5884985e-08
0.00014234592
4.1989192e-08
0.00034289047
9.7025159e-08
0.00075187112
2.0259178e-07
0.0015370309
3.8344696e-07
0.0029418127
6.438936e-07
0.0052396508
9.098411e-07
0.0085757152
9.7823591e-07
0.012687514
6.5086859e-07
0.01667786
2.3073371e-12
0.019200325
-6.5086967e-07
0.019200325
-9.7825125e-07
0.01667786
-9.0986977e-07
0.012687514
-6.4392248e-07
0.0085757152
-3.8345135e-07
0.0052396508
-2.0254472e-07
0.0029418127
-9.6916757e-08
0.0015370309
-4.1837328e-08
0.00075187112
-1.5730732e-08
0.00034289047
-4.6567751e-09
0.00014234592
-7.5930993e-10
4.9769776e-05
1.0134799e-05
7.5385743e-10
1.0134045e-05
4.4080195e-09
4.9766121e-05
1.4683691e-08
0.00014233564
3.8821889e-08
0.00034286633
8.9736539e-08
0.00075182021
1.8748481e-07
0.0015369332
3.5526309e-07
0.0029416449
5.9795591e-07
0.0052394081
8.4878653e-07
0.0085754644
9.1936687e-07
0.012687443
6.1601337e-07
0.016678163
2.927104e-12
0.019200941
-6.1601384e-07
0.019200941
-9.1938317e-07
0.016678163
-8.488177e-07
0.012687443
-5.9798745e-07
0.0085754644
-3.5526766e-07
0.0052394081
-1.8743258e-07
0.0029416449
-8.9616608e-08
0.0015369332
-3.8654079e-08
0.0007518202
-1.4513375e-08
0.00034286633
-4.2837694e-09
0.00014233564
-6.9154705e-10
4.9766121e-05
1.0134045e-05
6.9855354e-10
1.0133346e-05
4.0852855e-09
4.9762734e-05
1.3610478e-08
0.00014232612
3.5991151e-08
0.00034284395
8.3218004e-08
0.00075177298
1.7395707e-07
0.0015368425
3.2996263e-07
0.0029414889
5.5650466e-07
0.0052391815
7.9311875e-07
0.0085752278
8.6476869e-07
0.012687372
5.832352e-07
0.016678444
3.6025098e-12
0.019201524
-5.8323499e-07
0.019201524
-8.64786e-07
0.016678444
-7.9315258e-07
0.012687372
-5.5653901e-07
0.0085752278
-3.2996728e-07
0.0052391815
-1.7389923e-07
0.0029414889
-8.3085807e-08
0.0015368424
-3.5806527e-08
0.00075177298
-1.3423322e-08
0.00034284395
-3.9488527e-09
0.00014232612
-6.3016759e-10
4.9762734e-05
1.0133346e-05
6.4885736e-10
1.0132697e-05
3.7952359e-09
4.9759587e-05
1.264575e-08
0.00014231727
3.3445684e-08
0.00034282315
7.7352934e-08
0.00075172907
1.6177216e-07
0.001536758
3.0712396e-07
0.0029413436
5.1891661e-07
0.0052389697
7.4217084e-07
0.0085750045
8.1401478e-07
0.0126873
5.5234693e-07
0.016678706
4.2739832e-12
0.019202077
-5.5234605e-07
0.019202077
-8.1403322e-07
0.016678706
-7.4220752e-07
0.0126873
-5.1895385e-07
0.0085750045
-3.0712861e-07
0.0052389697
-1.6170844e-07
0.0029413436
-7.7208098e-08
0.001536758
-3.324389e-08
0.00075172907
-1.2441499e-08
0.00034282315
-3.6464834e-09
0.00014231727
-5.7434262e-10
4.9759587e-05
1.0132697e-05
6.0394951e-10
1.0132092e-05
3.5331204e-09
4.9756657e-05
1.1773788e-08
0.00014230903
3.1144309e-08
0.00034280378
7.204753e-08
0.00075168817
1.5073932e-07
0.0015366793
2.8640465e-07
0.0029412079
4.8467857e-07
0.0052387715
6.9537878e-07
0.0085747938
7.6674513e-07
0.012687229
5.2320981e-07
0.01667895
4.9679826e-12
0.0192026
-5.2320829e-07
0.0192026
-7.6676481e-07
0.01667895
-6.954184e-07
0.012687229
-4.8471869e-07
0.0085747938
-2.8640919e-07
0.0052387715
-1.5066962e-07
0.0029412079
-7.1890104e-08
0.0015366793
-3.0925581e-08
0.00075168817
-1.1552789e-08
0.00034280378
-3.3723471e-09
0.00014230903
-5.2347111e-10
4.9756657e-05
1.0132092e-05
5.6316674e-10
1.0131528e-05
3.2950935e-09
4.9753925e-05
1.0981865e-08
0.00014230134
2.9053658e-08
0.0003427857
6.72257e-08
0.00075165
1.4070345e-07
0.0015366059
2.6752524e-07
0.0029410811
4.5336903e-07
0.0052385856
6.5227361e-07
0.0085745949
7.2263782e-07
0.012687158
4.9568024e-07
0.016679177
5.6493202e-12
0.019203096
-4.9567812e-07
0.019203096
-7.2265881e-07
0.016679177
-6.5231618e-07
0.012687158
-4.5341191e-07
0.0085745949
-2.6752954e-07
0.0052385856
-1.4062791e-07
0.0029410811
-6.7056204e-08
0.0015366059
-2.881888e-08
0.00075164999
-1.0745115e-08
0.0003427857
-3.1230724e-09
0.00014230134
-4.7712659e-10
4.9753925e-05
1.0131529e-05
5.2596635e-10
1.0131002e-05
3.0780068e-09
4.9751372e-05
1.0259553e-08
0.00014229416
2.7146367e-08
0.00034276882
6.2824957e-08
0.00075161432
1.3153687e-07
0.0015365372
2.5025437e-07
0.0029409624
4.2463441e-07
0.0052384112
6.1245118e-07
0.0085744071
6.8142503e-07
0.012687089
4.6966425e-07
0.016679388
6.2940013e-12
0.019203565
-4.6966159e-07
0.019203565
-6.8144733e-07
0.016679388
-6.1249658e-07
0.012687089
-4.2467981e-07
0.0085744071
-2.5025832e-07
0.0052384112
-1.3145583e-07
0.0029409623
-6.2644411e-08
0.0015365371
-2.6897116e-08
0.00075161431
-1.0008748e-08
0.00034276882
-2.8960156e-09
0.00014229416
-4.3501864e-10
4.9751372e-05
1.0131002e-05
4.9190181e-10
1.0130509e-05
2.8792655e-09
4.9748984e-05
9.5982543e-09
0.00014228744
2.5399865e-08
0.00034275301
5.8793726e-08
0.00075158092
1.231341e-07
0.0015364728
2.3440061e-07
0.0029408511
3.9818177e-07
0.0052382475
5.7557501e-07
0.0085742297
6.4285458e-07
0.012687022
4.450405e-07
0.016679586
6.9228907e-12
0.01920401
-4.4503731e-07
0.01920401
-6.4287814e-07
0.016679586
-5.7562296e-07
0.012687022
-3.982293e-07
0.0085742297
-2.3440406e-07
0.0052382475
-1.2304814e-07
0.0029408511
-5.8603684e-08
0.0015364728
-2.5138451e-08
0.00075158092
-9.3358256e-09
0.00034275301
-2.689118e-09
0.00014228744
-3.9696882e-10
4.9748984e-05
1.0130509e-05
4.6060096e-10
1.0130048e-05
2.6967036e-09
4.9746746e-05
8.9907834e-09
0.00014228114
2.3795268e-08
0.00034273821
5.5088791e-08
0.00075154963
1.154065e-07
0.0015364125
2.198022e-07
0.0029407467
3.7375974e-07
0.0052380935
5.4134759e-07
0.0085740621
6.0672628e-07
0.012686957
4.2174944e-07
0.016679771
7.5313716e-12
0.019204432
-4.2174573e-07
0.019204432
-6.0675093e-07
0.016679771
-5.4139768e-07
0.012686957
-3.7380889e-07
0.0085740622
-2.1980501e-07
0.0052380935
-1.1531647e-07
0.0029407467
-5.4891374e-08
0.0015364125
-2.3524785e-08
0.00075154963
-8.7199525e-09
0.00034273821
-2.5007871e-09
0.00014228114
-3.6289183e-10
4.9746747e-05
1.0130048e-05
4.3175199e-10
1.0129615e-05
2.5285008e-09
4.9744649e-05
8.4310989e-09
0.00014227524
2.2316702e-08
0.00034272432
5.1673844e-08
0.00075152027
1.0827965e-07
0.0015363559
2.0632339e-07
0.0029406487
3.511583e-07
0.0052379487
5.0952082e-07
0.0085739038
5.7283237e-07
0.012686893
3.9967653e-07
0.016679944
8.1146675e-12
0.019204832
-3.9967227e-07
0.019204832
-5.7285785e-07
0.016679944
-5.0957247e-07
0.012686893
-3.5120838e-07
0.0085739038
-2.063254e-07
0.0052379487
-1.0818667e-07
0.0029406486
-5.147178e-08
0.0015363559
-2.2041083e-08
0.00075152027
-8.1559375e-09
0.00034272432
-2.3298219e-09
0.00014227524
-3.3278597e-10
4.9744649e-05
1.0129615e-05
4.0509111e-10
1.0129209e-05
2.3731156e-09
4.9742679e-05
7.9140772e-09
0.0001422697
2.0950675e-08
0.00034271129
4.8517932e-08
0.00075149271
1.0168984e-07
0.0015363027
1.9384715e-07
0.0029405565
3.3019287e-07
0.0052378123
4.7986967e-07
0.0085737541
5.4102623e-07
0.012686832
3.7879397e-07
0.016680107
8.6681125e-12
0.01920521
-3.7878911e-07
0.01920521
-5.4105217e-07
0.016680107
-4.7992213e-07
0.012686832
-3.3024303e-07
0.0085737541
-1.9384819e-07
0.0052378123
-1.0159533e-07
0.0029405565
-4.8314608e-08
0.0015363027
-2.0674771e-08
0.0007514927
-7.639585e-09
0.00034271129
-2.1753569e-09
0.0001422697
-3.0672638e-10
4.974268e-05
1.0129209e-05
3.8039282e-10
1.0128828e-05
2.2292236e-09
4.9740829e-05
7.4353154e-09
0.00014226449
1.9685617e-08
0.00034269903
4.5594595e-08
0.0007514668
9.558279e-08
0.0015362527
1.8227408e-07
0.0029404698
3.107083e-07
0.0052376839
4.5220574e-07
0.0085736126
5.1112467e-07
0.012686773
3.5898051e-07
0.016680259
9.1896934e-12
0.019205569
-3.5897499e-07
0.019205569
-5.111506e-07
0.016680259
-4.5225804e-07
0.012686773
-3.107575e-07
0.0085736126
-1.8227395e-07
0.0052376839
-9.5488454e-08
0.0029404698
-4.5394112e-08
0.0015362527
-1.941528e-08
0.00075146679
-7.1675085e-09
0.00034269903
-2.0368096e-09
0.00014226449
-2.8485941e-10
4.9740829e-05
1.0128828e-05
3.5746555e-10
1.0128469e-05
2.0957017e-09
4.9739089e-05
6.9910735e-09
0.00014225959
1.8511646e-08
0.00034268751
4.288107e-08
0.00075144243
8.9911428e-08
0.0015362057
1.715172e-07
0.0029403882
2.9256563e-07
0.0052375628
4.2635622e-07
0.0085734788
4.8302992e-07
0.012686717
3.4024407e-07
0.016680402
9.6948817e-12
0.01920591
-3.4023783e-07
0.01920591
-4.8305525e-07
0.016680402
-4.2640719e-07
0.012686717
-2.9261261e-07
0.0085734788
-1.7151565e-07
0.0052375628
-8.9819332e-08
0.0029403882
-4.2688317e-08
0.0015362057
-1.8253833e-08
0.00075144242
-6.737088e-09
0.00034268751
-1.9138739e-09
0.00014225959
-2.6740313e-10
4.9739089e-05
1.0128469e-05
3.3614005e-10
1.0128131e-05
1.9715477e-09
4.9737452e-05
6.5780148e-09
0.00014225498
1.7420013e-08
0.00034267667
4.0357411e-08
0.00075141949
8.4634892e-08
0.0015361614
1.6150145e-07
0.0029403113
2.7564651e-07
0.0052374487
4.0217201e-07
0.0085733523
4.5656473e-07
0.012686662
3.2244201e-07
0.016680536
1.0060618e-11
0.019206232
-3.2243501e-07
0.019206232
-4.5658875e-07
0.016680536
-4.0222026e-07
0.012686662
-2.7568977e-07
0.0085733523
-1.614982e-07
0.0052374487
-8.4547469e-08
0.0029403113
-4.0178147e-08
0.0015361614
-1.7182897e-08
0.00075141949
-6.3462239e-09
0.00034267667
-1.8064497e-09
0.00014225498
-2.5464043e-10
4.9737452e-05
1.0128131e-05
3.1627651e-10
1.0127813e-05
1.8559429e-09
4.9735911e-05
6.1934055e-09
0.00014225064
1.6403439e-08
0.00034266646
3.800668e-08
0.00075139789
7.9717852e-08
0.0015361197
1.5216118e-07
0.0029402389
2.5984546e-07
0.005237341
3.795225e-07
0.0085732326
4.3168442e-07
0.01268661
3.0562892e-07
0.016680662
1.0419734e-11
0.019206538
-3.0562102e-07
0.019206538
-4.3170625e-07
0.016680662
-3.7956633e-07
0.01268661
-2.5988321e-07
0.0085732326
-1.5215588e-07
0.005237341
-7.9637937e-08
0.0029402389
-3.7847602e-08
0.0015361197
-1.6196508e-08
0.00075139788
-5.9935143e-09
0.00034266646
-1.7146888e-09
0.00014225064
-2.4691796e-10
4.9735911e-05
1.0127813e-05
2.9774135e-10
1.0127514e-05
1.7480832e-09
4.9734458e-05
5.8345653e-09
0.00014224655
1.5454952e-08
0.00034265684
3.5813175e-08
0.00075137753
7.5128394e-08
0.0015360804
1.4343751e-07
0.0029401706
2.4506766e-07
0.0052372394
3.5828002e-07
0.0085731194
4.0819534e-07
0.01268656
2.8962142e-07
0.01668078
1.0685594e-11
0.019206827
-2.8961245e-07
0.019206827
-4.0821393e-07
0.01668078
-3.5831744e-07
0.01268656
-2.4509784e-07
0.0085731194
-1.4342977e-07
0.0052372394
-7.5059264e-08
0.0029401706
-3.5681987e-08
0.0015360804
-1.5289094e-08
0.00075137753
-5.6776887e-09
0.00034265684
-1.6388107e-09
0.00014224655
-2.4461417e-10
4.9734458e-05
1.0127514e-05
2.8043876e-10
1.0127232e-05
1.647414e-09
4.9733089e-05
5.4996284e-09
0.0001422427
1.4569456e-08
0.00034264777
3.3764654e-08
0.00075135833
7.0840378e-08
0.0015360433
1.352817e-07
0.0029401061
2.3123619e-07
0.0052371434
3.3835649e-07
0.0085730123
3.8612205e-07
0.012686512
2.7454088e-07
0.016680892
1.083205e-11
0.019207102
-2.7453063e-07
0.019207102
-3.8613616e-07
0.016680892
-3.3838522e-07
0.012686512
-2.3125644e-07
0.0085730123
-1.3527111e-07
0.0052371434
-7.0785809e-08
0.0029401061
-3.3670174e-08
0.0015360433
-1.4457089e-08
0.00075135833
-5.3984195e-09
0.00034264777
-1.5793741e-09
0.0001422427
-2.4818865e-10
4.9733089e-05
1.0127232e-05
2.6425233e-10
1.0126965e-05
1.5532097e-09
4.9731798e-05
5.1861757e-09
0.00014223906
1.3740801e-08
0.00034263921
3.184773e-08
0.00075134022
6.6827277e-08
0.0015360083
1.2764439e-07
0.0029400453
2.1826714e-07
0.0052370528
3.1962398e-07
0.0085729109
3.6522212e-07
0.012686467
2.6013487e-07
0.016680997
1.0807836e-11
0.019207362
-2.6012318e-07
0.019207362
-3.6523038e-07
0.016680997
-3.1964144e-07
0.012686467
-2.1827482e-07
0.0085729109
-1.276305e-07
0.0052370528
-6.6791516e-08
0.0029400453
-3.1799828e-08
0.0015360084
-1.3695793e-08
0.00075134023
-5.1547361e-09
0.00034263921
-1.5367017e-09
0.00014223906
-2.5804975e-10
4.9731797e-05
1.0126965e-05
2.4913746e-10
1.0126714e-05
1.4652351e-09
4.9730579e-05
4.8933855e-09
0.00014223563
1.2966395e-08
0.00034263113
3.0055156e-08
0.00075132314
6.3072086e-08
0.0015359753
1.2049386e-07
0.0029399879
2.0611615e-07
0.0052369672
3.0205279e-07
0.008572815
3.4562431e-07
0.012686423
2.4662528e-07
0.016681096
1.0575444e-11
0.019207609
-2.4661204e-07
0.019207609
-3.4562524e-07
0.016681096
-3.0205618e-07
0.012686423
-2.0610838e-07
0.008572815
-1.2047625e-07
0.0052369672
-6.3059895e-08
0.0029399879
-3.0064735e-08
0.0015359753
-1.3003954e-08
0.00075132314
-4.9471129e-09
0.00034263114
-1.5114741e-09
0.00014223563
-2.746037e-10
4.9730579e-05
1.0126714e-05
2.3496661e-10
1.0126477e-05
1.3826535e-09
4.9729429e-05
4.6184802e-09
0.0001422324
1.2239502e-08
0.00034262351
2.8373329e-08
0.000751307
5.9549549e-08
0.0015359442
1.1378254e-07
0.0029399337
1.9469287e-07
0.0052368863
2.8547997e-07
0.0085727242
3.269859e-07
0.012686382
2.3364821e-07
0.016681189
1.0025813e-11
0.019207842
-2.3363344e-07
0.019207842
-3.26978e-07
0.016681189
-2.8546631e-07
0.012686382
-1.9466666e-07
0.0085727242
-1.1376096e-07
0.0052368863
-5.9566333e-08
0.0029399337
-2.8452446e-08
0.0015359442
-1.2376279e-08
0.00075130701
-4.7741314e-09
0.00034262351
-1.5037923e-09
0.00014223239
-2.9817338e-10
4.9729428e-05
1.0126477e-05
2.2178819e-10
1.0126253e-05
1.3058274e-09
4.9728342e-05
4.3625755e-09
0.00014222934
1.1561992e-08
0.00034261631
2.6803273e-08
0.00075129176
5.6256551e-08
0.0015359147
1.075043e-07
0.0029398824
1.8400636e-07
0.0052368098
2.6997948e-07
0.0085726382
3.0960791e-07
0.012686342
2.2158188e-07
0.016681277
9.0643628e-12
0.019208064
-2.2156579e-07
0.019208064
-3.0958975e-07
0.016681277
-2.6994577e-07
0.012686342
-1.8395874e-07
0.0085726383
-1.0747864e-07
0.0052368098
-5.6308009e-08
0.0029398825
-2.6964291e-08
0.0015359147
-1.1814848e-08
0.00075129177
-4.6369884e-09
0.00034261631
-1.5140342e-09
0.00014222933
-3.2880956e-10
4.9728341e-05
1.0126253e-05
2.09392e-10
1.0126041e-05
1.233328e-09
4.9727316e-05
4.1209849e-09
0.00014222645
1.0923113e-08
0.00034260951
2.5325334e-08
0.00075127736
5.3160488e-08
0.0015358869
1.0159835e-07
0.002939834
1.739266e-07
0.0052367374
2.5528906e-07
0.0085725569
2.929641e-07
0.012686304
2.0988826e-07
0.01668136
7.5091951e-12
0.019208274
-2.0987132e-07
0.019208274
-2.9293443e-07
0.01668136
-2.5523251e-07
0.012686304
-1.7385491e-07
0.0085725569
-1.01569e-07
0.0052367375
-5.3252835e-08
0.002939834
-2.5580954e-08
0.0015358869
-1.1308906e-08
0.00075127737
-4.5307027e-09
0.00034260951
-1.5404182e-09
0.00014222644
-3.6607575e-10
4.9727315e-05
1.0126041e-05
1.9807043e-10
1.0125841e-05
1.1670823e-09
4.9726344e-05
3.8998524e-09
0.00014222371
1.0336117e-08
0.00034260307
2.3960929e-08
0.00075126374
5.0290605e-08
0.0015358605
9.6114902e-08
0.0029397882
1.6457679e-07
0.005236669
2.41693e-07
0.0085724798
2.7765709e-07
0.012686268
1.9919644e-07
0.016681439
5.2289071e-12
0.019208473
-1.9917947e-07
0.019208473
-2.7761512e-07
0.016681439
-2.4161139e-07
0.012686268
-1.6447901e-07
0.0085724798
-9.6082786e-08
0.005236669
-5.0430298e-08
0.0029397882
-2.4323674e-08
0.0015358606
-1.0871109e-08
0.00075126375
-4.4606174e-09
0.00034260307
-1.5841832e-09
0.00014222371
-4.0987706e-10
4.9726343e-05
1.0125841e-05
1.8723415e-10
1.0125652e-05
1.1031962e-09
4.9725426e-05
3.6866348e-09
0.00014222112
9.7729789e-09
0.00034259698
2.2661411e-08
0.00075125085
4.7573582e-08
0.0015358356
9.09306e-08
0.0029397448
1.5570381e-07
0.0052366042
2.2870351e-07
0.0085724068
2.6285391e-07
0.012686234
1.8871266e-07
0.016681513
2.0858061e-12
0.019208662
-1.8869673e-07
0.019208662
-2.6279923e-07
0.016681513
-2.2859546e-07
0.012686234
-1.5557893e-07
0.0085724068
-9.0896833e-08
0.0052366042
-4.7765134e-08
0.0029397449
-2.313875e-08
0.0015358357
-1.0465707e-08
0.00075125086
-4.4058073e-09
0.00034259698
-1.6351423e-09
0.00014222112
-4.5645516e-10
4.9725424e-05
1.0125651e-05
1.7803322e-10
1.0125472e-05
1.0489529e-09
4.9724553e-05
3.5044375e-09
0.00014221867
9.2848849e-09
0.0003425912
2.1514744e-08
0.00075123862
4.513877e-08
0.001535812
8.6251492e-08
0.0029397037
1.4770571e-07
0.0052365428
2.170529e-07
0.0085723374
2.4970608e-07
0.012686202
1.7948735e-07
0.016681583
-2.0361617e-12
0.019208841
-1.7947375e-07
0.019208841
-2.496387e-07
0.016681583
-2.1691872e-07
0.012686202
-1.4755611e-07
0.0085723374
-8.6220836e-08
0.0052365428
-4.5388415e-08
0.0029397038
-2.2112614e-08
0.0015358121
-1.0138957e-08
0.00075123864
-4.3826801e-09
0.0003425912
-1.6948027e-09
0.00014221866
-5.0369044e-10
4.9724551e-05
1.0125471e-05
1.6719248e-10
1.0125303e-05
9.8464215e-10
4.9723734e-05
3.2920584e-09
0.00014221636
8.7367261e-09
0.00034258576
2.0289151e-08
0.00075122707
4.2659935e-08
0.0015357896
8.164116e-08
0.0029396647
1.3992525e-07
0.0052364845
2.0571872e-07
0.0085722716
2.3675784e-07
0.012686171
1.7030428e-07
0.01668165
-7.5777509e-12
0.019209011
-1.7029476e-07
0.019209011
-2.3667784e-07
0.01668165
-2.0555911e-07
0.012686171
-1.3975533e-07
0.0085722716
-8.1621103e-08
0.0052364845
-4.2973879e-08
0.0029396648
-2.1008011e-08
0.0015357897
-9.7449825e-09
0.00075122709
-4.3173999e-09
0.00034258576
-1.7335122e-09
0.00014221636
-5.4309767e-10
4.9723732e-05
1.0125302e-05
1.627603e-10
1.0125139e-05
9.575659e-10
4.9722938e-05
3.1942777e-09