/*--------------------------------*- C++ -*----------------------------------*\
| =========                 |                                                 |
| \\      /  F ield         | OpenFOAM: The Open Source CFD Toolbox           |
|  \\    /   O peration     | Version:  2406                                  |
|   \\  /    A nd           | Website:  www.openfoam.com                      |
|    \\/     M anipulation  |                                                 |
\*---------------------------------------------------------------------------*/
FoamFile
{
    version     2.0;
    format      ascii;
    arch        "LSB;label=32;scalar=64";
    class       volVectorField;
    location    "29";
    object      U;
}
// * * * * * * * * * * * * * * * * * * * * * * * * * * * * * * * * * * * * * //

dimensions      [0 1 -1 0 0 0 0];

internalField   nonuniform List<vector> 
1176
(
(0.019493789 7.0786614e-07 0)
(0.066677318 8.1696691e-06 0)
(0.13357994 3.9503184e-05 0)
(0.22724701 0.00010873578 0)
(0.35591522 0.00021176028 0)
(0.52772023 0.00030396283 0)
(0.74780387 0.00031818011 0)
(1.0136216 0.00024904573 0)
(1.3093323 0.00016666972 0)
(1.6017081 0.00011264651 0)
(1.8421723 7.0213815e-05 0)
(1.9793239 2.3940682e-05 0)
(1.9793239 -2.394018e-05 0)
(1.8421723 -7.0211992e-05 0)
(1.6017081 -0.00011264151 0)
(1.3093323 -0.00016665947 0)
(1.0136215 -0.00024902785 0)
(0.74780383 -0.00031815064 0)
(0.52772018 -0.00030391761 0)
(0.35591517 -0.00021170184 0)
(0.22724695 -0.00010867786 0)
(0.1335799 -3.9458653e-05 0)
(0.066677294 -8.1464793e-06 0)
(0.019493781 -7.0322654e-07 0)
(0.020187017 -3.741914e-06 0)
(0.068813532 -2.463862e-05 0)
(0.13732107 -9.6548522e-05 0)
(0.23247391 -0.00024839457 0)
(0.36204617 -0.00047268782 0)
(0.53373557 -0.00067421191 0)
(0.75267407 -0.00069486962 0)
(1.0170176 -0.00049687399 0)
(1.3116385 -0.00023345961 0)
(1.6034438 -4.9824926e-05 0)
(1.8436588 1.9764176e-05 0)
(1.9807026 1.3427103e-05 0)
(1.9807026 -1.3428598e-05 0)
(1.8436588 -1.9766145e-05 0)
(1.6034438 4.98221e-05 0)
(1.3116385 0.00023345508 0)
(1.0170177 0.00049686656 0)
(0.75267408 0.00069485744 0)
(0.53373557 0.00067419222 0)
(0.36204616 0.00047266204 0)
(0.23247389 0.0002483706 0)
(0.13732105 9.6532201e-05 0)
(0.06881352 2.4631104e-05 0)
(0.020187012 3.7407082e-06 0)
(0.020018442 2.0918419e-06 0)
(0.068327405 1.2720797e-05 0)
(0.13655404 4.6877296e-05 0)
(0.23159544 0.00011389743 0)
(0.36138709 0.00019769269 0)
(0.53366969 0.00023903228 0)
(0.75344344 0.00020559792 0)
(1.0184881 0.00011361075 0)
(1.3134639 7.4313012e-05 0)
(1.6053464 7.9532195e-05 0)
(1.8455118 7.0515845e-05 0)
(1.9825245 2.7825103e-05 0)
(1.9825245 -2.7825966e-05 0)
(1.8455118 -7.0516985e-05 0)
(1.6053464 -7.9533706e-05 0)
(1.3134639 -7.4314559e-05 0)
(1.0184881 -0.00011361146 0)
(0.75344343 -0.00020559579 0)
(0.53366969 -0.00023902975 0)
(0.36138709 -0.00019768909 0)
(0.23159545 -0.00011389459 0)
(0.13655406 -4.6875944e-05 0)
(0.068327412 -1.2720332e-05 0)
(0.020018444 -2.0918263e-06 0)
(0.019966547 7.0076993e-07 0)
(0.068159232 4.6870708e-06 0)
(0.13624021 1.9355477e-05 0)
(0.2311194 5.64562e-05 0)
(0.36078093 0.00013444564 0)
(0.53306293 0.00025829305 0)
(0.75295637 0.00035344712 0)
(1.0181104 0.00036911951 0)
(1.313184 0.00030758804 0)
(1.6051633 0.00022777162 0)
(1.8453995 0.00014555873 0)
(1.9824491 4.9996879e-05 0)
(1.9824491 -4.9997036e-05 0)
(1.8453995 -0.00014555857 0)
(1.6051633 -0.00022777106 0)
(1.313184 -0.00030758616 0)
(1.0181104 -0.00036911654 0)
(0.75295637 -0.00035344376 0)
(0.53306293 -0.00025828692 0)
(0.36078093 -0.00013443839 0)
(0.2311194 -5.6449193e-05 0)
(0.13624021 -1.9350225e-05 0)
(0.068159232 -4.6843111e-06 0)
(0.019966547 -7.0021728e-07 0)
(0.019942203 2.9077669e-07 0)
(0.068078703 1.9872396e-06 0)
(0.13608628 8.2361774e-06 0)
(0.23087699 2.3699387e-05 0)
(0.36044744 5.6881649e-05 0)
(0.53266448 0.00012306878 0)
(0.75256878 0.00022681792 0)
(1.017808 0.00032272172 0)
(1.3129044 0.00034572396 0)
(1.604912 0.00030729903 0)
(1.8452029 0.00021095242 0)
(1.9822898 7.4613974e-05 0)
(1.9822898 -7.4614984e-05 0)
(1.8452029 -0.00021095367 0)
(1.604912 -0.00030730075 0)
(1.3129044 -0.00034572601 0)
(1.017808 -0.00032272318 0)
(0.75256878 -0.00022681922 0)
(0.53266448 -0.00012306963 0)
(0.36044744 -5.6882427e-05 0)
(0.23087699 -2.3700039e-05 0)
(0.13608628 -8.2366084e-06 0)
(0.068078702 -1.9874294e-06 0)
(0.019942203 -2.908044e-07 0)
(0.019933132 1.718228e-07 0)
(0.068047755 1.1941113e-06 0)
(0.13602489 5.0652578e-06 0)
(0.23077535 1.4968923e-05 0)
(0.36029899 3.6219577e-05 0)
(0.5324792 7.6944193e-05 0)
(0.75239427 0.00014713753 0)
(1.0177222 0.00023748993 0)
(1.3129292 0.00028525546 0)
(1.6049746 0.00027441436 0)
(1.8452865 0.00019644571 0)
(1.9823834 7.1176584e-05 0)
(1.9823834 -7.1177461e-05 0)
(1.8452865 -0.00019644689 0)
(1.6049746 -0.0002744158 0)
(1.3129292 -0.00028525689 0)
(1.0177222 -0.00023749083 0)
(0.75239428 -0.00014713827 0)
(0.5324792 -7.6944873e-05 0)
(0.36029899 -3.6220405e-05 0)
(0.23077535 -1.4969859e-05 0)
(0.13602489 -5.0660841e-06 0)
(0.068047755 -1.1946108e-06 0)
(0.019933132 -1.7193471e-07 0)
(0.0199234 1.5587954e-07 0)
(0.068015507 1.070092e-06 0)
(0.13596286 4.4934878e-06 0)
(0.23067607 1.3195477e-05 0)
(0.36015773 3.1857111e-05 0)
(0.53230178 6.695816e-05 0)
(0.75221429 0.00012411872 0)
(1.0176105 0.00019917026 0)
(1.3129358 0.00025490812 0)
(1.6050904 0.0002459514 0)
(1.8454579 0.00018127872 0)
(1.9825798 6.6548331e-05 0)
(1.9825798 -6.6548838e-05 0)
(1.8454579 -0.0001812794 0)
(1.6050904 -0.00024595209 0)
(1.3129358 -0.0002549086 0)
(1.0176105 -0.00019917056 0)
(0.75221429 -0.00012411914 0)
(0.53230178 -6.6958816e-05 0)
(0.36015773 -3.1857907e-05 0)
(0.23067607 -1.319621e-05 0)
(0.13596286 -4.4940099e-06 0)
(0.068015507 -1.0703726e-06 0)
(0.0199234 -1.5593846e-07 0)
(0.019915697 1.275862e-07 0)
(0.067989792 8.7801467e-07 0)
(0.13591293 3.6959918e-06 0)
(0.23059503 1.0901579e-05 0)
(0.36003987 2.6613296e-05 0)
(0.53214753 5.7237029e-05 0)
(0.75204133 0.00010911035 0)
(1.0174723 0.00017936611 0)
(1.3128926 0.0002380246 0)
(1.6051414 0.00023746741 0)
(1.8455877 0.00017750673 0)
(1.9827514 6.5539401e-05 0)
(1.9827514 -6.5539538e-05 0)
(1.8455877 -0.00017750697 0)
(1.6051414 -0.00023746762 0)
(1.3128926 -0.00023802472 0)
(1.0174723 -0.00017936632 0)
(0.75204133 -0.00010911072 0)
(0.53214753 -5.7237454e-05 0)
(0.36003987 -2.6613565e-05 0)
(0.23059503 -1.0901571e-05 0)
(0.13591293 -3.6957981e-06 0)
(0.067989792 -8.7783811e-07 0)
(0.019915697 -1.2754156e-07 0)
(0.019909217 1.0465651e-07 0)
(0.067968141 7.2312748e-07 0)
(0.13587084 3.0520869e-06 0)
(0.23052654 9.0118042e-06 0)
(0.35993984 2.199984e-05 0)
(0.53201542 4.7473382e-05 0)
(0.75188901 9.2013991e-05 0)
(1.0173341 0.00015618181 0)
(1.3128278 0.00021699672 0)
(1.6051595 0.00022709629 0)
(1.8456699 0.0001723264 0)
(1.982868 6.4147812e-05 0)
(1.982868 -6.4147682e-05 0)
(1.8456699 -0.0001723263 0)
(1.6051595 -0.00022709618 0)
(1.3128278 -0.00021699668 0)
(1.0173341 -0.00015618196 0)
(0.75188901 -9.2014037e-05 0)
(0.53201542 -4.7472938e-05 0)
(0.35993984 -2.1998727e-05 0)
(0.23052654 -9.0102466e-06 0)
(0.13587084 -3.0505926e-06 0)
(0.067968141 -7.2219027e-07 0)
(0.019909217 -1.0444856e-07 0)
(0.019903971 8.6126494e-08 0)
(0.067950552 5.9696079e-07 0)
(0.13583649 2.5273777e-06 0)
(0.2304703 7.4916197e-06 0)
(0.35985692 1.8376312e-05 0)
(0.53190436 3.9835708e-05 0)
(0.75175836 7.7712181e-05 0)
(1.0172122 0.00013432439 0)
(1.3127613 0.0001932338 0)
(1.6051772 0.00021058364 0)
(1.8457533 0.00016272992 0)
(1.9829863 6.1084433e-05 0)
(1.9829863 -6.1084151e-05 0)
(1.8457533 -0.00016272963 0)
(1.6051772 -0.00021058339 0)
(1.3127613 -0.00019323377 0)
(1.0172122 -0.0001343245 0)
(0.75175836 -7.7711815e-05 0)
(0.53190436 -3.9834244e-05 0)
(0.35985692 -1.837365e-05 0)
(0.2304703 -7.4883692e-06 0)
(0.13583649 -2.5244816e-06 0)
(0.067950553 -5.9520959e-07 0)
(0.019903971 -8.5743907e-08 0)
(0.019899543 7.3359599e-08 0)
(0.067935688 5.0897543e-07 0)
(0.13580742 2.1569169e-06 0)
(0.23042259 6.4028119e-06 0)
(0.35978626 1.5747658e-05 0)
(0.5318089 3.4277902e-05 0)
(0.75164409 6.7204691e-05 0)
(1.0171021 0.00011723005 0)
(1.3126976 0.00017262481 0)
(1.6051928 0.00019308928 0)
(1.8458371 0.00015219891 0)
(1.9831061 5.7544991e-05 0)
(1.9831061 -5.7544675e-05 0)
(1.8458371 -0.00015219861 0)
(1.6051928 -0.00019308912 0)
(1.3126976 -0.00017262497 0)
(1.017102 -0.00011723023 0)
(0.75164409 -6.7203977e-05 0)
(0.5318089 -3.4275484e-05 0)
(0.35978626 -1.5743541e-05 0)
(0.23042259 -6.3979802e-06 0)
(0.13580742 -2.1527173e-06 0)
(0.067935688 -5.0646855e-07 0)
(0.019899543 -7.2814971e-08 0)
(0.019895721 6.3733271e-08 0)
(0.06792285 4.4255004e-07 0)
(0.13578228 1.8767935e-06 0)
(0.23038125 5.5766103e-06 0)
(0.35972483 1.3738784e-05 0)
(0.53172535 2.9998114e-05 0)
(0.75154264 5.9111669e-05 0)
(1.0170011 0.00010388832 0)
(1.3126344 0.00015540299 0)
(1.6052015 0.00017849552 0)
(1.8459125 0.0001427158 0)
(1.9832185 5.4330804e-05 0)
(1.9832185 -5.433051e-05 0)
(1.8459125 -0.00014271559 0)
(1.6052015 -0.00017849558 0)
(1.3126344 -0.00015540345 0)
(1.0170011 -0.00010388864 0)
(0.75154264 -5.9110688e-05 0)
(0.53172535 -2.9994858e-05 0)
(0.35972483 -1.3733366e-05 0)
(0.23038125 -5.5703608e-06 0)
(0.13578228 -1.8714255e-06 0)
(0.06792285 -4.3936658e-07 0)
(0.019895722 -6.3043796e-08 0)
(0.019892371 5.6098044e-08 0)
(0.067911586 3.8981514e-07 0)
(0.13576021 1.654194e-06 0)
(0.2303449 4.9188621e-06 0)
(0.35967069 1.2132123e-05 0)
(0.53165136 2.6542546e-05 0)
(0.7514519 5.2498874e-05 0)
(1.0169086 9.2875801e-05 0)
(1.3125728 0.00014061505 0)
(1.605205 0.0001652964 0)
(1.8459798 0.00013398952 0)
(1.9833221 5.1387623e-05 0)
(1.9833221 -5.1387382e-05 0)
(1.8459798 -0.00013398945 0)
(1.605205 -0.00016529677 0)
(1.3125728 -0.00014061587 0)
(1.0169086 -9.287632e-05 0)
(0.7514519 -5.2497704e-05 0)
(0.53165136 -2.6538586e-05 0)
(0.35967069 -1.2125585e-05 0)
(0.2303449 -4.9113808e-06 0)
(0.13576021 -1.6478048e-06 0)
(0.067911587 -3.8603878e-07 0)
(0.019892371 -5.5281521e-08 0)
(0.019889403 4.9856834e-08 0)
(0.067901607 3.4665391e-07 0)
(0.13574064 1.47183e-06 0)
(0.23031264 4.3794785e-06 0)
(0.35962253 1.0812406e-05 0)
(0.53158531 2.3691494e-05 0)
(0.75137029 4.6984209e-05 0)
(1.016824 8.3546372e-05 0)
(1.3125139 0.00012773757 0)
(1.6052051 0.00015293364 0)
(1.8460415 0.00012582058 0)
(1.9834196 4.8616655e-05 0)
(1.9834196 -4.8616479e-05 0)
(1.8460415 -0.00012582069 0)
(1.6052051 -0.00015293436 0)
(1.3125139 -0.00012773877 0)
(1.016824 -8.3547107e-05 0)
(0.75137029 -4.6982903e-05 0)
(0.53158531 -2.3686939e-05 0)
(0.35962253 -1.0804896e-05 0)
(0.23031264 -4.3709146e-06 0)
(0.13574064 -1.4645356e-06 0)
(0.067901607 -3.4234919e-07 0)
(0.019889403 -4.8926835e-08 0)
(0.019886752 4.4704995e-08 0)
(0.067892685 3.1097167e-07 0)
(0.13572313 1.3208668e-06 0)
(0.23028375 3.9322693e-06 0)
(0.35957935 9.715945e-06 0)
(0.53152592 2.1315647e-05 0)
(0.75129648 4.2360302e-05 0)
(1.0167465 7.5619934e-05 0)
(1.3124581 0.00011654241 0)
(1.6052027 0.00014169884 0)
(1.8460982 0.00011827118 0)
(1.9835117 4.6031704e-05 0)
(1.9835117 -4.6031587e-05 0)
(1.8460982 -0.00011827148 0)
(1.6052027 -0.0001416999 0)
(1.3124581 -0.00011654396 0)
(1.0167465 -7.5620869e-05 0)
(0.75129648 -4.2358881e-05 0)
(0.53152592 -2.1310555e-05 0)
(0.35957935 -9.7075426e-06 0)
(0.23028375 -3.9226972e-06 0)
(0.13572313 -1.3127212e-06 0)
(0.067892685 -3.0616731e-07 0)
(0.019886752 -4.3667387e-08 0)
(0.019884362 4.0389844e-08 0)
(0.067884644 2.8105427e-07 0)
(0.13570735 1.19418e-06 0)
(0.23025769 3.5565147e-06 0)
(0.35954035 8.7929189e-06 0)
(0.53147216 1.931005e-05 0)
(0.75122934 3.8440177e-05 0)
(1.0166753 6.8838957e-05 0)
(1.3124053 0.00010678356 0)
(1.6051983 0.00013155236 0)
(1.8461504 0.00011132815 0)
(1.9835985 4.3631278e-05 0)
(1.9835985 -4.3631201e-05 0)
(1.8461504 -0.00011132861 0)
(1.6051983 -0.00013155371 0)
(1.3124053 -0.00010678542 0)
(1.0166753 -6.8840066e-05 0)
(0.75122934 -3.8438634e-05 0)
(0.53147216 -1.9304426e-05 0)
(0.35954035 -8.7836266e-06 0)
(0.23025769 -3.5459274e-06 0)
(0.13570735 -1.1851702e-06 0)
(0.067884644 -2.757402e-07 0)
(0.019884362 -3.924218e-08 0)
(0.019882195 3.671182e-08 0)
(0.067877349 2.5553897e-07 0)
(0.13569303 1.0860755e-06 0)
(0.23023403 3.235619e-06 0)
(0.3595049 8.0035632e-06 0)
(0.5314232 1.7590906e-05 0)
(0.75116797 3.5067201e-05 0)
(1.0166096 6.2964118e-05 0)
(1.3123553 9.8203195e-05 0)
(1.6051923 0.00012233366 0)
(1.8461982 0.00010491327 0)
(1.9836803 4.1390591e-05 0)
(1.9836803 -4.1390523e-05 0)
(1.8461982 -0.00010491385 0)
(1.6051923 -0.00012233523 0)
(1.3123553 -9.8205315e-05 0)
(1.0166096 -6.2965376e-05 0)
(0.75116796 -3.5065517e-05 0)
(0.5314232 -1.7584712e-05 0)
(0.3595049 -7.9933166e-06 0)
(0.23023403 -3.2239375e-06 0)
(0.13569303 -1.0761305e-06 0)
(0.067877349 -2.4967189e-07 0)
(0.019882195 -3.5444589e-08 0)
(0.019880219 3.3536187e-08 0)
(0.067870695 2.3349716e-07 0)
(0.13567996 9.9264375e-07 0)
(0.23021243 2.9581057e-06 0)
(0.35947252 7.3202317e-06 0)
(0.53137842 1.6100066e-05 0)
(0.75111164 3.2132934e-05 0)
(1.0165488 5.7823321e-05 0)
(1.3123082 9.0602411e-05 0)
(1.6051852 0.00011395342 0)
(1.8462423 9.8956078e-05 0)
(1.9837576 3.9289099e-05 0)
(1.9837576 -3.9289009e-05 0)
(1.8462423 -9.8956744e-05 0)
(1.6051852 -0.00011395519 0)
(1.3123082 -9.0604768e-05 0)
(1.0165488 -5.7824717e-05 0)
(0.75111164 -3.2131081e-05 0)
(0.53137842 -1.6093234e-05 0)
(0.35947252 -7.3089185e-06 0)
(0.23021243 -2.9452009e-06 0)
(0.13567996 -9.8165282e-07 0)
(0.067870696 -2.2701158e-07 0)
(0.01988022 -3.2135207e-08 0)
(0.019878409 3.0769051e-08 0)
(0.0678646 2.1428062e-07 0)
(0.13566798 9.111496e-07 0)
(0.23019263 2.7159087e-06 0)
(0.35944282 6.7233268e-06 0)
(0.53133728 1.4795903e-05 0)
(0.75105977 2.9559574e-05 0)
(1.0164925 5.3292423e-05 0)
(1.3122638 8.383148e-05 0)
(1.6051772 0.00010632403 0)
(1.846283 9.3403352e-05 0)
(1.9838307 3.7312598e-05 0)
(1.9838307 -3.7312457e-05 0)
(1.846283 -9.3404066e-05 0)
(1.6051772 -0.00010632597 0)
(1.3122638 -8.3834065e-05 0)
(1.0164925 -5.3293955e-05 0)
(0.75105976 -2.9557521e-05 0)
(0.53133728 -1.4788344e-05 0)
(0.35944282 -6.7108096e-06 0)
(0.23019263 -2.701628e-06 0)
(0.13566798 -8.9898513e-07 0)
(0.0678646 -2.0710199e-07 0)
(0.01987841 -2.9218287e-08 0)
(0.019876745 2.8336689e-08 0)
(0.067858993 1.9738156e-07 0)
(0.13565697 8.394547e-07 0)
(0.23017441 2.5027285e-06 0)
(0.35941547 6.1975259e-06 0)
(0.53129936 1.3645663e-05 0)
(0.75101183 2.7285173e-05 0)
(1.0164401 4.9271587e-05 0)
(1.3122219 7.7767591e-05 0)
(1.6051688 9.9356105e-05 0)
(1.8463207 8.82137e-05 0)
(1.9838998 3.5449714e-05 0)
(1.9838998 -3.5449497e-05 0)
(1.8463207 -8.8214438e-05 0)
(1.6051688 -9.9358198e-05 0)
(1.3122219 -7.7770411e-05 0)
(1.0164401 -4.9273258e-05 0)
(0.75101183 -2.7282886e-05 0)
(0.53129936 -1.3637286e-05 0)
(0.35941547 -6.1836665e-06 0)
(0.23017441 -2.4869219e-06 0)
(0.13565697 -8.2599363e-07 0)
(0.067858993 -1.8943877e-07 0)
(0.019876745 -2.6620923e-08 0)
(0.019875208 2.6181034e-08 0)
(0.067853818 1.8239955e-07 0)
(0.1356468 7.75872e-07 0)
(0.23015758 2.3135925e-06 0)
(0.3593902 5.7307283e-06 0)
(0.5312643 1.2623414e-05 0)
(0.75096742 2.5260198e-05 0)
(1.0163914 4.5679396e-05 0)
(1.3121824 7.2307947e-05 0)
(1.6051599 9.2973381e-05 0)
(1.8463555 8.335051e-05 0)
(1.9839652 3.3689788e-05 0)
(1.9839652 -3.3689481e-05 0)
(1.8463555 -8.3351258e-05 0)
(1.6051599 -9.2975633e-05 0)
(1.3121824 -7.2311019e-05 0)
(1.0163914 -4.5681212e-05 0)
(0.75096742 -2.5257645e-05 0)
(0.53126429 -1.2614138e-05 0)
(0.3593902 -5.7154076e-06 0)
(0.23015758 -2.2961349e-06 0)
(0.1356468 -7.6101381e-07 0)
(0.067853818 -1.7363529e-07 0)
(0.019875209 -2.4288067e-08 0)
(0.019873787 2.4256778e-08 0)
(0.067849027 1.6902172e-07 0)
(0.13563738 7.1908174e-07 0)
(0.230142 2.144604e-06 0)
(0.35936679 5.313429e-06 0)
(0.53123178 1.1708729e-05 0)
(0.75092616 2.3445423e-05 0)
(1.016346 4.2450396e-05 0)
(1.3121452 6.7367512e-05 0)
(1.6051509 8.7107573e-05 0)
(1.8463878 7.8785438e-05 0)
(1.9840271 3.2024239e-05 0)
(1.9840271 -3.2023833e-05 0)
(1.8463878 -7.8786193e-05 0)
(1.6051509 -8.7109994e-05 0)
(1.3121452 -6.7370852e-05 0)
(1.016346 -4.245236e-05 0)
(0.75092616 -2.3442577e-05 0)
(0.53123178 -1.1698493e-05 0)
(0.35936679 -5.2965631e-06 0)
(0.230142 -2.1254118e-06 0)
(0.13563738 -7.0276206e-07 0)
(0.067849027 -1.5940021e-07 0)
(0.019873787 -2.2179087e-08 0)
(0.019872467 2.2528183e-08 0)
(0.067844581 1.5700116e-07 0)
(0.13562864 6.6804215e-07 0)
(0.23012754 1.992684e-06 0)
(0.35934505 4.9381029e-06 0)
(0.53120156 1.0885397e-05 0)
(0.75088776 2.1809622e-05 0)
(1.0163035 3.9532063e-05 0)
(1.31211 6.2876414e-05 0)
(1.6051418 8.1702171e-05 0)
(1.8464178 7.4492244e-05 0)
(1.9840857 3.0444918e-05 0)
(1.9840857 -3.0444411e-05 0)
(1.8464178 -7.4493011e-05 0)
(1.6051418 -8.1704776e-05 0)
(1.31211 -6.2880036e-05 0)
(1.0163035 -3.9534174e-05 0)
(0.75088776 -2.1806465e-05 0)
(0.53120156 -1.0874168e-05 0)
(0.35934504 -4.9196543e-06 0)
(0.23012754 -1.971727e-06 0)
(0.13562864 -6.5024233e-07 0)
(0.067844582 -1.4651365e-07 0)
(0.019872467 -2.026409e-08 0)
(0.01987124 2.0966607e-08 0)
(0.067840446 1.4613994e-07 0)
(0.13562051 6.2191813e-07 0)
(0.23011408 1.8553623e-06 0)
(0.35932481 4.5987036e-06 0)
(0.53117342 1.0140356e-05 0)
(0.75085195 2.0327538e-05 0)
(1.0162638 3.68817e-05 0)
(1.3120768 5.8776936e-05 0)
(1.6051327 7.6706897e-05 0)
(1.8464458 7.0451808e-05 0)
(1.9841412 2.8945779e-05 0)
(1.9841412 -2.8945173e-05 0)
(1.8464458 -7.0452593e-05 0)
(1.6051327 -7.6709697e-05 0)
(1.3120768 -5.8780845e-05 0)
(1.0162638 -3.6883953e-05 0)
(0.75085194 -2.0324059e-05 0)
(0.53117342 -1.0128131e-05 0)
(0.35932481 -4.578689e-06 0)
(0.23011408 -1.8326719e-06 0)
(0.13562051 -6.0267176e-07 0)
(0.067840446 -1.3480845e-07 0)
(0.01987124 -1.8521067e-08 0)
(0.019870096 1.954888e-08 0)
(0.067836592 1.3627791e-07 0)
(0.13561293 5.8003362e-07 0)
(0.23010153 1.7306384e-06 0)
(0.35930594 4.2903307e-06 0)
(0.53114716 9.4630031e-06 0)
(0.75081849 1.897861e-05 0)
(1.0162266 3.4464313e-05 0)
(1.3120455 5.5020942e-05 0)
(1.6051237 7.2080958e-05 0)
(1.8464718 6.6643354e-05 0)
(1.9841938 2.7520386e-05 0)
(1.9841938 -2.7519688e-05 0)
(1.8464718 -6.6644164e-05 0)
(1.6051237 -7.2083958e-05 0)
(1.3120455 -5.5025132e-05 0)
(1.0162266 -3.4466695e-05 0)
(0.75081849 -1.897481e-05 0)
(0.53114716 -9.4498194e-06 0)
(0.35930594 -4.2688263e-06 0)
(0.23010153 -1.7063131e-06 0)
(0.13561293 -5.5943103e-07 0)
(0.067836592 -1.241578e-07 0)
(0.019870096 -1.6934045e-08 0)
(0.019869029 1.8256053e-08 0)
(0.067832994 1.2728399e-07 0)
(0.13560586 5.418351e-07 0)
(0.23008981 1.6168729e-06 0)
(0.35928831 4.008963e-06 0)
(0.53112262 8.8446216e-06 0)
(0.75078719 1.7745888e-05 0)
(1.0161917 3.2250958e-05 0)
(1.3120159 5.1568231e-05 0)
(1.6051149 6.7786513e-05 0)
(1.846496 6.305366e-05 0)
(1.9842436 2.6164708e-05 0)
(1.9842436 -2.6163922e-05 0)
(1.846496 -6.3054498e-05 0)
(1.6051149 -6.7789709e-05 0)
(1.312016 -5.1572686e-05 0)
(1.0161917 -3.2253451e-05 0)
(0.75078719 -1.7741779e-05 0)
(0.53112262 -8.8305535e-06 0)
(0.35928831 -3.9861082e-06 0)
(0.23008981 -1.5910828e-06 0)
(0.13560586 -5.2002712e-07 0)
(0.067832995 -1.144662e-07 0)
(0.019869029 -1.5491743e-08 0)
(0.019868031 1.7072537e-08 0)
(0.067829631 1.1905026e-07 0)
(0.13559924 5.068662e-07 0)
(0.23007886 1.5127136e-06 0)
(0.35927183 3.751283e-06 0)
(0.53109966 8.2780179e-06 0)
(0.75075787 1.6615359e-05 0)
(1.0161589 3.0217548e-05 0)
(1.311988 4.8384775e-05 0)
(1.6051063 6.3793948e-05 0)
(1.8465187 5.9664528e-05 0)
(1.9842909 2.4873385e-05 0)
(1.9842909 -2.4872514e-05 0)
(1.8465187 -5.9665394e-05 0)
(1.6051063 -6.3797325e-05 0)
(1.311988 -4.8389461e-05 0)
(1.0161589 -3.0220125e-05 0)
(0.75075787 -1.6610966e-05 0)
(0.53109965 -8.2631818e-06 0)
(0.35927183 -3.727285e-06 0)
(0.23007886 -1.4857048e-06 0)
(0.13559924 -4.8406791e-07 0)
(0.067829631 -1.0566349e-07 0)
(0.019868031 -1.4186721e-08 0)
(0.019867097 1.598534e-08 0)
(0.067826482 1.1148672e-07 0)
(0.13559305 4.7474598e-07 0)
(0.2300686 1.4170305e-06 0)
(0.35925639 3.5145129e-06 0)
(0.53107814 7.757152e-06 0)
(0.75073038 1.5575233e-05 0)
(1.0161281 2.8343828e-05 0)
(1.3119617 4.5441919e-05 0)
(1.6050979 6.0073752e-05 0)
(1.8465398 5.6467514e-05 0)
(1.9843356 2.3644101e-05 0)
(1.9843356 -2.3643147e-05 0)
(1.8465398 -5.6468401e-05 0)
(1.6050979 -6.0077282e-05 0)
(1.3119617 -4.5446791e-05 0)
(1.0161281 -2.8346454e-05 0)
(0.75073038 -1.5570594e-05 0)
(0.53107814 -7.7417087e-06 0)
(0.35925639 -3.4896502e-06 0)
(0.2300686 -1.3891299e-06 0)
(0.13559305 -4.5124109e-07 0)
(0.067826482 -9.7700067e-08 0)
(0.019867097 -1.3014704e-08 0)
(0.019866221 1.4983573e-08 0)
(0.067823531 1.0451778e-07 0)
(0.13558724 4.4515402e-07 0)
(0.23005898 1.328873e-06 0)
(0.35924191 3.2963189e-06 0)
(0.53105796 7.2769568e-06 0)
(0.75070457 1.4615605e-05 0)
(1.0160992 2.661261e-05 0)
(1.3119367 4.2714826e-05 0)
(1.6050897 5.6604254e-05 0)
(1.8465596 5.3445042e-05 0)
(1.984378 2.2471874e-05 0)
(1.984378 -2.2470841e-05 0)
(1.8465596 -5.3445939e-05 0)
(1.6050897 -5.6607899e-05 0)
(1.3119367 -4.2719822e-05 0)
(1.0160992 -2.6615244e-05 0)
(0.75070457 -1.4610772e-05 0)
(0.53105795 -7.2611142e-06 0)
(0.35924191 -3.2709474e-06 0)
(0.23005898 -1.300495e-06 0)
(0.13558724 -4.2130035e-07 0)
(0.067823531 -9.0544006e-08 0)
(0.019866221 -1.1974225e-08 0)
(0.0198654 1.4058024e-08 0)
(0.067820761 9.8079509e-08 0)
(0.1355818 4.1781901e-07 0)
(0.23004995 1.2474346e-06 0)
(0.35922832 3.0947134e-06 0)
(0.53103901 6.8330968e-06 0)
(0.75068032 1.3727984e-05 0)
(1.0160719 2.5009264e-05 0)
(1.3119132 4.0182605e-05 0)
(1.6050818 5.3361526e-05 0)
(1.8465781 5.0593298e-05 0)
(1.9844182 2.1355952e-05 0)
(1.9844182 -2.1354841e-05 0)
(1.8465781 -5.0594186e-05 0)
(1.6050818 -5.3365233e-05 0)
(1.3119132 -4.0187647e-05 0)
(1.0160719 -2.5011856e-05 0)
(0.75068032 -1.3723024e-05 0)
(0.531039 -6.8171141e-06 0)
(0.35922832 -3.0692725e-06 0)
(0.23004995 -1.2190888e-06 0)
(0.1355818 -3.9405532e-07 0)
(0.067820762 -8.4179085e-08 0)
(0.0198654 -1.106637e-08 0)
(0.019864628 1.3200815e-08 0)
(0.067818161 9.211703e-08 0)
(0.13557668 3.9250754e-07 0)
(0.23004148 1.1720224e-06 0)
(0.35921555 2.9079964e-06 0)
(0.5310212 6.4218816e-06 0)
(0.75065752 1.2905134e-05 0)
(1.0160463 2.3521091e-05 0)
(1.3118909 3.782644e-05 0)
(1.6050743 5.0329745e-05 0)
(1.8465955 4.7893542e-05 0)
(1.9844563 2.0291023e-05 0)
(1.9844563 -2.0289837e-05 0)
(1.8465955 -4.7894398e-05 0)
(1.6050743 -5.0333447e-05 0)
(1.3118909 -3.783143e-05 0)
(1.0160463 -2.3523576e-05 0)
(0.75065751 -1.2900128e-05 0)
(0.53102119 -6.4060733e-06 0)
(0.35921555 -2.8830173e-06 0)
(0.23004148 -1.1443226e-06 0)
(0.13557668 -3.6936123e-07 0)
(0.067818161 -7.8602723e-08 0)
(0.019864628 -1.0294557e-08 0)
(0.019863903 1.2405254e-08 0)
(0.067815716 8.6583899e-08 0)
(0.13557187 3.6902202e-07 0)
(0.23003351 1.1020472e-06 0)
(0.35920355 2.7347085e-06 0)
(0.53100445 6.040112e-06 0)
(0.75063606 1.214077e-05 0)
(1.0160221 2.2137286e-05 0)
(1.3118699 3.5630952e-05 0)
(1.6050669 4.7488872e-05 0)
(1.8466118 4.5347292e-05 0)
(1.9844924 1.9278044e-05 0)
(1.9844924 -1.9276782e-05 0)
(1.8466118 -4.5348086e-05 0)
(1.6050669 -4.7492485e-05 0)
(1.3118699 -3.563577e-05 0)
(1.0160221 -2.2139589e-05 0)
(0.75063606 -1.2135815e-05 0)
(0.53100444 -6.0248532e-06 0)
(0.35920355 -2.7108228e-06 0)
(0.23003351 -1.0757219e-06 0)
(0.13557187 -3.4711821e-07 0)
(0.067815716 -7.3826112e-08 0)
(0.019863903 -9.6645354e-09 0)
(0.019863221 1.1665424e-08 0)
(0.067813416 8.1438618e-08 0)
(0.13556735 3.4718532e-07 0)
(0.23002601 1.036984e-06 0)
(0.35919225 2.5735674e-06 0)
(0.53098868 5.6850142e-06 0)
(0.75061585 1.1429439e-05 0)
(1.0159993 2.0848106e-05 0)
(1.31185 3.3581188e-05 0)
(1.6050599 4.4827383e-05 0)
(1.8466272 4.2932636e-05 0)
(1.9845266 1.8310585e-05 0)
(1.9845266 -1.8309244e-05 0)
(1.8466272 -4.2933337e-05 0)
(1.6050599 -4.4830808e-05 0)
(1.31185 -3.3585691e-05 0)
(1.0159993 -2.0850137e-05 0)
(0.75061585 -1.1424651e-05 0)
(0.53098868 -5.6707472e-06 0)
(0.35919225 -2.5515179e-06 0)
(0.23002601 -1.0128885e-06 0)
(0.13556735 -3.2725704e-07 0)
(0.067813417 -6.9871376e-08 0)
(0.019863221 -9.1841262e-09 0)
(0.019862579 1.0976444e-08 0)
(0.067811252 7.6647483e-08 0)
(0.13556309 3.2685379e-07 0)
(0.23001895 9.7640111e-07 0)
(0.35918162 2.4234915e-06 0)
(0.53097384 5.3541903e-06 0)
(0.75059681 1.0766412e-05 0)
(1.0159778 1.964554e-05 0)
(1.3118312 3.1666075e-05 0)
(1.6050532 4.23283e-05 0)
(1.8466415 4.0657998e-05 0)
(1.984559 1.7391826e-05 0)
(1.984559 -1.7390403e-05 0)
(1.8466415 -4.0658561e-05 0)
(1.6050532 -4.2331416e-05 0)
(1.3118312 -3.1670095e-05 0)
(1.0159778 -1.9647192e-05 0)
(0.75059681 -1.0761926e-05 0)
(0.53097384 -5.3414295e-06 0)
(0.35918162 -2.404141e-06 0)
(0.23001895 -9.5552747e-07 0)
(0.13556309 -3.0975016e-07 0)
(0.067811252 -6.6773249e-08 0)
(0.019862579 -8.8632342e-09 0)
(0.019861974 1.0333637e-08 0)
(0.067809213 7.2177195e-08 0)
(0.13555907 3.0788449e-07 0)
(0.2300123 9.1987766e-07 0)
(0.3591716 2.2834668e-06 0)
(0.53095985 5.0454761e-06 0)
(0.75057886 1.0147428e-05 0)
(1.0159575 1.8521721e-05 0)
(1.3118134 2.9872807e-05 0)
(1.6050467 3.9982858e-05 0)
(1.8466551 3.8495663e-05 0)
(1.9845898 1.65132e-05 0)
(1.9845898 -1.6511701e-05 0)
(1.8466551 -3.8496036e-05 0)
(1.6050467 -3.9985521e-05 0)
(1.3118134 -2.9876145e-05 0)
(1.0159575 -1.8522871e-05 0)
(0.75057886 -1.0143398e-05 0)
(0.53095985 -5.0348142e-06 0)
(0.3591716 -2.2678064e-06 0)
(0.2300123 -9.0336271e-07 0)
(0.13555907 -2.9457726e-07 0)
(0.067809213 -6.4570543e-08 0)
(0.019861974 -8.7127401e-09 0)
(0.019861404 9.7336574e-09 0)
(0.067807291 6.8005184e-08 0)
(0.13555529 2.9018097e-07 0)
(0.23000603 8.6711683e-07 0)
(0.35916216 2.1527217e-06 0)
(0.53094666 4.7571034e-06 0)
(0.75056194 9.5689791e-06 0)
(1.0159384 1.7470964e-05 0)
(1.3117965 2.8194337e-05 0)
(1.6050405 3.7777376e-05 0)
(1.8466677 3.6463669e-05 0)
(1.9846188 1.5681125e-05 0)
(1.9846188 -1.5679558e-05 0)
(1.8466678 -3.6463787e-05 0)
(1.6050405 -3.7779419e-05 0)
(1.3117965 -2.8196765e-05 0)
(1.0159384 -1.7471472e-05 0)
(0.75056194 -9.5655865e-06 0)
(0.53094666 -4.7492195e-06 0)
(0.35916216 -2.1418827e-06 0)
(0.23000603 -8.5625566e-07 0)
(0.13555529 -2.8177552e-07 0)
(0.067807291 -6.3319014e-08 0)
(0.019861404 -8.7461926e-09 0)
(0.019860867 9.1724178e-09 0)
(0.067805479 6.4101313e-08 0)
(0.13555173 2.7361263e-07 0)
(0.23000012 8.1774101e-07 0)
(0.35915325 2.0303799e-06 0)
(0.53093421 4.4872709e-06 0)
(0.75054596 9.0275239e-06 0)
(1.0159203 1.6486331e-05 0)
(1.3117806 2.6618196e-05 0)
(1.6050346 3.5703616e-05 0)
(1.8466798 3.4524752e-05 0)
(1.9846465 1.4883444e-05 0)
(1.9846465 -1.4881825e-05 0)
(1.8466798 -3.4524546e-05 0)
(1.6050346 -3.5704851e-05 0)
(1.3117806 -2.6619458e-05 0)
(1.0159203 -1.6486042e-05 0)
(0.75054596 -9.0249727e-06 0)
(0.53093422 -4.4829267e-06 0)
(0.35915325 -2.0256269e-06 0)
(0.23000012 -8.1397803e-07 0)
(0.13555173 -2.7134002e-07 0)
(0.067805479 -6.3062415e-08 0)
(0.019860866 -8.9755189e-09 0)
(0.01986036 8.6483751e-09 0)
(0.06780377 6.045668e-08 0)
(0.13554837 2.5814126e-07 0)
(0.22999455 7.7161371e-07 0)
(0.35914485 1.9160112e-06 0)
(0.53092248 4.2348473e-06 0)
(0.75053089 8.5207604e-06 0)
(1.0159032 1.5564639e-05 0)
(1.3117655 2.5142293e-05 0)
(1.605029 3.3753223e-05 0)
(1.846691 3.2710933e-05 0)
(1.9846726 1.4131565e-05 0)
(1.9846726 -1.4129915e-05 0)
(1.846691 -3.2710331e-05 0)
(1.605029 -3.3753448e-05 0)
(1.3117655 -2.514211e-05 0)
(1.0159032 -1.5563386e-05 0)
(0.75053089 -8.519284e-06 0)
(0.53092248 -4.2348873e-06 0)
(0.35914485 -1.9187344e-06 0)
(0.22999455 -7.765287e-07 0)
(0.13554836 -2.6334338e-07 0)
(0.06780377 -6.3855853e-08 0)
(0.01986036 -9.4128732e-09 0)
(0.019859881 8.1570117e-09 0)
(0.067802156 5.7036109e-08 0)
(0.13554519 2.4361308e-07 0)
(0.22998928 7.2830651e-07 0)
(0.35913691 1.8086948e-06 0)
(0.53091139 3.9980963e-06 0)
(0.75051664 8.045339e-06 0)
(1.0158871 1.4698682e-05 0)
(1.3117512 2.3751887e-05 0)
(1.6050236 3.1914474e-05 0)
(1.8467017 3.0969938e-05 0)
(1.9846975 1.3407522e-05 0)
(1.9846975 -1.3405882e-05 0)
(1.8467017 -3.0968876e-05 0)
(1.6050236 -3.1913475e-05 0)
(1.3117512 -2.3749966e-05 0)
(1.0158871 -1.4696302e-05 0)
(0.75051664 -8.0452115e-06 0)
(0.53091139 -4.0034594e-06 0)
(0.35913691 -1.820421e-06 0)
(0.22998928 -7.4362261e-07 0)
(0.13554519 -2.5774682e-07 0)
(0.067802155 -6.5729011e-08 0)
(0.019859881 -1.0067538e-08 0)
(0.01985943 7.7001082e-09 0)
(0.067800634 5.3856573e-08 0)
(0.13554219 2.301003e-07 0)
(0.22998431 6.8797811e-07 0)
(0.35912943 1.7085903e-06 0)
(0.53090093 3.7768913e-06 0)
(0.7505032 7.6007599e-06 0)
(1.0158719 1.3889157e-05 0)
(1.3117377 2.2453035e-05 0)
(1.6050185 3.0189808e-05 0)
(1.8467117 2.9354766e-05 0)
(1.9847208 1.2730638e-05 0)
(1.9847208 -1.2729063e-05 0)
(1.8467117 -2.9353191e-05 0)
(1.6050185 -3.0187376e-05 0)
(1.3117377 -2.2449082e-05 0)
(1.0158719 -1.3885493e-05 0)
(0.75050321 -7.6022803e-06 0)
(0.53090094 -3.7885493e-06 0)
(0.35912943 -1.7308723e-06 0)
(0.22998431 -7.1543172e-07 0)
(0.13554219 -2.5462592e-07 0)
(0.067800633 -6.8699698e-08 0)
(0.019859429 -1.094159e-08 0)
(0.019859002 7.2700998e-09 0)
(0.067799193 5.0856894e-08 0)
(0.13553936 2.1733589e-07 0)
(0.22997961 6.4991466e-07 0)
(0.35912234 1.6142932e-06 0)
(0.53089102 3.568897e-06 0)
(0.75049046 7.1827997e-06 0)
(1.0158574 1.3126324e-05 0)
(1.3117249 2.1223949e-05 0)
(1.6050136 2.8556486e-05 0)
(1.8467212 2.7790327e-05 0)
(1.9847433 1.2073836e-05 0)
(1.9847433 -1.2072417e-05 0)
(1.8467212 -2.7788208e-05 0)
(1.6050136 -2.8552431e-05 0)
(1.3117249 -2.1217695e-05 0)
(1.0158574 -1.312126e-05 0)
(0.75049047 -7.1863162e-06 0)
(0.53089103 -3.5878635e-06 0)
(0.35912234 -1.6486982e-06 0)
(0.22997961 -6.9122351e-07 0)
(0.13553936 -2.5367801e-07 0)
(0.067799191 -7.2678549e-08 0)
(0.019859002 -1.2020472e-08 0)
(0.0198586 6.8776373e-09 0)
(0.067797836 4.8122364e-08 0)
(0.13553669 2.0568134e-07 0)
(0.22997518 6.1503928e-07 0)
(0.35911566 1.5274576e-06 0)
(0.5308817 3.3764254e-06 0)
(0.75047849 6.7950534e-06 0)
(1.0158438 1.2419122e-05 0)
(1.3117128 2.0087001e-05 0)
(1.605009 2.7039993e-05 0)
(1.84673 2.6362023e-05 0)
(1.9847642 1.1469324e-05 0)
(1.9847642 -1.1468177e-05 0)
(1.84673 -2.6359367e-05 0)
(1.6050089 -2.703417e-05 0)
(1.3117128 -2.0078236e-05 0)
(1.0158438 -1.2412599e-05 0)
(0.7504785 -6.8009508e-06 0)