/*--------------------------------*- C++ -*----------------------------------*\
| =========                 |                                                 |
| \\      /  F ield         | OpenFOAM: The Open Source CFD Toolbox           |
|  \\    /   O peration     | Version:  2406                                  |
|   \\  /    A nd           | Website:  www.openfoam.com                      |
|    \\/     M anipulation  |                                                 |
\*---------------------------------------------------------------------------*/
FoamFile
{
    version     2.0;
    format      ascii;
    arch        "LSB;label=32;scalar=64";
    class       volScalarField;
    location    "31";
    object      p;
}
// * * * * * * * * * * * * * * * * * * * * * * * * * * * * * * * * * * * * * //

dimensions      [0 2 -2 0 0 0 0];

internalField   nonuniform List<scalar> 
1176
(
0.79699976
0.79702263
0.7970463
0.79705396
0.79702243
0.79692774
0.79677051
0.79658434
0.79640514
0.79623799
0.79608336
0.79598776
0.79598776
0.79608337
0.79623799
0.79640515
0.79658436
0.79677054
0.79692779
0.79702251
0.79705406
0.79704642
0.79702276
0.79699989
0.77385133
0.77380437
0.77375661
0.77373972
0.77380222
0.77400457
0.77436989
0.7748343
0.77526516
0.77555126
0.77567066
0.77570492
0.77570492
0.77567066
0.77555126
0.77526514
0.77483427
0.77436983
0.77400448
0.7738021
0.77373957
0.77375645
0.77380421
0.77385117
0.75676657
0.75678859
0.75680838
0.75680647
0.75674741
0.75658623
0.75631447
0.75598652
0.75568031
0.75546752
0.75535671
0.7553079
0.7553079
0.75535672
0.75546753
0.75568032
0.75598654
0.75631449
0.75658625
0.75674742
0.75680649
0.75680839
0.7567886
0.75676658
0.74009468
0.74010381
0.74011587
0.74013227
0.74015481
0.74017238
0.74014015
0.74000674
0.73977462
0.73950206
0.73927785
0.73915736
0.73915736
0.73927785
0.73950206
0.73977463
0.74000674
0.74014015
0.74017238
0.74015481
0.74013227
0.74011586
0.74010381
0.74009468
0.72367563
0.72367959
0.72368458
0.72369064
0.72370034
0.72372062
0.7237568
0.72379831
0.72381998
0.72379611
0.72373399
0.72368136
0.72368136
0.72373399
0.72379611
0.72381999
0.72379832
0.7237568
0.72372062
0.72370034
0.72369064
0.72368457
0.72367958
0.72367563
0.70721398
0.70721639
0.70721964
0.70722368
0.70722859
0.70723542
0.70724959
0.7072809
0.70733089
0.70738814
0.70743085
0.7074475
0.7074475
0.70743085
0.70738814
0.7073309
0.70728091
0.70724959
0.70723542
0.70722859
0.70722368
0.70721964
0.70721639
0.70721398
0.69080817
0.69081031
0.69081312
0.69081654
0.69082044
0.69082395
0.69082602
0.6908282
0.69083675
0.69085398
0.69087187
0.69088359
0.69088359
0.69087187
0.69085398
0.69083675
0.6908282
0.69082602
0.69082396
0.69082044
0.69081654
0.69081312
0.69081031
0.69080817
0.6744283
0.67443006
0.67443239
0.67443531
0.67443898
0.67444335
0.6744478
0.67445096
0.6744522
0.67445381
0.67445086
0.67444835
0.67444835
0.67445086
0.67445381
0.6744522
0.67445096
0.6744478
0.67444335
0.67443898
0.67443531
0.67443239
0.67443006
0.6744283
0.65807402
0.65807547
0.6580774
0.65807981
0.65808283
0.65808661
0.65809166
0.65809871
0.65810739
0.65811742
0.65812519
0.65812877
0.65812877
0.65812519
0.65811742
0.65810739
0.65809871
0.65809166
0.65808662
0.65808283
0.65807981
0.6580774
0.65807547
0.65807402
0.64173633
0.64173753
0.64173914
0.64174117
0.64174374
0.64174691
0.64175108
0.64175747
0.64176763
0.64178076
0.64179509
0.64180439
0.64180439
0.64179509
0.64178076
0.64176763
0.64175747
0.64175108
0.64174691
0.64174374
0.64174117
0.64173914
0.64173753
0.64173632
0.62541195
0.62541297
0.62541435
0.62541609
0.62541831
0.62542103
0.62542443
0.62542927
0.62543714
0.6254478
0.62546036
0.62546949
0.62546949
0.62546036
0.6254478
0.62543714
0.62542927
0.62542443
0.62542103
0.62541831
0.62541609
0.62541435
0.62541297
0.62541194
0.60909847
0.60909936
0.60910056
0.60910209
0.60910403
0.60910643
0.60910939
0.6091134
0.60911962
0.60912828
0.60913884
0.60914629
0.60914629
0.60913884
0.60912828
0.60911962
0.6091134
0.60910939
0.60910643
0.60910403
0.60910208
0.60910056
0.60909936
0.60909847
0.59279428
0.59279506
0.59279612
0.59279747
0.59279919
0.59280132
0.59280395
0.59280749
0.59281289
0.59282064
0.59283033
0.59283701
0.59283701
0.59283033
0.59282064
0.5928129
0.59280749
0.59280395
0.59280132
0.59279919
0.59279746
0.59279612
0.59279506
0.59279427
0.57649806
0.57649876
0.5764997
0.5765009
0.57650244
0.57650434
0.57650669
0.57650983
0.5765146
0.57652157
0.57653024
0.57653633
0.57653633
0.57653024
0.57652157
0.5765146
0.57650983
0.57650669
0.57650434
0.57650243
0.5765009
0.57649969
0.57649875
0.57649805
0.56020879
0.56020942
0.56021026
0.56021134
0.56021273
0.56021444
0.56021654
0.56021931
0.56022347
0.5602296
0.56023712
0.56024252
0.56024253
0.56023712
0.5602296
0.56022347
0.56021931
0.56021654
0.56021444
0.56021272
0.56021134
0.56021025
0.56020941
0.56020878
0.54392567
0.54392623
0.543927
0.54392798
0.54392923
0.54393079
0.54393268
0.54393514
0.54393877
0.54394415
0.54395069
0.54395548
0.54395548
0.54395069
0.54394415
0.54393878
0.54393514
0.54393268
0.54393079
0.54392923
0.54392797
0.54392699
0.54392622
0.54392565
0.52764804
0.52764856
0.52764925
0.52765015
0.52765129
0.52765271
0.52765443
0.52765663
0.52765985
0.52766461
0.52767034
0.52767463
0.52767463
0.52767034
0.52766462
0.52765985
0.52765663
0.52765443
0.5276527
0.52765128
0.52765013
0.52764924
0.52764854
0.52764802
0.51137536
0.51137584
0.51137647
0.51137729
0.51137833
0.51137963
0.5113812
0.51138319
0.51138607
0.51139032
0.51139537
0.51139923
0.51139923
0.51139537
0.51139032
0.51138607
0.5113832
0.5113812
0.51137963
0.51137832
0.51137727
0.51137645
0.51137582
0.51137534
0.49510717
0.4951076
0.49510819
0.49510893
0.4951099
0.49511109
0.49511253
0.49511434
0.49511691
0.49512072
0.49512522
0.4951287
0.4951287
0.49512522
0.49512072
0.49511692
0.49511434
0.49511253
0.49511108
0.49510989
0.49510892
0.49510816
0.49510758
0.49510714
0.47884306
0.47884346
0.47884399
0.47884469
0.47884557
0.47884667
0.478848
0.47884965
0.47885197
0.47885539
0.47885943
0.47886258
0.47886258
0.47885943
0.4788554
0.47885197
0.47884965
0.478848
0.47884667
0.47884556
0.47884467
0.47884397
0.47884343
0.47884303
0.46258269
0.46258306
0.46258355
0.46258419
0.46258501
0.46258603
0.46258725
0.46258876
0.46259087
0.46259397
0.46259761
0.46260048
0.46260048
0.46259761
0.46259397
0.46259087
0.46258877
0.46258725
0.46258602
0.462585
0.46258417
0.46258352
0.46258302
0.46258265
0.44632575
0.44632609
0.44632656
0.44632715
0.44632791
0.44632885
0.44632999
0.44633138
0.44633329
0.44633611
0.44633942
0.44634203
0.44634203
0.44633943
0.44633611
0.4463333
0.44633138
0.44632999
0.44632885
0.44632789
0.44632712
0.44632652
0.44632605
0.44632571
0.43007199
0.4300723
0.43007273
0.43007328
0.43007399
0.43007487
0.43007592
0.4300772
0.43007896
0.43008153
0.43008456
0.43008694
0.43008694
0.43008456
0.43008153
0.43007897
0.43007721
0.43007592
0.43007486
0.43007397
0.43007325
0.43007269
0.43007226
0.43007194
0.41382115
0.41382145
0.41382185
0.41382236
0.41382302
0.41382384
0.41382482
0.413826
0.41382761
0.41382997
0.41383275
0.41383494
0.41383494
0.41383276
0.41382997
0.41382762
0.41382601
0.41382482
0.41382383
0.41382299
0.41382232
0.4138218
0.4138214
0.41382109
0.39757304
0.39757331
0.39757368
0.39757416
0.39757478
0.39757554
0.39757645
0.39757756
0.39757904
0.3975812
0.39758377
0.39758578
0.39758578
0.39758377
0.39758121
0.39757905
0.39757757
0.39757646
0.39757553
0.39757475
0.39757412
0.39757363
0.39757325
0.39757297
0.38132744
0.3813277
0.38132805
0.3813285
0.38132907
0.38132979
0.38133064
0.38133166
0.38133303
0.38133503
0.3813374
0.38133925
0.38133925
0.38133741
0.38133504
0.38133305
0.38133168
0.38133064
0.38132977
0.38132904
0.38132845
0.38132799
0.38132763
0.38132737
0.3650842
0.36508444
0.36508477
0.36508519
0.36508573
0.36508639
0.36508719
0.36508815
0.36508941
0.36509126
0.36509346
0.36509517
0.36509517
0.36509347
0.36509127
0.36508943
0.36508816
0.36508719
0.36508637
0.36508569
0.36508513
0.3650847
0.36508436
0.36508412
0.34884315
0.34884338
0.34884368
0.34884407
0.34884458
0.34884521
0.34884595
0.34884684
0.34884802
0.34884973
0.34885178
0.34885336
0.34885336
0.34885178
0.34884974
0.34884804
0.34884686
0.34884595
0.34884518
0.34884453
0.34884401
0.3488436
0.34884329
0.34884306
0.33260415
0.33260436
0.33260464
0.33260501
0.33260549
0.33260607
0.33260677
0.33260761
0.3326087
0.33261029
0.3326122
0.33261366
0.33261366
0.3326122
0.3326103
0.33260872
0.33260763
0.33260677
0.33260605
0.33260544
0.33260494
0.33260456
0.33260426
0.33260404
0.31636706
0.31636725
0.31636752
0.31636787
0.31636831
0.31636887
0.31636952
0.31637031
0.31637133
0.3163728
0.31637458
0.31637594
0.31637594
0.31637459
0.31637281
0.31637135
0.31637032
0.31636952
0.31636884
0.31636826
0.31636779
0.31636743
0.31636715
0.31636694
0.30013176
0.30013195
0.3001322
0.30013252
0.30013294
0.30013346
0.30013408
0.30013481
0.30013577
0.30013714
0.30013881
0.30014007
0.30014007
0.30013881
0.30013715
0.30013579
0.30013483
0.30013408
0.30013343
0.30013288
0.30013244
0.3001321
0.30013183
0.30013163
0.28389814
0.28389832
0.28389856
0.28389886
0.28389926
0.28389974
0.28390033
0.28390101
0.28390191
0.28390318
0.28390474
0.28390592
0.28390592
0.28390475
0.2839032
0.28390193
0.28390103
0.28390032
0.28389971
0.28389919
0.28389877
0.28389845
0.28389819
0.28389801
0.2676661
0.26766627
0.26766649
0.26766678
0.26766715
0.26766761
0.26766816
0.2676688
0.26766964
0.26767083
0.2676723
0.2676734
0.2676734
0.2676723
0.26767085
0.26766967
0.26766883
0.26766816
0.26766757
0.26766708
0.26766668
0.26766637
0.26766614
0.26766596
0.25143555
0.2514357
0.25143591
0.25143618
0.25143653
0.25143697
0.25143748
0.25143809
0.25143887
0.25143999
0.25144136
0.25144238
0.25144238
0.25144136
0.25144001
0.2514389
0.25143811
0.25143748
0.25143693
0.25143646
0.25143608
0.25143579
0.25143556
0.25143539
0.23520638
0.23520653
0.23520672
0.23520698
0.23520731
0.23520772
0.2352082
0.23520878
0.23520951
0.23521056
0.23521185
0.23521281
0.23521281
0.23521185
0.23521058
0.23520954
0.2352088
0.2352082
0.23520768
0.23520723
0.23520687
0.23520659
0.23520638
0.23520622
0.21897852
0.21897866
0.21897885
0.21897909
0.2189794
0.21897979
0.21898024
0.21898078
0.21898147
0.21898245
0.21898366
0.21898456
0.21898456
0.21898366
0.21898247
0.21898151
0.21898081
0.21898024
0.21897974
0.21897932
0.21897897
0.21897871
0.21897851
0.21897836
0.2027519
0.20275203
0.20275221
0.20275243
0.20275273
0.20275309
0.20275352
0.20275403
0.20275468
0.2027556
0.20275674
0.20275758
0.20275758
0.20275674
0.20275562
0.20275471
0.20275406
0.20275352
0.20275305
0.20275264
0.20275231
0.20275207
0.20275187
0.20275173
0.18652644
0.18652656
0.18652673
0.18652694
0.18652722
0.18652756
0.18652797
0.18652845
0.18652906
0.18652992
0.18653098
0.18653177
0.18653177
0.18653099
0.18652994
0.18652909
0.18652848
0.18652797
0.18652752
0.18652713
0.18652682
0.18652659
0.1865264
0.18652627
0.17030207
0.17030219
0.17030234
0.17030255
0.17030281
0.17030313
0.17030352
0.17030397
0.17030454
0.17030536
0.17030636
0.1703071
0.1703071
0.17030636
0.17030537
0.17030458
0.170304
0.17030351
0.17030309
0.17030272
0.17030242
0.1703022
0.17030203
0.1703019
0.15407874
0.15407885
0.154079
0.15407919
0.15407944
0.15407974
0.15408011
0.15408053
0.15408107
0.15408183
0.15408276
0.15408345
0.15408345
0.15408276
0.15408185
0.15408111
0.15408056
0.1540801
0.1540797
0.15407935
0.15407907
0.15407886
0.15407869
0.15407857
0.13785637
0.13785648
0.13785662
0.1378568
0.13785703
0.13785732
0.13785767
0.13785807
0.13785858
0.13785929
0.13786017
0.13786082
0.13786082
0.13786017
0.13785931
0.13785861
0.13785809
0.13785766
0.13785728
0.13785695
0.13785668
0.13785649
0.13785633
0.13785622
0.12163494
0.12163504
0.12163518
0.12163535
0.12163557
0.12163584
0.12163617
0.12163655
0.12163702
0.12163767
0.12163848
0.12163907
0.12163907
0.12163848
0.12163769
0.12163705
0.12163657
0.12163616
0.1216358
0.12163549
0.12163524
0.12163505
0.12163491
0.1216348
0.10541436
0.10541445
0.10541458
0.10541474
0.10541495
0.10541521
0.10541552
0.10541587
0.10541632
0.10541693
0.10541769
0.10541823
0.10541823
0.10541769
0.10541695
0.10541634
0.1054159
0.10541551
0.10541517
0.10541488
0.10541465
0.10541447
0.10541433
0.10541423
0.089194644
0.089194732
0.089194851
0.089195005
0.089195203
0.089195449
0.089195738
0.089196072
0.089196477
0.089197016
0.089197661
0.089198117
0.089198114
0.08919766
0.08919703
0.089196502
0.089196092
0.089195737
0.089195417
0.089195144
0.089194924
0.089194759
0.08919463
0.089194536
0.072975637
0.07297572
0.072975832
0.072975977
0.072976167
0.072976402
0.072976681
0.072976999
0.072977378
0.072977872
0.072978448
0.072978834
0.072978831
0.072978446
0.072977883
0.0729774
0.072977017
0.07297668
0.072976378
0.072976119
0.072975913
0.072975758
0.072975639
0.072975552
0.056757515
0.056757596
0.056757704
0.056757843
0.05675802
0.056758238
0.056758493
0.05675878
0.056759103
0.056759477
0.056759847
0.05676005
0.056760047
0.056759844
0.056759486
0.056759121
0.056758795
0.056758493
0.05675822
0.056757985
0.056757796
0.056757651
0.056757537
0.056757454
0.040539726
0.040539798
0.040539895
0.040540026
0.040540203
0.040540429
0.040540697
0.040540991
0.040541319
0.040541725
0.040542186
0.040542483
0.04054248
0.040542182
0.04054173
0.040541332
0.040541003
0.040540698
0.040540418
0.040540181
0.040539996
0.040539861
0.04053976
0.040539688
0.024323457
0.02432354
0.024323648
0.024323776
0.024323924
0.024324087
0.024324262
0.024324447
0.024324615
0.024324692
0.024324599
0.024324359
0.024324356
0.024324595
0.024324694
0.024324623
0.024324455
0.024324264
0.024324081
0.024323912
0.02432376
0.024323629
0.02432352
0.024323437
0.0081053635
0.008105434
0.0081055272
0.008105649
0.0081058106
0.0081060113
0.0081062332
0.0081064737
0.0081068523
0.0081076869
0.0081091614
0.0081105247
0.0081105234
0.0081091594
0.0081076876
0.0081068555
0.0081064767
0.0081062338
0.0081060091
0.0081058061
0.008105643
0.0081055206
0.0081054271
0.0081053565
)
;

boundaryField
{
    INLET
    {
        type            zeroGradient;
    }
    OUTLET
    {
        type            fixedValue;
        value           uniform 0;
    }
    WALL
    {
        type            zeroGradient;
    }
    frontAndBackPlanes
    {
        type            empty;
    }
}


// ************************************************************************* //
