/*--------------------------------*- C++ -*----------------------------------*\
| =========                 |                                                 |
| \\      /  F ield         | OpenFOAM: The Open Source CFD Toolbox           |
|  \\    /   O peration     | Version:  2406                                  |
|   \\  /    A nd           | Website:  www.openfoam.com                      |
|    \\/     M anipulation  |                                                 |
\*---------------------------------------------------------------------------*/
FoamFile
{
    version     2.0;
    format      ascii;
    arch        "LSB;label=32;scalar=64";
    class       surfaceScalarField;
    location    "31";
    object      phi;
}
// * * * * * * * * * * * * * * * * * * * * * * * * * * * * * * * * * * * * * //

dimensions      [0 3 -1 0 0 0 0];

oriented        oriented;

internalField   nonuniform List<scalar> 
2279
(
2.3617504e-08
1.0148926e-05
2.0509767e-07
4.982375e-05
6.9331764e-07
0.00014252872
1.5784715e-06
0.00034353082
2.6788475e-06
0.00075378089
3.3472909e-06
0.0015415573
3.0435191e-06
0.0029497096
2.1516828e-06
0.005249171
1.4318019e-06
0.008582269
9.895896e-07
0.012685995
5.1266444e-07
0.016666385
-4.0081032e-12
0.01918202
-5.1267412e-07
0.01918202
-9.8960783e-07
0.016666385
-1.4318414e-06
0.012685995
-2.1517565e-06
0.0085822691
-3.0436284e-06
0.0052491711
-3.3474219e-06
0.0029497097
-2.6789793e-06
0.0015415574
-1.5785831e-06
0.00075378096
-6.9339898e-07
0.00034353086
-2.0514594e-07
0.00014252873
-2.3638391e-08
4.9823754e-05
1.0148927e-05
-9.5248472e-08
1.0244175e-05
-5.379401e-07
5.0266441e-05
-1.6230013e-06
0.00014361378
-3.5389526e-06
0.00034544677
-5.9201871e-06
0.00075616213
-7.4055035e-06
0.0015430426
-6.5847291e-06
0.0029488888
-3.9361623e-06
0.0052465224
-1.3883924e-06
0.0085797213
-6.5123038e-08
0.012684671
2.4240228e-07
0.016666078
-3.9901276e-12
0.019182263
-2.424055e-07
0.019182263
6.5136881e-08
0.016666078
1.3884399e-06
0.012684671
3.9362588e-06
0.0085797212
6.5848786e-06
0.0052465223
7.4056811e-06
0.0029488887
5.9203473e-06
0.0015430426
3.5390609e-06
0.00075616208
1.6230562e-06
0.00034544675
5.3795981e-07
0.00014361377
9.5250211e-08
5.0266437e-05
1.0244174e-05
5.013983e-08
1.0194035e-05
2.6334495e-07
5.0053236e-05
7.4910708e-07
0.00014312802
1.5314582e-06
0.00034466442
2.3366552e-06
0.00075535693
2.5476609e-06
0.0015428316
1.8390943e-06
0.0029495974
9.7567173e-07
0.0052473859
6.7695397e-07
0.00858002
6.7178005e-07
0.012684677
4.8415456e-07
0.016666266
-1.3565668e-11
0.019182747
-4.841841e-07
0.019182747
-6.718155e-07
0.016666266
-6.7699495e-07
0.012684677
-9.757142e-07
0.00858002
-1.8391337e-06
0.0052473859
-2.5476923e-06
0.0029495974
-2.336674e-06
0.0015428316
-1.5314653e-06
0.00075535694
-7.4910702e-07
0.00034466443
-2.6334271e-07
0.00014312802
-5.0137752e-08
5.0053237e-05
1.0194035e-05
1.95867e-08
1.0174448e-05
1.1184921e-07
4.9960974e-05
3.6128421e-07
0.00014287858
9.0504763e-07
0.00034412066
1.8716596e-06
0.00075439032
3.0948229e-06
0.0015416085
3.8987227e-06
0.0029487935
3.728553e-06
0.005247556
2.9242077e-06
0.0085808243
1.9733714e-06
0.012685627
1.0127687e-06
0.016667226
1.3733043e-12
0.01918376
-1.012765e-06
0.01918376
-1.973366e-06
0.016667226
-2.9242027e-06
0.012685627
-3.728546e-06
0.0085808243
-3.8987136e-06
0.005247556
-3.0948151e-06
0.0029487935
-1.8716562e-06
0.0015416085
-9.050481e-07
0.00075439032
-3.6128674e-07
0.00034412066
-1.1185175e-07
0.00014287858
-1.9588213e-08
4.9960974e-05
1.0174448e-05
8.0838953e-09
1.0166364e-05
4.7141379e-08
4.9921916e-05
1.5494674e-07
0.00014277078
3.9846293e-07
0.00034387714
8.797943e-07
0.00075390899
1.7015157e-06
0.0015407867
2.7512739e-06
0.0029477437
3.4623593e-06
0.0052468449
3.4708586e-06
0.0085808158
2.8006827e-06
0.012686298
1.5505105e-06
0.016668476
-5.4722437e-12
0.01918531
-1.5505231e-06
0.01918531
-2.8006984e-06
0.016668476
-3.470873e-06
0.012686298
-3.4623677e-06
0.0085808158
-2.751273e-06
0.0052468449
-1.7015083e-06
0.0029477437
-8.7978588e-07
0.0015407867
-3.9845731e-07
0.00075390899
-1.5494436e-07
0.00034387714
-4.7140856e-08
0.00014277078
-8.0841176e-09
4.9921916e-05
1.0166364e-05
4.9358376e-09
1.0161429e-05
2.8698782e-08
4.9898153e-05
9.512133e-08
0.00014270436
2.4921418e-07
0.00034372305
5.6360907e-07
0.00075359459
1.1213742e-06
0.001540229
1.9184562e-06
0.0029469467
2.6588183e-06
0.0052461046
2.8930558e-06
0.0085805816
2.4787628e-06
0.012686712
1.4344221e-06
0.016669521
-4.7287939e-12
0.019186745
-1.4344328e-06
0.019186745
-2.4787762e-06
0.016669521
-2.8930699e-06
0.012686712
-2.6588282e-06
0.0085805816
-1.9184606e-06
0.0052461046
-1.1213754e-06
0.0029469467
-5.6360893e-07
0.001540229
-2.4921374e-07
0.00075359459
-9.5120961e-08
0.00034372305
-2.8698583e-08
0.00014270436
-4.9357656e-09
4.9898153e-05
1.0161429e-05
4.4123342e-09
1.0157016e-05
2.5525626e-08
4.987704e-05
8.3830039e-08
0.00014264605
2.16894e-07
0.00034358999
4.8450081e-07
0.00075332698
9.5636013e-07
0.0015397571
1.6413723e-06
0.0029462616
2.3245803e-06
0.0052454214
2.5939506e-06
0.0085803122
2.23936e-06
0.012687066
1.3066707e-06
0.016670453
-2.8650056e-12
0.019188051
-1.3066775e-06
0.019188051
-2.2393688e-06
0.016670453
-2.5939591e-06
0.012687066
-2.3245851e-06
0.0085803122
-1.6413745e-06
0.0052454214
-9.5636096e-07
0.0029462616
-4.8450118e-07
0.0015397571
-2.1689423e-07
0.00075332698
-8.3830157e-08
0.00034358999
-2.5525664e-08
0.00014264605
-4.4123356e-09
4.987704e-05
1.0157016e-05
3.6255288e-09
1.0153391e-05
2.1036567e-08
4.9859629e-05
6.9438063e-08
0.00014259765
1.8114136e-07
0.00034347828
4.0971407e-07
0.00075309841
8.239033e-07
0.0015393429
1.4539914e-06
0.0029456316
2.1430742e-06
0.0052447323
2.4674715e-06
0.0085799878
2.1883917e-06
0.012687346
1.286641e-06
0.016671355
-1.5938675e-12
0.019189338
-1.286645e-06
0.019189338
-2.1883966e-06
0.016671355
-2.4674759e-06
0.012687346
-2.1430768e-06
0.0085799878
-1.4539932e-06
0.0052447323
-8.2390438e-07
0.0029456316
-4.0971457e-07
0.0015393429
-1.8114145e-07
0.00075309841
-6.9437969e-08
0.00034347828
-2.1036449e-08
0.00014259765
-3.6254598e-09
4.9859629e-05
1.0153391e-05
2.9831325e-09
1.0150408e-05
1.7346994e-08
4.9845265e-05
5.7377256e-08
0.00014255762
1.5007374e-07
0.00034338559
3.4097093e-07
0.00075290751
6.9193144e-07
0.001538992
1.2441083e-06
0.0029450794
1.9041855e-06
0.0052440722
2.3016001e-06
0.0085795904
2.0975077e-06
0.01268755
1.25201e-06
0.016672201
-5.0895348e-13
0.01919059
-1.2520113e-06
0.01919059
-2.097509e-06
0.016672201
-2.3016011e-06
0.01268755
-1.9041867e-06
0.0085795904
-1.2441097e-06
0.0052440722
-6.9193253e-07
0.0029450794
-3.4097144e-07
0.001538992
-1.5007377e-07
0.00075290751
-5.7377097e-08
0.00034338559
-1.7346854e-08
0.00014255762
-2.9830671e-09
4.9845265e-05
1.0150408e-05
2.4654285e-09
1.0147942e-05
1.4363117e-08
4.9833367e-05
4.7626466e-08
0.00014252436
1.2502864e-07
0.00034330818
2.8558885e-07
0.00075274695
5.8417935e-07
0.0015386934
1.0641844e-06
0.0029445994
1.6641582e-06
0.0052434722
2.0898751e-06
0.0085791647
1.9528952e-06
0.012687687
1.1802453e-06
0.016672973
3.5298859e-13
0.01919177
-1.1802446e-06
0.01919177
-1.9528942e-06
0.016672973
-2.0898739e-06
0.012687687
-1.6641578e-06
0.0085791647
-1.0641844e-06
0.0052434722
-5.8417922e-07
0.0029445994
-2.8558838e-07
0.0015386934
-1.2502804e-07
0.00075274695
-4.7626038e-08
0.00034330818
-1.4362932e-08
0.00014252436
-2.4654014e-09
4.9833367e-05
1.0147942e-05
2.1024501e-09
1.014584e-05
1.2258066e-08
4.9823212e-05
4.0688267e-08
0.00014249593
1.0699021e-07
0.00034324188
2.4507849e-07
0.00075260887
5.0385311e-07
0.0015384346
9.2623516e-07
0.002944177
1.4715121e-06
0.005242927
1.8909096e-06
0.0085787453
1.8050239e-06
0.012687772
1.1036913e-06
0.016673675
8.5268331e-13
0.019192874
-1.1036894e-06
0.019192874
-1.8050219e-06
0.016673675
-1.8909076e-06
0.012687772
-1.4715107e-06
0.0085787453
-9.2623398e-07
0.0052429269
-5.0385166e-07
0.002944177
-2.450768e-07
0.0015384346
-1.0698874e-07
0.00075260886
-4.0687423e-08
0.00034324188
-1.2257774e-08
0.00014249593
-2.1024498e-09
4.9823212e-05
1.014584e-05
1.8282327e-09
1.0144011e-05
1.0665498e-08
4.9814374e-05
3.5430314e-08
0.00014247116
9.3283038e-08
0.00034318403
2.1413924e-07
0.00075248801
4.4192779e-07
0.0015382068
8.181141e-07
0.0029438008
1.3163817e-06
0.0052424287
1.7244955e-06
0.0085783372
1.6780445e-06
0.012687819
1.0378061e-06
0.016674315
1.1559638e-12
0.019193912
-1.0378037e-06
0.019193912
-1.678042e-06
0.016674315
-1.7244931e-06
0.012687819
-1.3163797e-06
0.0085783372
-8.1811202e-07
0.0052424287
-4.4192513e-07
0.0029438008
-2.1413628e-07
0.0015382068
-9.328062e-08
0.00075248801
-3.5428993e-08
0.00034318403
-1.0665077e-08
0.00014247116
-1.8282588e-09
4.9814374e-05
1.0144011e-05
1.6104865e-09
1.0142401e-05
9.3996729e-09
4.9806585e-05
3.1244445e-08
0.00014244932
8.234047e-08
0.00034313293
1.8932083e-07
0.00075238103
3.9182335e-07
0.0015380043
7.2924219e-07
0.0029434634
1.1851468e-06
0.0052419728
1.578177e-06
0.0085779442
1.5623412e-06
0.012687835
9.7669976e-07
0.0166749
1.2692811e-12
0.019194888
-9.7669712e-07
0.019194888
-1.5623385e-06
0.0166749
-1.5781744e-06
0.012687835
-1.1851445e-06
0.0085779441
-7.2923933e-07
0.0052419728
-3.9181943e-07
0.0029434634
-1.8931645e-07
0.0015380043
-8.2336945e-08
0.00075238103
-3.1242566e-08
0.00034313293
-9.3991012e-09
0.00014244932
-1.6105457e-09
4.9806585e-05
1.0142401e-05
1.4323147e-09
1.0140969e-05
8.3630416e-09
4.9799655e-05
2.7812685e-08
0.00014242987
7.3352934e-08
0.00034308739
1.6886907e-07
0.00075228551
3.5026854e-07
0.0015378229
6.5458395e-07
0.0029431591
1.0720606e-06
0.0052415553
1.4464352e-06
0.0085775698
1.4548779e-06
0.012687826
9.1881092e-07
0.016675437
1.1604816e-12
0.019195807
-9.188085e-07
0.019195807
-1.4548754e-06
0.016675437
-1.4464328e-06
0.012687826
-1.0720581e-06
0.0085775698
-6.545804e-07
0.0052415553
-3.5026324e-07
0.0029431591
-1.6886305e-07
0.0015378229
-7.3348118e-08
0.00075228551
-2.7810153e-08
0.00034308739
-8.3622962e-09
0.00014242987
-1.4324155e-09
4.9799655e-05
1.0140969e-05
1.2850082e-09
1.0139684e-05
7.5051217e-09
4.9793434e-05
2.4968955e-08
0.0001424124
6.5891346e-08
0.00034304647
1.5183846e-07
0.00075219957
3.1548606e-07
0.0015376593
5.9149774e-07
0.0029428831
9.7478845e-07
0.005241172
1.3297064e-06
0.0085772149
1.3567886e-06
0.012687799
8.6525312e-07
0.016675928
8.5417201e-13
0.019196672
-8.6525129e-07
0.019196672
-1.3567866e-06
0.016675928
-1.3297045e-06
0.012687799
-9.7478616e-07
0.0085772149
-5.9149354e-07
0.005241172
-3.1547922e-07
0.0029428831
-1.5183055e-07
0.0015376593
-6.5885032e-08
0.00075219957
-2.4965672e-08
0.00034304647
-7.5041805e-09
0.0001424124
-1.285161e-09
4.9793434e-05
1.0139684e-05
1.1614967e-09
1.0138522e-05
6.7852536e-09
4.9787811e-05
2.2580581e-08
0.00014239661
5.9615636e-08
0.00034300944
1.3748151e-07
0.0007521217
2.8604734e-07
0.0015375107
5.3771207e-07
0.0029426314
8.9070737e-07
0.005240819
1.2263991e-06
0.0085768792
1.2674907e-06
0.012687758
8.1592736e-07
0.01667638
3.8488523e-13
0.019197488
-8.1592648e-07
0.019197488
-1.2674897e-06
0.01667638
-1.2263981e-06
0.012687758
-8.9070547e-07
0.0085768792
-5.377072e-07
0.005240819
-2.8603873e-07
0.0029426314
-1.3747141e-07
0.0015375107
-5.9607604e-08
0.0007521217
-2.2576441e-08
0.00034300943
-6.7840943e-09
0.00014239661
-1.1617125e-09
4.9787811e-05
1.0138522e-05
1.0561574e-09
1.0137466e-05
6.1710265e-09
4.9782696e-05
2.054145e-08
0.00014238224
5.4252301e-08
0.00034297572
1.2519106e-07
0.00075205076
2.6076844e-07
0.0015373751
4.9125243e-07
0.0029424009
8.1722602e-07
0.005240493
1.1341844e-06
0.0085765622
1.185791e-06
0.012687707
7.702148e-07
0.016676795
-1.8331503e-13
0.019198259
-7.7021518e-07
0.019198259
-1.1857914e-06
0.016676795
-1.1341846e-06
0.012687707
-8.1722469e-07
0.0085765622
-4.9124683e-07
0.005240493
-2.6075781e-07
0.0029424009
-1.2517849e-07
0.0015373751
-5.4242326e-08
0.00075205076
-2.0536348e-08
0.00034297572
-6.1696249e-09
0.00014238224
-1.0564466e-09
4.9782696e-05
1.0137466e-05
9.6515554e-10
1.0136501e-05
5.6402024e-09
4.9778021e-05
1.8778335e-08
0.0001423691
4.961133e-08
0.00034294489
1.1454173e-07
0.00075198583
2.3881107e-07
0.0015372509
4.5070414e-07
0.002942189
7.5248295e-07
0.0052401913
1.0514998e-06
0.0085762632
1.1108312e-06
0.012687647
7.2768787e-07
0.016677178
-9.5733395e-13
0.019198986
-7.2768979e-07
0.019198986
-1.1108332e-06
0.016677178
-1.0515016e-06
0.012687647
-7.5248231e-07
0.0085762632
-4.5069775e-07
0.0052401913
-2.3879819e-07
0.002942189
-1.1452638e-07
0.0015372509
-4.9599182e-08
0.00075198583
-1.8772159e-08
0.00034294489
-5.6385317e-09
0.0001423691
-9.655277e-10
4.9778021e-05
1.0136501e-05
8.8581171e-10
1.0135615e-05
5.1772188e-09
4.9773729e-05
1.7239859e-08
0.00014235704
4.555886e-08
0.00034291657
1.0523207e-07
0.00075192616
2.1957616e-07
0.0015371365
4.1504177e-07
0.0029419936
6.9508847e-07
0.0052399112
9.7709322e-07
0.0085759812
1.041866e-06
0.012687582
6.8800341e-07
0.016677532
-1.7553065e-12
0.019199674
-6.8800701e-07
0.019199674
-1.0418699e-06
0.016677532
-9.7709668e-07
0.012687582
-6.9508861e-07
0.0085759812
-4.1503448e-07
0.0052399112
-2.1956076e-07
0.0029419936
-1.0521363e-07
0.0015371365
-4.5544295e-08
0.00075192616
-1.7232489e-08
0.00034291657
-5.1752496e-09
0.00014235704
-8.8627661e-10
4.9773729e-05
1.0135615e-05
8.1602977e-10
1.0134799e-05
4.7699134e-09
4.9769776e-05
1.5885897e-08
0.00014234592
4.1990373e-08
0.00034289047
9.7026395e-08
0.00075187112
2.0259283e-07
0.0015370309
3.8344776e-07
0.0029418127
6.4389414e-07
0.0052396508
9.0984089e-07
0.0085757152
9.7823372e-07
0.012687514
6.5086382e-07
0.01667786
-2.5518619e-12
0.019200325
-6.5086914e-07
0.019200325
-9.7823953e-07
0.01667786
-9.0984618e-07
0.012687514
-6.438951e-07
0.0085757152
-3.8343945e-07
0.0052396508
-2.0257463e-07
0.0029418127
-9.7004518e-08
0.0015370309
-4.1973126e-08
0.00075187112
-1.5877203e-08
0.00034289047
-4.7676135e-09
0.00014234592
-8.1659783e-10
4.9769775e-05
1.0134799e-05
7.5415883e-10
1.0134045e-05
4.408698e-09
4.9766121e-05
1.4684787e-08
0.00014233564
3.8823257e-08
0.00034286633
8.9737887e-08
0.00075182021
1.8748583e-07
0.0015369332
3.5526369e-07
0.0029416449
5.9795608e-07
0.0052394081
8.4878572e-07
0.0085754644
9.1936374e-07
0.012687443
6.1600729e-07
0.016678163
-3.3122095e-12
0.019200941
-6.1601429e-07
0.019200941
-9.1937153e-07
0.016678163
-8.4879286e-07
0.012687443
-5.9795778e-07
0.0085754644
-3.5525415e-07
0.0052394081
-1.8746449e-07
0.0029416449
-8.971219e-08
0.0015369332
-3.8803035e-08
0.0007518202
-1.4674627e-08
0.00034286633
-4.4060332e-09
0.00014233564
-7.5484169e-10
4.9766121e-05
1.0134045e-05
6.9890983e-10
1.0133346e-05
4.086077e-09
4.9762734e-05
1.3611734e-08
0.00014232612
3.5992675e-08
0.00034284395
8.321943e-08
0.00075177298
1.7395803e-07
0.0015368425
3.2996299e-07
0.0029414889
5.5650446e-07
0.0052391815
7.9311736e-07
0.0085752278
8.6476464e-07
0.012687372
5.8322783e-07
0.016678444
-4.0083439e-12
0.019201524
-5.8323642e-07
0.019201524
-8.6477435e-07
0.016678444
-7.9312628e-07
0.012687372
-5.5650682e-07
0.0085752278
-3.2995201e-07
0.0052391815
-1.7393314e-07
0.0029414889
-8.318949e-08
0.0015368425
-3.5969165e-08
0.00075177298
-1.3599958e-08
0.00034284395
-4.083012e-09
0.00014232612
-6.9972062e-10
4.9762734e-05
1.0133346e-05
6.4926649e-10
1.0132697e-05
3.7961365e-09
4.9759587e-05
1.264716e-08
0.00014231727
3.3447358e-08
0.00034282315
7.735443e-08
0.00075172907
1.6177304e-07
0.001536758
3.0712409e-07
0.0029413436
5.1891605e-07
0.0052389697
7.4216893e-07
0.0085750045
8.1400989e-07
0.0126873
5.5233837e-07
0.016678706
-4.6250137e-12
0.019202077
-5.523484e-07
0.019202077
-8.1402142e-07
0.016678706
-7.4217958e-07
0.0126873
-5.1891896e-07
0.0085750046
-3.0711139e-07
0.0052389698
-1.617442e-07
0.0029413436
-7.7319796e-08
0.001536758
-3.3420229e-08
0.00075172907
-1.2633613e-08
0.00034282315
-3.7926366e-09
0.00014231727
-6.5021969e-10
4.9759587e-05
1.0132697e-05
6.0441478e-10
1.0132092e-05
3.5341374e-09
4.9756657e-05
1.1775364e-08
0.00014230903
3.1146145e-08
0.00034280378
7.2049102e-08
0.00075168817
1.5074011e-07
0.0015366793
2.8640455e-07
0.0029412079
4.8467768e-07
0.0052387715
6.9537641e-07
0.0085747938
7.667395e-07
0.012687229
5.2320013e-07
0.01667895
-5.1640846e-12
0.0192026
-5.2321148e-07
0.0192026
-7.6675276e-07
0.01667895
-6.9538873e-07
0.012687229
-4.8468103e-07
0.0085747939
-2.8638986e-07
0.0052387715
-1.5070688e-07
0.0029412079
-7.2009315e-08
0.0015366793
-3.1115065e-08
0.00075168817
-1.1759893e-08
0.00034280377
-3.5301693e-09
0.00014230903
-6.0552582e-10
4.9756657e-05
1.0132092e-05
5.6369611e-10
1.0131528e-05
3.2962441e-09
4.9753925e-05
1.0983632e-08
0.00014230134
2.9055684e-08
0.0003427857
6.7227371e-08
0.00075165
1.4070417e-07
0.0015366059
2.6752492e-07
0.0029410811
4.5336784e-07
0.0052385856
6.5227087e-07
0.0085745949
7.2263155e-07
0.012687158
4.9566954e-07
0.016679177
-5.6369353e-12
0.019203096
-4.9568208e-07
0.019203096
-7.2264648e-07
0.016679177
-6.5228484e-07
0.012687158
-4.5337155e-07
0.008574595
-2.6750797e-07
0.0052385856
-1.4066613e-07
0.0029410811
-6.7181979e-08
0.0015366059
-2.9020329e-08
0.00075164999
-1.0966091e-08
0.0003427857
-3.2917777e-09
0.00014230134
-5.6498083e-10
4.9753924e-05
1.0131529e-05
5.2657131e-10
1.0131002e-05
3.0793154e-09
4.9751372e-05
1.0261549e-08
0.00014229416
2.7148623e-08
0.00034276882
6.2826758e-08
0.00075161432
1.3153754e-07
0.0015365372
2.5025382e-07
0.0029409624
4.2463293e-07
0.0052384112
6.1244811e-07
0.0085744071
6.8141819e-07
0.012687089
4.696526e-07
0.016679388
-6.0698835e-12
0.019203565
-4.6966629e-07
0.019203565
-6.8143477e-07
0.016679388
-6.1246375e-07
0.012687089
-4.2463695e-07
0.0085744071
-2.502344e-07
0.0052384113
-1.3149428e-07
0.0029409624
-6.2775336e-08
0.0015365372
-2.7108696e-08
0.00075161431
-1.0241804e-08
0.00034276881
-3.0743244e-09
0.00014229416
-5.2804528e-10
4.9751372e-05
1.0131002e-05
4.9259589e-10
1.0130509e-05
2.8807602e-09
4.9748984e-05
9.600519e-09
0.00014228744
2.5402394e-08
0.00034275302
5.8795689e-08
0.00075158092
1.2313473e-07
0.0015364728
2.3439983e-07
0.0029408511
3.9818e-07
0.0052382475
5.7557162e-07
0.0085742297
6.4284723e-07
0.012687022
4.4502795e-07
0.016679586
-6.4955551e-12
0.01920401
-4.4504278e-07
0.01920401
-6.4286551e-07
0.016679586
-5.7558901e-07
0.012687022
-3.9818432e-07
0.0085742298
-2.3437773e-07
0.0052382475
-1.2308589e-07
0.0029408511
-5.8737864e-08
0.0015364728
-2.5357634e-08
0.00075158092
-9.5784568e-09
0.00034275301
-2.8752247e-09
0.00014228744
-4.9427391e-10
4.9748983e-05
1.0130509e-05
4.6139843e-10
1.0130048e-05
2.6984138e-09
4.9746747e-05
8.9933589e-09
0.00014228114
2.3798114e-08
0.00034273821
5.5090946e-08
0.00075154963
1.1540709e-07
0.0015364125
2.1980118e-07
0.0029407467
3.7375766e-07
0.0052380935
5.4134388e-07
0.0085740622
6.0671843e-07
0.012686957
4.2173603e-07
0.016679771
-6.9348185e-12
0.019204432
-4.2175205e-07
0.019204432
-6.0673853e-07
0.016679771
-5.4136315e-07
0.012686957
-3.7376231e-07
0.0085740622
-2.1977624e-07
0.0052380935
-1.1535238e-07
0.0029407467
-5.5026411e-08
0.0015364125
-2.3748312e-08
0.00075154962
-8.9688928e-09
0.00034273821
-2.6923208e-09
0.00014228114
-4.6329398e-10
4.9746746e-05
1.0130048e-05
4.3266665e-10
1.0129615e-05
2.5304543e-09
4.9744649e-05
8.4340238e-09
0.00014227524
2.2319902e-08
0.00034272432
5.1676214e-08
0.00075152027
1.082802e-07
0.0015363559
2.0632209e-07
0.0029406487
3.5115586e-07
0.0052379487
5.0951677e-07
0.0085739038
5.7282402e-07
0.012686893
3.9966227e-07
0.016679944
-7.4071154e-12
0.019204832
-3.9967957e-07
0.019204832
-5.7284608e-07
0.016679944
-5.0953808e-07
0.012686893
-3.5116091e-07
0.0085739038
-2.0629423e-07
0.0052379487
-1.0821941e-07
0.0029406487
-5.1604747e-08
0.0015363559
-2.2264916e-08
0.00075152027
-8.4070997e-09
0.00034272432
-2.5238002e-09
0.00014227524
-4.3479136e-10
4.9744648e-05
1.0129615e-05
4.0613541e-10
1.0129209e-05
2.3753368e-09
4.9742679e-05
7.9173842e-09
0.0001422697
2.0954259e-08
0.00034271129
4.852053e-08
0.00075149271
1.0169034e-07
0.0015363027
1.9384554e-07
0.0029405565
3.3019004e-07
0.0052378123
4.7986525e-07
0.0085737541
5.4101738e-07
0.012686832
3.7877886e-07
0.016680107
-7.9170992e-12
0.01920521
-3.7879755e-07
0.01920521
-5.4104155e-07
0.016680107
-4.7988876e-07
0.012686832
-3.3019555e-07
0.0085737541
-1.938147e-07
0.0052378124
-1.0162334e-07
0.0029405565
-4.8442012e-08
0.0015363027
-2.0894026e-08
0.0007514927
-7.8879894e-09
0.00034271128
-2.3681291e-09
0.00014226969
-4.0849883e-10
4.9742679e-05
1.0129209e-05
3.8157723e-10
1.0128828e-05
2.2317324e-09
4.9740829e-05
7.4390294e-09
0.00014226449
1.9689604e-08
0.00034269903
4.5597423e-08
0.0007514668
9.5583221e-08
0.0015362527
1.8227213e-07
0.0029404698
3.1070503e-07
0.0052376839
4.5220091e-07
0.0085736126
5.1111532e-07
0.012686773
3.589646e-07
0.016680259
-8.4547729e-12
0.019205569
-3.5898476e-07
0.019205569
-5.1114173e-07
0.016680259
-4.5222674e-07
0.012686773
-3.1071107e-07
0.0085736126
-1.822383e-07
0.0052376839
-9.5509972e-08
0.0029404698
-4.5511853e-08
0.0015362527
-1.9624154e-08
0.00075146679
-7.4071982e-09
0.00034269903
-2.2239913e-09
0.00014226449
-3.8418587e-10
4.9740829e-05
1.0128828e-05
3.5879806e-10
1.0128469e-05
2.0985124e-09
4.9739089e-05
6.9952105e-09
0.00014225959
1.8516044e-08
0.00034268751
4.288412e-08
0.00075144243
8.9911761e-08
0.0015362057
1.7151487e-07
0.0029403882
2.9256189e-07
0.0052375628
4.2635097e-07
0.0085734788
4.8302012e-07
0.012686717
3.4022744e-07
0.016680402
-8.9981182e-12
0.01920591
-3.4024912e-07
0.01920591
-4.8304884e-07
0.016680402
-4.263792e-07
0.012686717
-2.925685e-07
0.0085734789
-1.7147808e-07
0.0052375629
-8.9832349e-08
0.0029403882
-4.2791635e-08
0.0015362057
-1.844552e-08
0.00075144242
-6.9610331e-09
0.00034268751
-2.0902729e-09
0.00014225959
-3.616547e-10
4.9739089e-05
1.0128469e-05
3.3762591e-10
1.0128131e-05
1.9746685e-09
4.9737452e-05
6.5825808e-09
0.00014225498
1.7424818e-08
0.00034267667
4.0360663e-08
0.00075141949
8.4635093e-08
0.0015361614
1.614987e-07
0.0029403113
2.7564227e-07
0.0052374487
4.0216636e-07
0.0085733523
4.5655455e-07
0.012686662
3.2242484e-07
0.016680536
-9.5195969e-12
0.019206232
-3.2244797e-07
0.019206232
-4.5658556e-07
0.016680536
-4.0219697e-07
0.012686662
-2.7564945e-07
0.0085733523
-1.6145903e-07
0.0052374487
-8.4549728e-08
0.0029403113
-4.0261566e-08
0.0015361614
-1.7349494e-08
0.00075141948
-6.5462168e-09
0.00034267666
-1.9659849e-09
0.00014225498
-3.4072964e-10
4.9737451e-05
1.0128131e-05
3.1791799e-10
1.0127813e-05
1.8593753e-09
4.9735911e-05
6.1983962e-09
0.00014225064
1.6408634e-08
0.00034266646
3.8010101e-08
0.00075139789
7.9717879e-08
0.0015361197
1.5215796e-07
0.0029402389
2.5984069e-07
0.005237341
3.7951647e-07
0.0085732326
4.3167399e-07
0.01268661
3.0561143e-07
0.016680662
-9.9255877e-12
0.019206538
-3.0563582e-07
0.019206538
-4.3170715e-07
0.016680662
-3.7954936e-07
0.01268661
-2.5984839e-07
0.0085732327
-1.5211553e-07
0.0052373411
-7.9626915e-08
0.0029402389
-3.7904879e-08
0.0015361197
-1.6328932e-08
0.00075139788
-6.1600771e-09
0.00034266645
-1.8503192e-09
0.00014225064
-3.2126144e-10
4.973591e-05
1.0127813e-05
2.9953729e-10
1.0127514e-05
1.7518214e-09
4.9734458e-05
5.8399644e-09
0.00014224655
1.5460506e-08
0.00034265684
3.5816721e-08
0.00075137753
7.5128196e-08
0.0015360804
1.4343378e-07
0.0029401706
2.4506234e-07
0.0052372394
3.5827365e-07
0.0085731194
4.0818483e-07
0.01268656
2.896039e-07
0.01668078
-1.0181355e-11
0.019206827
-2.8962926e-07
0.019206827
-4.0821988e-07
0.01668078
-3.5830859e-07
0.01268656
-2.4507047e-07
0.0085731195
-1.4338878e-07
0.0052372394
-7.5032168e-08
0.0029401706
-3.5706083e-08
0.0015360804
-1.5377024e-08
0.00075137752
-5.8000099e-09
0.00034265683
-1.7424865e-09
0.00014224655
-3.0310629e-10
4.9734457e-05
1.0127514e-05
2.8238407e-10
1.0127232e-05
1.6514432e-09
4.9733089e-05
5.5054063e-09
0.0001422427
1.4575321e-08
0.00034264777
3.3768265e-08
0.00075135833
7.0839898e-08
0.0015360433
1.3527741e-07
0.0029401061
2.3123032e-07
0.0052371434
3.3834986e-07
0.0085730123
3.8611167e-07
0.012686512
2.745237e-07
0.016680892
-1.0181702e-11
0.019207102
-2.7454958e-07
0.019207102
-3.8614819e-07
0.016680892
-3.383865e-07
0.012686512
-2.3123872e-07
0.0085730123
-1.352301e-07
0.0052371435
-7.0739554e-08
0.0029401062
-3.3653192e-08
0.0015360433
-1.4488875e-08
0.00075135832
-5.4642477e-09
0.00034264776
-1.6419553e-09
0.0001422427
-2.8615951e-10
4.9733088e-05
1.0127232e-05
2.6633724e-10
1.0126965e-05
1.557505e-09
4.9731798e-05
5.1922866e-09
0.00014223906
1.3746912e-08
0.00034263921
3.185133e-08
0.00075134023
6.6826445e-08
0.0015360083
1.2763951e-07
0.0029400453
2.1826071e-07
0.0052370528
3.1961717e-07
0.0085729109
3.6521214e-07
0.012686467
2.6011848e-07
0.016680997
-9.9049882e-12
0.019207362
-2.6014435e-07
0.019207362
-3.6524961e-07
0.016680997
-3.1965506e-07
0.012686467
-2.1826919e-07
0.008572911
-1.2759024e-07
0.0052370529
-6.6722752e-08
0.0029400453
-3.1733056e-08
0.0015360083
-1.3658504e-08
0.00075134021
-5.1504377e-09
0.0003426392
-1.5480009e-09
0.00014223906
-2.7028485e-10
4.9731797e-05
1.0126965e-05
2.5134689e-10
1.0126714e-05
1.4697602e-09
4.9730579e-05
4.8997658e-09
0.00014223563
1.2972665e-08
0.00034263113
3.005865e-08
0.00075132314
6.3070825e-08
0.0015359753
1.2048833e-07
0.0029399879
2.0610915e-07
0.0052369672
3.020459e-07
0.008572815
3.4561502e-07
0.012686423
2.4661022e-07
0.016681096
-9.2929842e-12
0.019207609
-2.4663544e-07
0.019207609
-3.4565282e-07
0.016681096
-3.020845e-07
0.012686423
-2.0611751e-07
0.0085728151
-1.2043761e-07
0.0052369672
-6.2965037e-08
0.0029399879
-2.9938742e-08
0.0015359753
-1.2883546e-08
0.00075132313
-4.8578577e-09
0.00034263113
-1.4604035e-09
0.00014223563
-2.5542177e-10
4.9730578e-05
1.0126714e-05
2.3727932e-10
1.0126477e-05
1.3873585e-09
4.9729429e-05
4.625046e-09
0.0001422324
1.2245821e-08
0.00034262351
2.8376605e-08
0.000751307
5.9547769e-08
0.0015359442
1.1377632e-07
0.0029399337
1.9468532e-07
0.0052368863
2.8547314e-07
0.0085727242
3.2697769e-07
0.012686382
2.3363511e-07
0.016681189
-8.3515184e-12
0.019207842
-2.33659e-07
0.019207842
-3.2701508e-07
0.016681189
-2.8551181e-07
0.012686382
-1.9469334e-07
0.0085727243
-1.1372479e-07
0.0052368863
-5.9441467e-08
0.0029399337
-2.8257009e-08
0.0015359442
-1.2157544e-08
0.00075130699
-4.5838711e-09
0.0003426235
-1.378366e-09
0.00014223239
-2.4143644e-10
4.9729428e-05
1.0126477e-05
2.2417558e-10
1.0126253e-05
1.3106465e-09
4.9728342e-05
4.3692187e-09
0.00014222934
1.1568223e-08
0.00034261631
2.6806196e-08
0.00075129176
5.6254158e-08
0.0015359147
1.0749735e-07
0.0029398824
1.8399828e-07
0.0052368098
2.6997285e-07
0.0085726382
3.096012e-07
0.012686342
2.2157149e-07
0.016681277
-7.1075811e-12
0.019208064
-2.2159334e-07
0.019208064
-3.0963746e-07
0.016681277
-2.7001093e-07
0.012686342
-1.8400578e-07
0.0085726383
-1.074458e-07
0.0052368098
-5.6149149e-08
0.0029398824
-2.6689067e-08
0.0015359147
-1.1482447e-08
0.00075129175
-4.3295709e-09
0.0003426163
-1.3021936e-09
0.00014222933
-2.2833291e-10
4.9728341e-05
1.0126253e-05
2.1181647e-10
1.0126041e-05
1.2381763e-09
4.9727316e-05
4.1275683e-09
0.00014222645
1.0929087e-08
0.00034260951
2.5327745e-08
0.00075127736
5.3157378e-08
0.0015358869
1.0159063e-07
0.002939834
1.7391802e-07
0.0052367374
2.5528282e-07
0.0085725569
2.9295937e-07
0.012686304
2.0988141e-07
0.01668136
-5.6017381e-12
0.019208274
-2.0990054e-07
0.019208274
-2.9299372e-07
0.01668136
-2.5531961e-07
0.012686304
-1.7392488e-07
0.0085725569
-1.0154007e-07
0.0052367375
-5.3055828e-08
0.002939834
-2.5215608e-08
0.0015358869
-1.0847732e-08
0.00075127735
-4.0903671e-09
0.0003426095
-1.2304748e-09
0.00014222644
-2.1588846e-10
4.9727314e-05
1.0126041e-05
2.0048355e-10
1.0125841e-05
1.1718516e-09
4.9726344e-05
3.906204e-09
0.00014222371
1.0341626e-08
0.00034260307
2.3962637e-08
0.00075126374
5.0286664e-08
0.0015358605
9.61064e-08
0.0029397882
1.6456778e-07
0.005236669
2.4168733e-07
0.0085724798
2.7765485e-07
0.012686268
1.9919403e-07
0.016681439
-3.9228835e-12
0.019208473
-1.9920994e-07
0.019208473
-2.7768659e-07
0.016681439
-2.4172217e-07
0.012686269
-1.645739e-07
0.0085724798
-9.6057971e-08
0.005236669
-5.0190936e-08
0.0029397882
-2.385822e-08
0.0015358605
-1.0266756e-08
0.00075126373
-3.8724422e-09
0.00034260306
-1.1651375e-09
0.00014222371
-2.043864e-10
4.9726343e-05
1.0125841e-05
1.8957452e-10
1.0125652e-05
1.1077511e-09
4.9725426e-05
3.6925419e-09
0.00014222112
9.7777685e-09
0.00034259698
2.2662189e-08
0.00075125085
4.7568682e-08
0.0015358356
9.0921306e-08
0.0029397448
1.5569445e-07
0.0052366042
2.2869866e-07
0.0085724068
2.6285471e-07
0.012686234
1.8871566e-07
0.016681513
-2.0445956e-12
0.019208662
-1.8872793e-07
0.019208662
-2.628833e-07
0.016681513
-2.2873099e-07
0.012686234
-1.5569986e-07
0.0085724068
-9.0876263e-08
0.0052366043
-4.7481201e-08
0.0029397448
-2.2568148e-08
0.0015358356
-9.7112688e-09
0.00075125084
-3.6630222e-09
0.00034259698
-1.1021351e-09
0.00014222112
-1.9317195e-10
4.9725424e-05
1.0125651e-05
1.8022455e-10
1.0125472e-05
1.053127e-09
4.9724553e-05
3.5096421e-09
0.00014221867
9.2886513e-09
0.0003425912
2.1514322e-08
0.00075123862
4.5132745e-08
0.001535812
8.6241363e-08
0.0029397037
1.4769606e-07
0.0052365428
2.1704907e-07
0.0085723374
2.4971046e-07
0.012686202
1.7949671e-07
0.016681583
-9.2842663e-14
0.019208841
-1.7950507e-07
0.019208841
-2.497353e-07
0.016681583
-2.1707829e-07
0.012686202
-1.4770089e-07
0.0085723375
-8.6201186e-08
0.0052365428
-4.5056139e-08
0.0029397037
-2.1433412e-08
0.001535812
-9.2324347e-09
0.00075123861
-3.4851915e-09
0.0003425912
-1.0487542e-09
0.00014221866
-1.8340884e-10
4.9724551e-05
1.0125471e-05
1.6914067e-10
1.0125303e-05
9.8823435e-10
4.9723734e-05
3.2962559e-09
0.00014221636
8.7391182e-09
0.00034258576
2.0287215e-08
0.00075122707
4.2652579e-08
0.0015357896
8.1630094e-08
0.0029396647
1.399153e-07
0.0052364845
2.0571605e-07
0.0085722716
2.3676635e-07
0.012686171
1.7032114e-07
0.01668165
1.8108819e-12
0.019209011
-1.703255e-07
0.019209011
-2.3678693e-07
0.01668165
-2.0574155e-07
0.012686171
-1.3991944e-07
0.0085722717
-8.1595672e-08
0.0052364845
-4.2588449e-08
0.0029396647
-2.0220906e-08
0.0015357896
-8.6939304e-09
0.00075122706
-3.2769453e-09
0.00034258575
-9.8490496e-10
0.00014221636
-1.7172089e-10
4.9723732e-05
1.0125303e-05
1.6435843e-10
1.0125139e-05
9.6035768e-10