/*--------------------------------*- C++ -*----------------------------------*\
| =========                 |                                                 |
| \\      /  F ield         | OpenFOAM: The Open Source CFD Toolbox           |
|  \\    /   O peration     | Version:  2406                                  |
|   \\  /    A nd           | Website:  www.openfoam.com                      |
|    \\/     M anipulation  |                                                 |
\*---------------------------------------------------------------------------*/
FoamFile
{
    version     2.0;
    format      ascii;
    arch        "LSB;label=32;scalar=64";
    class       volVectorField;
    location    "31";
    object      U;
}
// * * * * * * * * * * * * * * * * * * * * * * * * * * * * * * * * * * * * * //

dimensions      [0 1 -1 0 0 0 0];

internalField   nonuniform List<vector> 
1176
(
(0.019493789 7.0786352e-07 0)
(0.066677318 8.1696596e-06 0)
(0.13357994 3.9503163e-05 0)
(0.22724701 0.00010873576 0)
(0.35591522 0.00021176025 0)
(0.52772023 0.00030396282 0)
(0.74780387 0.00031818012 0)
(1.0136216 0.00024904575 0)
(1.3093323 0.00016666977 0)
(1.6017081 0.00011264654 0)
(1.8421723 7.0213766e-05 0)
(1.9793239 2.3940384e-05 0)
(1.9793239 -2.3941225e-05 0)
(1.8421723 -7.0215096e-05 0)
(1.6017081 -0.00011264933 0)
(1.3093323 -0.00016667539 0)
(1.0136216 -0.00024905518 0)
(0.74780389 -0.0003181932 0)
(0.52772026 -0.00030397789 0)
(0.35591524 -0.00021177352 0)
(0.22724701 -0.000108746 0)
(0.13357994 -3.9504514e-05 0)
(0.066677319 -8.1772567e-06 0)
(0.01949379 -7.0681407e-07 0)
(0.020187017 -3.741918e-06 0)
(0.068813532 -2.463864e-05 0)
(0.13732107 -9.6548557e-05 0)
(0.23247391 -0.00024839462 0)
(0.36204617 -0.00047268785 0)
(0.53373557 -0.00067421192 0)
(0.75267407 -0.0006948696 0)
(1.0170176 -0.00049687394 0)
(1.3116385 -0.00023345955 0)
(1.6034438 -4.9824877e-05 0)
(1.8436588 1.9764222e-05 0)
(1.9807026 1.342726e-05 0)
(1.9807026 -1.3427868e-05 0)
(1.8436588 -1.9763758e-05 0)
(1.6034438 4.9827861e-05 0)
(1.3116385 0.0002334666 0)
(1.0170176 0.00049688619 0)
(0.75267407 0.00069488631 0)
(0.53373557 0.00067422939 0)
(0.36204617 0.00047270115 0)
(0.23247391 0.00024840222 0)
(0.13732107 9.6550932e-05 0)
(0.068813532 2.4640268e-05 0)
(0.020187017 3.7417915e-06 0)
(0.020018442 2.0918374e-06 0)
(0.068327405 1.272077e-05 0)
(0.13655405 4.6877254e-05 0)
(0.23159544 0.00011389737 0)
(0.36138709 0.00019769264 0)
(0.53366969 0.00023903228 0)
(0.75344344 0.00020559798 0)
(1.0184881 0.00011361083 0)
(1.3134639 7.4313098e-05 0)
(1.6053464 7.9532187e-05 0)
(1.8455118 7.0515611e-05 0)
(1.9825245 2.7824458e-05 0)
(1.9825245 -2.7827138e-05 0)
(1.8455118 -7.0518632e-05 0)
(1.6053464 -7.9535695e-05 0)
(1.3134639 -7.4317083e-05 0)
(1.0184881 -0.00011361487 0)
(0.75344343 -0.00020560172 0)
(0.53366968 -0.00023903477 0)
(0.36138708 -0.00019769381 0)
(0.23159544 -0.00011389758 0)
(0.13655404 -4.6877086e-05 0)
(0.068327403 -1.272058e-05 0)
(0.020018441 -2.0918433e-06 0)
(0.019966547 7.0076535e-07 0)
(0.068159232 4.6870438e-06 0)
(0.13624021 1.935544e-05 0)
(0.2311194 5.6456159e-05 0)
(0.36078093 0.00013444563 0)
(0.53306293 0.0002582931 0)
(0.75295637 0.00035344725 0)
(1.0181104 0.00036911976 0)
(1.313184 0.00030758838 0)
(1.6051633 0.00022777201 0)
(1.8453995 0.00014555912 0)
(1.9824491 4.9997148e-05 0)
(1.9824491 -4.9996938e-05 0)
(1.8453995 -0.00014555866 0)
(1.6051633 -0.0002277712 0)
(1.313184 -0.0003075879 0)
(1.0181104 -0.00036911908 0)
(0.75295637 -0.00035344635 0)
(0.53306293 -0.00025829283 0)
(0.36078093 -0.00013444565 0)
(0.2311194 -5.6456414e-05 0)
(0.13624021 -1.9355261e-05 0)
(0.068159233 -4.6876182e-06 0)
(0.019966548 -7.0065369e-07 0)
(0.019942203 2.9077014e-07 0)
(0.068078703 1.9871951e-06 0)
(0.13608628 8.2361163e-06 0)
(0.23087699 2.369931e-05 0)
(0.36044744 5.6881594e-05 0)
(0.53266448 0.00012306878 0)
(0.75256878 0.00022681802 0)
(1.017808 0.00032272192 0)
(1.3129044 0.00034572423 0)
(1.604912 0.00030729935 0)
(1.8452029 0.00021095268 0)
(1.9822898 7.4614061e-05 0)
(1.9822898 -7.4615136e-05 0)
(1.8452029 -0.00021095398 0)
(1.604912 -0.00030730097 0)
(1.3129044 -0.00034572523 0)
(1.017808 -0.0003227223 0)
(0.75256878 -0.00022681764 0)
(0.53266449 -0.00012306797 0)
(0.36044744 -5.6880894e-05 0)
(0.23087699 -2.369896e-05 0)
(0.13608628 -8.2359842e-06 0)
(0.068078703 -1.987203e-06 0)
(0.019942203 -2.9076189e-07 0)
(0.019933132 1.7181678e-07 0)
(0.068047755 1.1940664e-06 0)
(0.13602489 5.0651995e-06 0)
(0.23077535 1.4968847e-05 0)
(0.36029899 3.6219517e-05 0)
(0.5324792 7.6944177e-05 0)
(0.75239427 0.00014713757 0)
(1.0177222 0.00023749004 0)
(1.3129292 0.00028525563 0)
(1.6049746 0.00027441454 0)
(1.8452865 0.00019644584 0)
(1.9823834 7.1176593e-05 0)
(1.9823834 -7.1177543e-05 0)
(1.8452865 -0.00019644697 0)
(1.6049746 -0.00027441595 0)
(1.3129292 -0.00028525683 0)
(1.0177222 -0.00023749062 0)
(0.75239427 -0.00014713789 0)
(0.5324792 -7.6944238e-05 0)
(0.36029899 -3.6219476e-05 0)
(0.23077535 -1.4968796e-05 0)
(0.13602488 -5.0651818e-06 0)
(0.068047755 -1.1940423e-06 0)
(0.019933132 -1.7181899e-07 0)
(0.0199234 1.558769e-07 0)
(0.068015507 1.070069e-06 0)
(0.13596286 4.4934651e-06 0)
(0.23067607 1.3195452e-05 0)
(0.36015773 3.1857103e-05 0)
(0.53230178 6.6958176e-05 0)
(0.75221429 0.00012411876 0)
(1.0176105 0.00019917033 0)
(1.3129358 0.00025490821 0)
(1.6050904 0.00024595148 0)
(1.8454579 0.00018127875 0)
(1.9825798 6.65483e-05 0)
(1.9825798 -6.6548899e-05 0)
(1.8454579 -0.00018127949 0)
(1.6050904 -0.00024595236 0)
(1.3129358 -0.00025490888 0)
(1.0176105 -0.00019917067 0)
(0.75221429 -0.00012411891 0)
(0.53230178 -6.6958225e-05 0)
(0.36015773 -3.1857126e-05 0)
(0.23067607 -1.3195464e-05 0)
(0.13596286 -4.4934791e-06 0)
(0.068015507 -1.0700615e-06 0)
(0.0199234 -1.5587857e-07 0)
(0.019915697 1.2758684e-07 0)
(0.067989792 8.7801384e-07 0)
(0.13591293 3.696e-06 0)
(0.23059503 1.0901594e-05 0)
(0.36003987 2.6613323e-05 0)
(0.53214753 5.7237062e-05 0)
(0.75204133 0.00010911038 0)
(1.0174723 0.00017936614 0)
(1.3128926 0.00023802463 0)
(1.6051414 0.00023746742 0)
(1.8455877 0.00017750669 0)
(1.9827514 6.5539315e-05 0)
(1.9827514 -6.553965e-05 0)
(1.8455877 -0.00017750712 0)
(1.6051414 -0.0002374679 0)
(1.3128926 -0.00023802497 0)
(1.0174723 -0.00017936636 0)
(0.75204133 -0.00010911052 0)
(0.53214753 -5.7237123e-05 0)
(0.36003987 -2.6613343e-05 0)
(0.23059503 -1.0901589e-05 0)
(0.13591293 -3.6960059e-06 0)
(0.067989792 -8.779898e-07 0)
(0.019915697 -1.2759081e-07 0)
(0.019909217 1.0465842e-07 0)
(0.067968141 7.2313621e-07 0)
(0.13587084 3.0521031e-06 0)
(0.23052654 9.0118249e-06 0)
(0.35993984 2.199986e-05 0)
(0.53201542 4.7473393e-05 0)
(0.75188901 9.201399e-05 0)
(1.0173341 0.0001561818 0)
(1.3128278 0.00021699669 0)
(1.6051595 0.00022709623 0)
(1.8456699 0.00017232631 0)
(1.982868 6.4147696e-05 0)
(1.982868 -6.4147807e-05 0)
(1.8456699 -0.00017232644 0)
(1.6051595 -0.00022709635 0)
(1.3128278 -0.00021699677 0)
(1.0173341 -0.00015618194 0)
(0.75188901 -9.2014114e-05 0)
(0.53201542 -4.7473465e-05 0)
(0.35993984 -2.1999881e-05 0)
(0.23052654 -9.0118172e-06 0)
(0.13587084 -3.0520853e-06 0)
(0.067968141 -7.2313158e-07 0)
(0.019909217 -1.0465735e-07 0)
(0.019903971 8.612704e-08 0)
(0.067950553 5.9696344e-07 0)
(0.13583649 2.5273781e-06 0)
(0.2304703 7.4916139e-06 0)
(0.35985692 1.8376295e-05 0)
(0.53190436 3.9835677e-05 0)
(0.75175836 7.7712142e-05 0)
(1.0172122 0.00013432435 0)
(1.3127613 0.00019323374 0)
(1.6051772 0.00021058356 0)
(1.8457533 0.00016272982 0)
(1.9829863 6.1084326e-05 0)
(1.9829863 -6.1084262e-05 0)
(1.8457533 -0.00016272974 0)
(1.6051772 -0.00021058345 0)
(1.3127613 -0.00019323365 0)
(1.0172122 -0.00013432434 0)
(0.75175836 -7.7712137e-05 0)
(0.53190436 -3.983565e-05 0)
(0.35985692 -1.8376244e-05 0)
(0.2304703 -7.4915725e-06 0)
(0.13583649 -2.5273191e-06 0)
(0.067950553 -5.9698747e-07 0)
(0.019903971 -8.6118037e-08 0)
(0.019899543 7.3357151e-08 0)
(0.067935688 5.0896203e-07 0)
(0.13580742 2.1568896e-06 0)
(0.23042259 6.4027675e-06 0)
(0.35978626 1.5747599e-05 0)
(0.5318089 3.4277838e-05 0)
(0.75164409 6.7204635e-05 0)
(1.0171021 0.00011723001 0)
(1.3126976 0.00017262477 0)
(1.6051928 0.00019308921 0)
(1.8458371 0.00015219883 0)
(1.9831061 5.7544913e-05 0)
(1.9831061 -5.7544748e-05 0)
(1.8458371 -0.00015219864 0)
(1.6051928 -0.00019308899 0)
(1.3126976 -0.00017262459 0)
(1.0171021 -0.00011722988 0)
(0.75164409 -6.720451e-05 0)
(0.5318089 -3.4277695e-05 0)
(0.35978626 -1.5747453e-05 0)
(0.23042259 -6.4026742e-06 0)
(0.13580742 -2.1567779e-06 0)
(0.067935688 -5.0901375e-07 0)
(0.019899543 -7.3339394e-08 0)
(0.019895721 6.3727837e-08 0)
(0.06792285 4.4251966e-07 0)
(0.13578228 1.8767407e-06 0)
(0.23038125 5.5765343e-06 0)
(0.35972483 1.3738699e-05 0)
(0.53172535 2.999804e-05 0)
(0.75154264 5.9111623e-05 0)
(1.0170011 0.0001038883 0)
(1.3126345 0.00015540298 0)
(1.6052015 0.00017849548 0)
(1.8459125 0.00014271575 0)
(1.9832185 5.433076e-05 0)
(1.9832185 -5.4330534e-05 0)
(1.8459125 -0.00014271551 0)
(1.6052015 -0.00017849522 0)
(1.3126344 -0.00015540275 0)
(1.0170011 -0.0001038881 0)
(0.75154264 -5.91114e-05 0)
(0.53172535 -2.9997784e-05 0)
(0.35972483 -1.373845e-05 0)
(0.23038125 -5.5763832e-06 0)
(0.13578228 -1.8765664e-06 0)
(0.06792285 -4.4260433e-07 0)
(0.019895721 -6.3699583e-08 0)
(0.019892371 5.6091033e-08 0)
(0.067911586 3.8977495e-07 0)
(0.13576021 1.6541293e-06 0)
(0.2303449 4.9187746e-06 0)
(0.35967069 1.2132036e-05 0)
(0.53165136 2.6542485e-05 0)
(0.7514519 5.2498856e-05 0)
(1.0169086 9.287582e-05 0)
(1.3125728 0.00014061507 0)
(1.605205 0.0001652964 0)
(1.8459798 0.0001339895 0)
(1.9833221 5.1387605e-05 0)
(1.9833221 -5.1387356e-05 0)
(1.8459798 -0.00013398924 0)
(1.605205 -0.00016529613 0)
(1.3125728 -0.00014061482 0)
(1.0169086 -9.2875563e-05 0)
(0.7514519 -5.249854e-05 0)
(0.53165136 -2.6542106e-05 0)
(0.35967069 -1.213167e-05 0)
(0.2303449 -4.9185567e-06 0)
(0.13576021 -1.65388e-06 0)
(0.067911586 -3.8989998e-07 0)
(0.019892371 -5.6050057e-08 0)
(0.019889403 4.9850095e-08 0)
(0.067901607 3.4661404e-07 0)
(0.13574064 1.47177e-06 0)
(0.23031264 4.3794014e-06 0)
(0.35962253 1.0812339e-05 0)
(0.53158531 2.3691461e-05 0)
(0.75137029 4.6984226e-05 0)
(1.016824 8.3546432e-05 0)
(1.3125139 0.00012773764 0)
(1.6052051 0.00015293369 0)
(1.8460415 0.00012582058 0)
(1.9834196 4.8616642e-05 0)
(1.9834196 -4.8616414e-05 0)
(1.8460415 -0.00012582033 0)
(1.6052051 -0.00015293342 0)
(1.3125139 -0.00012773738 0)
(1.016824 -8.3546137e-05 0)
(0.75137029 -4.6983816e-05 0)
(0.53158531 -2.3690945e-05 0)
(0.35962253 -1.0811837e-05 0)
(0.23031264 -4.3791057e-06 0)
(0.13574064 -1.4714322e-06 0)
(0.067901607 -3.4678745e-07 0)
(0.019889403 -4.979399e-08 0)
(0.019886752 4.4700025e-08 0)
(0.067892685 3.1094058e-07 0)
(0.13572313 1.3208245e-06 0)
(0.23028375 3.9322187e-06 0)
(0.35957935 9.7159106e-06 0)
(0.53152592 2.1315648e-05 0)
(0.75129648 4.2360351e-05 0)
(1.0167465 7.5620025e-05 0)
(1.3124581 0.00011654252 0)
(1.6052027 0.00014169892 0)
(1.8460982 0.00011827118 0)
(1.9835117 4.6031671e-05 0)
(1.9835117 -4.6031504e-05 0)
(1.8460982 -0.00011827099 0)
(1.6052027 -0.00014169869 0)
(1.3124581 -0.00011654228 0)
(1.0167465 -7.5619708e-05 0)
(0.75129648 -4.2359841e-05 0)
(0.53152592 -2.1314976e-05 0)
(0.35957935 -9.715252e-06 0)
(0.23028375 -3.9318331e-06 0)
(0.13572313 -1.3203843e-06 0)
(0.067892685 -3.1117083e-07 0)
(0.019886752 -4.4626282e-08 0)
(0.019884362 4.0387491e-08 0)
(0.067884644 2.8103669e-07 0)
(0.13570735 1.1941623e-06 0)
(0.23025769 3.5564986e-06 0)
(0.35954035 8.7929228e-06 0)
(0.53147216 1.9310086e-05 0)
(0.75122934 3.844025e-05 0)
(1.0166753 6.8839067e-05 0)
(1.3124053 0.00010678369 0)
(1.6051983 0.00013155244 0)
(1.8461504 0.00011132813 0)
(1.9835985 4.3631198e-05 0)
(1.9835985 -4.363113e-05 0)
(1.8461504 -0.00011132802 0)
(1.6051983 -0.0001315523 0)
(1.3124053 -0.00010678351 0)
(1.0166753 -6.8838739e-05 0)
(0.75122934 -3.8439629e-05 0)
(0.53147216 -1.9309232e-05 0)
(0.35954035 -8.7920837e-06 0)
(0.23025769 -3.5560102e-06 0)
(0.13570735 -1.1936055e-06 0)
(0.067884644 -2.8133216e-07 0)
(0.019884362 -4.029361e-08 0)
(0.019882195 3.6712361e-08 0)
(0.067877349 2.5553626e-07 0)
(0.13569303 1.0860841e-06 0)
(0.23023403 3.2356386e-06 0)
(0.3595049 8.0036046e-06 0)
(0.5314232 1.7590971e-05 0)
(0.75116797 3.5067291e-05 0)
(1.0166096 6.2964233e-05 0)
(1.3123553 9.8203317e-05 0)
(1.6051923 0.00012233372 0)
(1.8461982 0.0001049132 0)
(1.9836803 4.1390435e-05 0)
(1.9836803 -4.1390497e-05 0)
(1.8461982 -0.00010491321 0)
(1.6051923 -0.00012233369 0)
(1.3123553 -9.8203219e-05 0)
(1.0166096 -6.29639e-05 0)
(0.75116797 -3.5066545e-05 0)
(0.5314232 -1.7589913e-05 0)
(0.3595049 -8.0025608e-06 0)
(0.23023403 -3.235034e-06 0)
(0.13569303 -1.0853965e-06 0)
(0.067877349 -2.5590526e-07 0)
(0.019882195 -3.6595841e-08 0)
(0.019880219 3.3539521e-08 0)
(0.067870695 2.3350864e-07 0)
(0.13567996 9.9267705e-07 0)
(0.23021243 2.9581582e-06 0)
(0.35947252 7.3203063e-06 0)
(0.53137842 1.6100156e-05 0)
(0.75111164 3.2133033e-05 0)
(1.0165488 5.782343e-05 0)
(1.3123082 9.0602512e-05 0)
(1.6051852 0.00011395344 0)
(1.8462423 9.8955933e-05 0)
(1.9837576 3.9288846e-05 0)
(1.9837576 -3.9289054e-05 0)
(1.8462423 -9.8956091e-05 0)
(1.6051852 -0.00011395355 0)
(1.3123082 -9.0602514e-05 0)
(1.0165488 -5.7823092e-05 0)
(0.75111164 -3.2132147e-05 0)
(0.53137842 -1.6098867e-05 0)
(0.35947252 -7.3190333e-06 0)
(0.23021243 -2.9574236e-06 0)
(0.13567996 -9.918435e-07 0)
(0.067870695 -2.3395968e-07 0)
(0.01988022 -3.3397769e-08 0)
(0.019878409 3.0774865e-08 0)
(0.0678646 2.1430471e-07 0)
(0.13566798 9.1120451e-07 0)
(0.23019263 2.7159894e-06 0)
(0.35944282 6.7234285e-06 0)
(0.53133728 1.4796009e-05 0)
(0.75105977 2.9559674e-05 0)
(1.0164925 5.3292516e-05 0)
(1.3122638 8.3831546e-05 0)
(1.6051772 0.00010632399 0)
(1.846283 9.3403113e-05 0)
(1.9838307 3.731223e-05 0)
(1.9838307 -3.7312596e-05 0)
(1.846283 -9.3403436e-05 0)
(1.6051772 -0.00010632426 0)
(1.3122638 -8.3831662e-05 0)
(1.0164925 -5.3292174e-05 0)
(0.75105977 -2.9558633e-05 0)
(0.53133728 -1.4794464e-05 0)
(0.35944282 -6.7219005e-06 0)
(0.23019263 -2.7151104e-06 0)
(0.13566798 -9.1020891e-07 0)
(0.0678646 -2.1484692e-07 0)
(0.019878409 -3.0605095e-08 0)
(0.019876745 2.8344581e-08 0)
(0.067858993 1.974165e-07 0)
(0.13565697 8.395277e-07 0)
(0.23017441 2.5028323e-06 0)
(0.35941547 6.1976488e-06 0)
(0.53129936 1.364578e-05 0)
(0.75101183 2.7285267e-05 0)
(1.0164401 4.9271656e-05 0)
(1.3122219 7.7767612e-05 0)
(1.6051688 9.9355993e-05 0)
(1.8463207 8.8213355e-05 0)
(1.9838998 3.5449217e-05 0)
(1.9838998 -3.5449744e-05 0)
(1.8463207 -8.8213849e-05 0)
(1.6051688 -9.9356442e-05 0)
(1.3122219 -7.7767847e-05 0)
(1.0164401 -4.9271304e-05 0)
(0.75101183 -2.728405e-05 0)
(0.53129936 -1.364395e-05 0)
(0.35941547 -6.1958376e-06 0)
(0.23017441 -2.5017931e-06 0)
(0.13565697 -8.3835246e-07 0)
(0.067858993 -1.9805979e-07 0)
(0.019876745 -2.814375e-08 0)
(0.019875209 2.6190615e-08 0)
(0.067853818 1.8244392e-07 0)
(0.1356468 7.7596e-07 0)
(0.23015758 2.3137153e-06 0)
(0.3593902 5.7308675e-06 0)
(0.5312643 1.2623536e-05 0)
(0.75096742 2.5260283e-05 0)
(1.0163914 4.5679439e-05 0)
(1.3121824 7.2307921e-05 0)
(1.6051599 9.2973191e-05 0)
(1.8463555 8.3350052e-05 0)
(1.9839652 3.3689159e-05 0)
(1.9839652 -3.3689841e-05 0)
(1.8463555 -8.3350716e-05 0)
(1.6051599 -9.2973812e-05 0)
(1.3121824 -7.2308271e-05 0)
(1.0163914 -4.5679065e-05 0)
(0.75096742 -2.5258866e-05 0)
(0.5312643 -1.2621387e-05 0)
(0.3593902 -5.728742e-06 0)
(0.23015758 -2.3124987e-06 0)
(0.1356468 -7.7458605e-07 0)
(0.067853818 -1.8319907e-07 0)
(0.019875209 -2.595541e-08 0)
(0.019873787 2.426776e-08 0)
(0.067849027 1.6907465e-07 0)
(0.13563738 7.1918267e-07 0)
(0.230142 2.1447434e-06 0)
(0.35936679 5.3135814e-06 0)
(0.53123178 1.1708854e-05 0)
(0.75092616 2.3445495e-05 0)
(1.016346 4.2450411e-05 0)
(1.3121452 6.736744e-05 0)
(1.6051509 8.7107307e-05 0)
(1.8463878 7.8784867e-05 0)
(1.9840271 3.2023478e-05 0)
(1.9840271 -3.2024306e-05 0)
(1.8463878 -7.8785695e-05 0)
(1.6051509 -8.7108093e-05 0)
(1.3121452 -6.7367895e-05 0)
(1.016346 -4.2449998e-05 0)
(0.75092616 -2.3443849e-05 0)
(0.53123178 -1.1706349e-05 0)
(0.35936679 -5.3111074e-06 0)
(0.230142 -2.1433308e-06 0)
(0.13563738 -7.1758984e-07 0)
(0.067849027 -1.6995322e-07 0)
(0.019873787 -2.3994642e-08 0)
(0.019872467 2.2540432e-08 0)
(0.067844581 1.5706253e-07 0)
(0.13562864 6.6815532e-07 0)
(0.23012754 1.9928392e-06 0)
(0.35934505 4.9382676e-06 0)
(0.53120156 1.0885523e-05 0)
(0.75088776 2.180968e-05 0)
(1.0163035 3.9532051e-05 0)
(1.31211 6.28763e-05 0)
(1.6051418 8.1701836e-05 0)
(1.8464178 7.4491568e-05 0)
(1.9840857 3.0444031e-05 0)
(1.9840857 -3.0444992e-05 0)
(1.8464178 -7.4492547e-05 0)
(1.6051418 -8.1702776e-05 0)
(1.31211 -6.2876851e-05 0)
(1.0163035 -3.9531583e-05 0)
(0.75088776 -2.1807774e-05 0)
(0.53120156 -1.0882623e-05 0)
(0.35934504 -4.9354092e-06 0)
(0.23012753 -1.9912112e-06 0)
(0.13562864 -6.6632288e-07 0)
(0.067844581 -1.5807651e-07 0)
(0.019872467 -2.2225736e-08 0)
(0.01987124 2.0980156e-08 0)
(0.067840446 1.4621043e-07 0)
(0.13562051 6.2204429e-07 0)
(0.23011408 1.8555346e-06 0)
(0.35932481 4.5988816e-06 0)
(0.53117342 1.0140484e-05 0)
(0.75085195 2.0327582e-05 0)
(1.0162638 3.6881662e-05 0)
(1.3120768 5.8776785e-05 0)
(1.6051327 7.6706501e-05 0)
(1.8464458 7.0451036e-05 0)
(1.9841412 2.8944774e-05 0)
(1.9841412 -2.8945855e-05 0)
(1.8464458 -7.0452154e-05 0)
(1.6051327 -7.6707586e-05 0)
(1.3120768 -5.8777421e-05 0)
(1.0162638 -3.6881121e-05 0)
(0.75085195 -2.0325383e-05 0)
(0.53117342 -1.0137147e-05 0)
(0.35932481 -4.5956024e-06 0)
(0.23011407 -1.8536718e-06 0)
(0.13562051 -6.1995167e-07 0)
(0.067840446 -1.4737184e-07 0)
(0.01987124 -2.062022e-08 0)
(0.019870096 1.9563905e-08 0)
(0.067836592 1.3635885e-07 0)
(0.13561293 5.8017469e-07 0)
(0.23010153 1.7308305e-06 0)
(0.35930594 4.2905248e-06 0)
(0.53114716 9.4631343e-06 0)
(0.75081849 1.8978641e-05 0)
(1.0162266 3.4464251e-05 0)
(1.3120455 5.5020759e-05 0)
(1.6051237 7.208051e-05 0)
(1.8464718 6.6642494e-05 0)
(1.9841938 2.7519272e-05 0)
(1.9841938 -2.7520461e-05 0)
(1.8464718 -6.6643741e-05 0)
(1.6051237 -7.2081732e-05 0)
(1.3120455 -5.5021475e-05 0)
(1.0162266 -3.446362e-05 0)
(0.75081849 -1.8976118e-05 0)
(0.53114716 -9.4593205e-06 0)
(0.35930594 -4.2867889e-06 0)
(0.23010153 -1.7287142e-06 0)
(0.13561293 -5.7780235e-07 0)
(0.067836592 -1.3767925e-07 0)
(0.019870096 -1.9155215e-08 0)
(0.019869029 1.8272829e-08 0)
(0.067832994 1.2737725e-07 0)
(0.13560586 5.4199386e-07 0)
(0.23008981 1.6170887e-06 0)
(0.35928831 4.0091767e-06 0)
(0.53112262 8.8447587e-06 0)
(0.75078719 1.7745906e-05 0)
(1.0161917 3.2250873e-05 0)
(1.312016 5.156802e-05 0)
(1.6051149 6.7786019e-05 0)
(1.846496 6.3052719e-05 0)
(1.9842436 2.616349e-05 0)
(1.9842436 -2.6164783e-05 0)
(1.846496 -6.305409e-05 0)
(1.6051149 -6.7787376e-05 0)
(1.312016 -5.1568812e-05 0)
(1.0161917 -3.225014e-05 0)
(0.75078719 -1.774303e-05 0)
(0.53112262 -8.84043e-06 0)
(0.35928831 -4.004951e-06 0)
(0.23008981 -1.6147017e-06 0)
(0.13560586 -5.3932407e-07 0)
(0.067832994 -1.2886726e-07 0)
(0.019869029 -1.7812172e-08 0)
(0.019868031 1.7091389e-08 0)
(0.067829631 1.1915802e-07 0)
(0.13559924 5.0704585e-07 0)
(0.23007886 1.5129576e-06 0)
(0.35927183 3.7515206e-06 0)
(0.53109966 8.2781634e-06 0)
(0.75075787 1.6615366e-05 0)
(1.0161589 3.0217439e-05 0)
(1.311988 4.8384535e-05 0)
(1.6051063 6.3793412e-05 0)
(1.8465187 5.9663512e-05 0)
(1.9842909 2.4872066e-05 0)
(1.9842909 -2.4873463e-05 0)
(1.8465187 -5.9665008e-05 0)
(1.6051063 -6.3794908e-05 0)
(1.311988 -4.8385407e-05 0)
(1.0161589 -3.0216594e-05 0)
(0.75075788 -1.661211e-05 0)
(0.53109966 -8.273286e-06 0)
(0.35927183 -3.7467756e-06 0)
(0.23007885 -1.5102849e-06 0)
(0.13559924 -5.0406359e-07 0)
(0.067829631 -1.2082684e-07 0)
(0.019868031 -1.6575997e-08 0)
(0.019867097 1.6006593e-08 0)
(0.067826482 1.116113e-07 0)
(0.13559305 4.7494975e-07 0)
(0.2300686 1.417307e-06 0)
(0.35925639 3.5147783e-06 0)
(0.53107814 7.7573082e-06 0)
(0.75073038 1.5575228e-05 0)
(1.0161281 2.8343693e-05 0)
(1.3119617 4.5441649e-05 0)
(1.6050979 6.0073174e-05 0)
(1.8465398 5.6466424e-05 0)
(1.9843356 2.3642682e-05 0)
(1.9843356 -2.3644187e-05 0)
(1.8465398 -5.6468051e-05 0)
(1.6050979 -6.0074818e-05 0)
(1.3119617 -4.5442608e-05 0)
(1.0161281 -2.834273e-05 0)
(0.75073038 -1.5571572e-05 0)
(0.53107814 -7.7518545e-06 0)
(0.35925639 -3.5094904e-06 0)
(0.2300686 -1.4143368e-06 0)
(0.13559305 -4.7164354e-07 0)
(0.067826482 -1.1346622e-07 0)
(0.019867097 -1.5434298e-08 0)
(0.019866221 1.5007519e-08 0)
(0.067823531 1.0466145e-07 0)
(0.13558724 4.4538484e-07 0)
(0.23005898 1.3291859e-06 0)
(0.35924191 3.2966155e-06 0)
(0.53105796 7.2771249e-06 0)
(0.75070457 1.4615587e-05 0)
(1.0160992 2.6612446e-05 0)
(1.3119367 4.2714523e-05 0)
(1.6050897 5.6603632e-05 0)
(1.8465596 5.3443877e-05 0)
(1.984378 2.2470355e-05 0)
(1.984378 -2.2471977e-05 0)
(1.8465596 -5.3445647e-05 0)
(1.6050897 -5.6605439e-05 0)
(1.3119367 -4.2715579e-05 0)
(1.0160992 -2.6611365e-05 0)
(0.75070457 -1.4611518e-05 0)
(0.53105795 -7.2710747e-06 0)
(0.35924191 -3.2907678e-06 0)
(0.23005898 -1.3259106e-06 0)
(0.13558724 -4.4174763e-07 0)
(0.06782353 -1.0670742e-07 0)
(0.019866221 -1.4376897e-08 0)
(0.0198654 1.4084892e-08 0)
(0.067820762 9.8244417e-08 0)
(0.1355818 4.1807935e-07 0)
(0.23004996 1.2477873e-06 0)
(0.35922832 3.0950436e-06 0)
(0.53103901 6.8332774e-06 0)
(0.75068032 1.3727952e-05 0)
(1.0160719 2.5009068e-05 0)
(1.3119132 4.0182265e-05 0)
(1.6050818 5.3360859e-05 0)
(1.8465781 5.0592058e-05 0)
(1.9844182 2.1354332e-05 0)
(1.9844182 -2.135608e-05 0)
(1.8465781 -5.0593981e-05 0)
(1.6050818 -5.3362841e-05 0)
(1.3119132 -4.0183428e-05 0)
(1.0160719 -2.500787e-05 0)
(0.75068032 -1.372346e-05 0)
(0.531039 -6.8266191e-06 0)
(0.35922832 -3.0886278e-06 0)
(0.23004995 -1.2442039e-06 0)
(0.13558179 -4.1410949e-07 0)
(0.067820761 -1.0048355e-07 0)
(0.0198654 -1.339543e-08 0)
(0.019864628 1.3230757e-08 0)
(0.067818161 9.2305029e-08 0)
(0.13557668 3.9279918e-07 0)
(0.23004148 1.1724174e-06 0)
(0.35921555 2.9083615e-06 0)
(0.5310212 6.4220743e-06 0)
(0.75065752 1.2905085e-05 0)
(1.0160463 2.3520859e-05 0)
(1.3118909 3.7826061e-05 0)
(1.6050743 5.0329031e-05 0)
(1.8465955 4.7892228e-05 0)
(1.9844563 2.0289304e-05 0)
(1.9844563 -2.0291186e-05 0)
(1.8465955 -4.7894316e-05 0)
(1.6050743 -5.0331202e-05 0)
(1.3118909 -3.7827341e-05 0)
(1.0160463 -2.3519546e-05 0)
(0.75065752 -1.2900168e-05 0)
(0.5310212 -6.4148062e-06 0)
(0.35921555 -2.9013793e-06 0)
(0.23004147 -1.1685286e-06 0)
(0.13557668 -3.8850147e-07 0)
(0.06781816 -9.4735924e-08 0)
(0.019864628 -1.2483055e-08 0)
(0.019863903 1.2438336e-08 0)
(0.067815716 8.6796509e-08 0)
(0.13557187 3.69346e-07 0)
(0.23003351 1.1024858e-06 0)
(0.35920355 2.7351089e-06 0)
(0.53100445 6.0403153e-06 0)
(0.75063606 1.2140701e-05 0)
(1.0160221 2.2137015e-05 0)
(1.3118699 3.563053e-05 0)
(1.6050669 4.7488112e-05 0)
(1.8466118 4.5345909e-05 0)
(1.9844924 1.927623e-05 0)
(1.9844924 -1.9278247e-05 0)
(1.8466118 -4.5348166e-05 0)
(1.6050669 -4.7490478e-05 0)
(1.3118699 -3.5631933e-05 0)
(1.0160221 -2.2135591e-05 0)
(0.75063606 -1.2135365e-05 0)
(0.53100445 -6.032447e-06 0)
(0.35920355 -2.7275731e-06 0)
(0.2300335 -1.098301e-06 0)
(0.13557187 -3.6473286e-07 0)
(0.067815715 -8.9413584e-08 0)
(0.019863903 -1.1634311e-08 0)
(0.019863221 1.1701619e-08 0)
(0.067813417 8.167697e-08 0)
(0.13556735 3.475419e-07 0)
(0.23002601 1.0374666e-06 0)
(0.35919226 2.5740021e-06 0)
(0.53098868 5.6852258e-06 0)
(0.75061585 1.1429345e-05 0)
(1.0159993 2.0847793e-05 0)
(1.31185 3.3580722e-05 0)
(1.6050599 4.4826581e-05 0)
(1.8466272 4.2931195e-05 0)
(1.9845266 1.8308686e-05 0)
(1.9845266 -1.831083e-05 0)
(1.8466272 -4.293362e-05 0)
(1.6050599 -4.4829142e-05 0)
(1.31185 -3.3582248e-05 0)
(1.0159993 -2.0846261e-05 0)
(0.75061585 -1.1423603e-05 0)
(0.53098868 -5.6767804e-06 0)
(0.35919225 -2.5659398e-06 0)
(0.230026 -1.0330034e-06 0)
(0.13556734 -3.4263492e-07 0)
(0.067813416 -8.4469894e-08 0)
(0.019863221 -1.084474e-08 0)
(0.019862579 1.1015628e-08 0)
(0.067811252 7.691227e-08 0)
(0.13556309 3.2724234e-07 0)
(0.23001895 9.7692681e-07 0)
(0.35918162 2.4239582e-06 0)
(0.53097384 5.3544065e-06 0)
(0.75059681 1.0766291e-05 0)
(1.0159778 1.9645182e-05 0)
(1.3118312 3.1665567e-05 0)
(1.6050532 4.2327463e-05 0)
(1.8466415 4.0656517e-05 0)
(1.984559 1.7389857e-05 0)
(1.984559 -1.7392112e-05 0)
(1.8466415 -4.0659094e-05 0)
(1.6050532 -4.2330208e-05 0)
(1.3118312 -3.166721e-05 0)
(1.0159778 -1.9643547e-05 0)
(0.75059682 -1.0760164e-05 0)
(0.53097384 -5.3454222e-06 0)
(0.35918162 -2.4154114e-06 0)
(0.23001894 -9.7221134e-07 0)
(0.13556308 -3.2207347e-07 0)
(0.067811251 -7.986457e-08 0)
(0.019862579 -1.0111246e-08 0)
(0.019861974 1.0375578e-08 0)
(0.067809213 7.2468615e-08 0)
(0.13555907 3.0830344e-07 0)
(0.2300123 9.204443e-07 0)
(0.3591716 2.2839619e-06 0)
(0.53095985 5.0456925e-06 0)
(0.75057886 1.0147275e-05 0)
(1.0159575 1.8521314e-05 0)
(1.3118134 2.9872258e-05 0)
(1.6050467 3.9981996e-05 0)
(1.8466551 3.8494164e-05 0)
(1.9845898 1.6511188e-05 0)
(1.9845898 -1.6513526e-05 0)
(1.8466551 -3.8496867e-05 0)
(1.6050467 -3.9984903e-05 0)
(1.3118134 -2.9874003e-05 0)
(1.0159576 -1.851958e-05 0)
(0.75057887 -1.0140796e-05 0)
(0.53095985 -5.0362256e-06 0)
(0.3591716 -2.2749915e-06 0)
(0.23001229 -9.1551334e-07 0)
(0.13555907 -3.0291658e-07 0)
(0.067809212 -7.5557165e-08 0)
(0.019861974 -9.4311365e-09 0)
(0.019861404 9.7780019e-09 0)
(0.067807292 6.8322852e-08 0)
(0.13555529 2.9062764e-07 0)
(0.23000603 8.6772076e-07 0)
(0.35916216 2.1532398e-06 0)
(0.53094666 4.7573141e-06 0)
(0.75056194 9.568789e-06 0)
(1.0159384 1.7470507e-05 0)
(1.3117965 2.8193748e-05 0)
(1.6050405 3.7776503e-05 0)
(1.8466678 3.6462181e-05 0)
(1.9846188 1.5679107e-05 0)
(1.9846188 -1.5681486e-05 0)
(1.8466677 -3.646497e-05 0)
(1.6050405 -3.7779537e-05 0)
(1.3117965 -2.8195575e-05 0)
(1.0159384 -1.7468679e-05 0)
(0.75056194 -9.5620041e-06 0)
(0.53094666 -4.7474436e-06 0)
(0.35916215 -2.1439291e-06 0)
(0.23000603 -8.6262443e-07 0)
(0.13555529 -2.8508102e-07 0)
(0.06780729 -7.1517524e-08 0)
(0.019861404 -8.8033263e-09 0)
(0.019860867 9.2186678e-09 0)
(0.067805479 6.4444153e-08 0)
(0.13555173 2.7408305e-07 0)
(0.23000012 8.1837683e-07 0)
(0.35915325 2.0309141e-06 0)
(0.53093421 4.4874688e-06 0)
(0.75054596 9.027291e-06 0)
(1.0159203 1.648582e-05 0)
(1.3117806 2.6617572e-05 0)
(1.6050346 3.5702747e-05 0)
(1.8466798 3.4523308e-05 0)
(1.9846465 1.4881465e-05 0)
(1.9846465 -1.4883831e-05 0)
(1.8466798 -3.4526133e-05 0)
(1.6050346 -3.5705868e-05 0)
(1.3117806 -2.6619453e-05 0)
(1.0159203 -1.6483906e-05 0)
(0.75054596 -9.0202602e-06 0)
(0.53093421 -4.4772942e-06 0)
(0.35915324 -2.0213663e-06 0)
(0.23000012 -8.1317527e-07 0)
(0.13555172 -2.6844879e-07 0)
(0.067805478 -6.7704587e-08 0)
(0.019860867 -8.2264227e-09 0)
(0.01986036 8.6958746e-09 0)
(0.06780377 6.0822823e-08 0)
(0.13554837 2.5863001e-07 0)
(0.22999455 7.7227408e-07 0)
(0.35914485 1.9165523e-06 0)
(0.53092248 4.2350237e-06 0)
(0.75053089 8.5204783e-06 0)
(1.0159032 1.5564071e-05 0)
(1.3117655 2.5141639e-05 0)
(1.605029 3.375238e-05 0)
(1.846691 3.2709575e-05 0)
(1.9846726 1.4129682e-05 0)
(1.9846726 -1.4131969e-05 0)
(1.846691 -3.2712376e-05 0)
(1.605029 -3.3755534e-05 0)
(1.3117655 -2.5143542e-05 0)
(1.0159032 -1.5562086e-05 0)
(0.75053089 -8.5132816e-06 0)
(0.53092248 -4.2246735e-06 0)
(0.35914484 -1.9068976e-06 0)
(0.22999454 -7.670421e-07 0)
(0.13554836 -2.5299523e-07 0)
(0.067803769 -6.4100399e-08 0)
(0.01986036 -7.701323e-09 0)
(0.019859881 8.204924e-09 0)
(0.067802156 5.7422761e-08 0)
(0.13554519 2.441131e-07 0)
(0.22998928 7.2898189e-07 0)
(0.35913691 1.8092314e-06 0)
(0.53091139 3.9982408e-06 0)
(0.75051664 8.0450008e-06 0)
(1.0158871 1.4698056e-05 0)
(1.3117512 2.3751209e-05 0)
(1.6050236 3.191368e-05 0)
(1.8467017 3.0968717e-05 0)
(1.9846975 1.34058e-05 0)
(1.9846975 -1.3407942e-05 0)
(1.8467017 -3.0971427e-05 0)
(1.6050236 -3.1916808e-05 0)
(1.3117512 -2.37531e-05 0)
(1.0158871 -1.4696019e-05 0)
(0.75051664 -8.0377404e-06 0)
(0.53091139 -3.9878767e-06 0)
(0.3591369 -1.7996326e-06 0)
(0.22998927 -7.2381423e-07 0)
(0.13554518 -2.3858313e-07 0)
(0.067802154 -6.0662285e-08 0)
(0.019859881 -7.2260041e-09 0)
(0.01985943 7.7473874e-09 0)
(0.067800634 5.4259819e-08 0)
(0.13554219 2.3060259e-07 0)
(0.22998431 6.8865634e-07 0)
(0.35912943 1.7091086e-06 0)
(0.53090093 3.7769922e-06 0)
(0.7505032 7.6003584e-06 0)
(1.0158719 1.3888471e-05 0)
(1.3117377 2.245234e-05 0)
(1.6050185 3.0189091e-05 0)
(1.8467117 2.9353738e-05 0)
(1.9847208 1.2729153e-05 0)
(1.9847208 -1.2731082e-05 0)
(1.8467117 -2.9356292e-05 0)
(1.6050185 -3.0192135e-05 0)
(1.3117377 -2.2454184e-05 0)
(1.0158719 -1.3886411e-05 0)
(0.75050321 -7.5931528e-06 0)
(0.53090093 -3.7667935e-06 0)
(0.35912942 -1.6997404e-06 0)
(0.22998431 -6.8364865e-07 0)
(0.13554219 -2.2529291e-07 0)
(0.067800632 -5.7390259e-08 0)
(0.01985943 -6.8054597e-09 0)
(0.019859002 7.3154547e-09 0)
(0.067799193 5.1271425e-08 0)
(0.13553936 2.1782914e-07 0)
(0.22997961 6.5058047e-07 0)
(0.35912234 1.6147764e-06 0)
(0.53089102 3.5689406e-06 0)
(0.75049046 7.1823279e-06 0)
(1.0158574 1.3125578e-05 0)
(1.3117249 2.1223248e-05 0)
(1.6050136 2.8555878e-05 0)
(1.8467212 2.7789558e-05 0)
(1.9847433 1.2072673e-05 0)
(1.9847433 -1.2074332e-05 0)
(1.8467212 -2.7791887e-05 0)
(1.6050136 -2.8558777e-05 0)
(1.3117249 -2.1225013e-05 0)
(1.0158574 -1.3123538e-05 0)
(0.75049047 -7.1753231e-06 0)
(0.53089102 -3.5591215e-06 0)
(0.35912233 -1.6058437e-06 0)
(0.2299796 -6.4584553e-07 0)
(0.13553935 -2.1286548e-07 0)
(0.067799191 -5.4219734e-08 0)
(0.019859002 -6.432933e-09 0)
(0.0198586 6.9194906e-09 0)
(0.067797836 4.8541181e-08 0)
(0.13553669 2.0615148e-07 0)
(0.22997518 6.1567362e-07 0)
(0.35911566 1.527885e-06 0)
(0.5308817 3.3763956e-06 0)
(0.75047849 6.7945039e-06 0)
(1.0158438 1.2418318e-05 0)
(1.3117128 2.0086306e-05 0)
(1.605009 2.7039527e-05 0)
(1.84673 2.6361584e-05 0)
(1.9847642 1.1468574e-05 0)
(1.9847642 -1.1469921e-05 0)
(1.84673 -2.6363633e-05 0)
(1.605009 -2.7042226e-05 0)
(1.3117129 -2.0087965e-05 0)
(1.0158438 -1.2416346e-05 0)
(0.75047849 -6.7878604e-06 0)
(0.5308817 -3.3671895e-06 0)