/*--------------------------------*- C++ -*----------------------------------*\
  =========                 |
  \\      /  F ield         | OpenFOAM: The Open Source CFD Toolbox
   \\    /   O peration     | Website:  https://openfoam.org
    \\  /    A nd           | Version:  10
     \\/     M anipulation  |
\*---------------------------------------------------------------------------*/
FoamFile
{
    format      ascii;
    class       volScalarField;
    location    "39.5";
    object      ddt0(T);
}
// * * * * * * * * * * * * * * * * * * * * * * * * * * * * * * * * * * * * * //

dimensions      [0 0 -1 1 0 0 0];

internalField   nonuniform List<scalar> 
10000
(
435.509
22.9165
83.949
81.5495
81.1756
81.2542
81.2683
81.2686
81.2693
81.2702
81.271
81.2718
81.2726
81.2733
81.2741
81.2748
81.2756
81.2763
81.2771
81.2778
81.2785
81.2792
81.2799
81.2806
81.2813
81.282
81.2827
81.2834
81.284
81.2847
81.2854
81.286
81.2866
81.2873
81.2879
81.2885
81.2891
81.2897
81.2903
81.2909
81.2915
81.2921
81.2926
81.2932
81.2937
81.2942
81.2948
81.2953
81.2958
81.2963
81.2968
81.2973
81.2977
81.2982
81.2986
81.2991
81.2995
81.2999
81.3003
81.3007
81.3011
81.3015
81.3019
81.3022
81.3026
81.3029
81.3032
81.3036
81.3039
81.3042
81.3045
81.3047
81.305
81.3053
81.3055
81.3058
81.306
81.3062
81.3064
81.3066
81.3068
81.307
81.3072
81.3073
81.3075
81.3076
81.3077
81.3079
81.308
81.3081
81.3082
81.3082
81.3083
81.3083
81.3076
81.3074
81.3723
81.8737
77.6525
61.1061
41.6258
-79.146
-24.4788
-33.0747
-33.5291
-33.3311
-33.3115
-33.3141
-33.313
-33.3108
-33.3085
-33.3062
-33.304
-33.3017
-33.2995
-33.2973
-33.2951
-33.2929
-33.2907
-33.2885
-33.2864
-33.2842
-33.2821
-33.28
-33.2779
-33.2759
-33.2738
-33.2718
-33.2698
-33.2678
-33.2658
-33.2639
-33.2619
-33.26
-33.2581
-33.2563
-33.2545
-33.2526
-33.2509
-33.2491
-33.2474
-33.2457
-33.244
-33.2423
-33.2407
-33.2391
-33.2375
-33.236
-33.2344
-33.233
-33.2315
-33.2301
-33.2287
-33.2273
-33.2259
-33.2246
-33.2233
-33.2221
-33.2208
-33.2196
-33.2185
-33.2173
-33.2162
-33.2151
-33.2141
-33.2131
-33.2121
-33.2111
-33.2102
-33.2093
-33.2084
-33.2076
-33.2068
-33.206
-33.2053
-33.2045
-33.2038
-33.2032
-33.2026
-33.202
-33.2014
-33.2009
-33.2003
-33.1999
-33.1994
-33.199
-33.1986
-33.1982
-33.1979
-33.1976
-33.1973
-33.1971
-33.1968
-33.1966
-33.1979
-33.2073
-33.1967
-32.7884
-33.6026
-24.1774
94.8717
-30.3778
16.4843
7.4521
7.25326
7.50393
7.52539
7.523
7.52552
7.52935
7.53319
7.53697
7.54073
7.54447
7.54819
7.5519
7.55558
7.55925
7.56289
7.56651
7.5701
7.57366
7.5772
7.58071
7.58419
7.58764
7.59106
7.59444
7.59779
7.60111
7.6044
7.60764
7.61086
7.61403
7.61716
7.62026
7.62332
7.62633
7.62931
7.63224
7.63513
7.63798
7.64078
7.64354
7.64625
7.64892
7.65155
7.65412
7.65665
7.65914
7.66157
7.66396
7.6663
7.6686
7.67084
7.67304
7.67518
7.67728
7.67933
7.68132
7.68327
7.68517
7.68702
7.68882
7.69057
7.69227
7.69392
7.69551
7.69706
7.69856
7.70001
7.70141
7.70276
7.70405
7.7053
7.7065
7.70765
7.70874
7.70979
7.71079
7.71174
7.71264
7.71349
7.71429
7.71504
7.71574
7.71639
7.717
7.71755
7.71806
7.71851
7.71892
7.71934
7.71979
7.71886
7.70621
7.67596
7.83624
6.81313
6.37703
93.1021
-37.8475
8.53895
-0.232354
-0.34908
-0.093043
-0.0727715
-0.0743811
-0.0704068
-0.0650422
-0.0596867
-0.0544003
-0.0491451
-0.0439134
-0.0387064
-0.033526
-0.0283741
-0.0232523
-0.0181622
-0.0131054
-0.0080834
-0.00309774
0.0018501
0.00675864
0.0116264
0.016452
0.0212341
0.0259712
0.030662
0.0353053
0.0398997
0.044444
0.0489371
0.0533777
0.0577647
0.0620971
0.0663737
0.0705937
0.074756
0.0788597
0.0829039
0.0868877
0.0908105
0.0946713
0.0984695
0.102204
0.105875
0.109482
0.113023
0.116498
0.119908
0.12325
0.126526
0.129734
0.132874
0.135946
0.138949
0.141883
0.144749
0.147545
0.150272
0.152929
0.155517
0.158034
0.160481
0.162859
0.165166
0.167403
0.16957
0.171667
0.173693
0.175649
0.177536
0.179352
0.181098
0.182774
0.18438
0.185916
0.187383
0.18878
0.190107
0.191365
0.192554
0.193674
0.194724
0.195705
0.196617
0.197461
0.198235
0.198941
0.199576
0.20015
0.200735
0.201656
0.203088
0.200062
0.186171
0.312717
0.374548
0.0455303
92.7979
-38.2616
8.35611
-0.33411
-0.44143
-0.186797
-0.166266
-0.166558
-0.161066
-0.15418
-0.147314
-0.140523
-0.133769
-0.127044
-0.120351
-0.113692
-0.107069
-0.100485
-0.0939417
-0.0874411
-0.0809853
-0.0745763
-0.0682161
-0.0619066
-0.0556496
-0.0494469
-0.0433004
-0.0372117
-0.0311826
-0.0252147
-0.0193097
-0.0134692
-0.00769456
-0.00198741
0.00365085
0.00921883
0.0147152
0.0201387
0.025488
0.030762
0.0359595
0.0410795
0.0461209
0.0510827
0.055964
0.060764
0.0654817
0.0701165
0.0746675
0.079134
0.0835155
0.0878113
0.0920208
0.0961436
0.100179
0.104127
0.107987
0.111758
0.115441
0.119034
0.122539
0.125953
0.129279
0.132514
0.135659
0.138715
0.14168
0.144555
0.147339
0.150034
0.152638
0.155152
0.157576
0.15991
0.162154
0.164308
0.166372
0.168347
0.170232
0.172027
0.173733
0.17535
0.176877
0.178316
0.179666
0.180927
0.1821
0.183184
0.18418
0.185087
0.185902
0.186617
0.18725
0.188006
0.1893
0.1884
0.173122
0.185072
0.224686
0.218784
92.8653
-38.0916
8.57541
-0.108948
-0.217543
0.0371628
0.0589052
0.0601186
0.0671398
0.0755431
0.0839182
0.0922112
0.100461
0.108676
0.116851
0.124985
0.133075
0.141118
0.149111
0.157051
0.164937
0.172766
0.180535
0.188243
0.195886
0.203462
0.210971
0.218408
0.225773
0.233063
0.240276
0.247411
0.254464
0.261436
0.268323
0.275125
0.281839
0.288464
0.294998
0.30144
0.307789
0.314044
0.320202
0.326263
0.332226
0.338089
0.343852
0.349513
0.355072
0.360528
0.36588
0.371128
0.37627
0.381306
0.386235
0.391058
0.395773
0.40038
0.404878
0.409268
0.413548
0.41772
0.421781
0.425733
0.429576
0.433308
0.43693
0.440441
0.443843
0.447135
0.450316
0.453387
0.456348
0.459199
0.46194
0.464571
0.467092
0.469504
0.471807
0.474
0.476084
0.478059
0.479925
0.481682
0.483331
0.484872
0.486304
0.487628
0.488845
0.489954
0.490953
0.491834
0.492586
0.493309
0.494505
0.496015
0.491957
0.487737
0.486309
0.499599
92.8773
-38.0741
8.59486
-0.0903894
-0.19868
0.0572397
0.0804786
0.0832233
0.0917654
0.10168
0.11156
0.121352
0.131096
0.140797
0.150452
0.160059
0.169613
0.179111
0.188551
0.197929
0.207242
0.216488
0.225664
0.234766
0.243793
0.252741
0.261609
0.270392
0.27909
0.2877
0.296219
0.304645
0.312976
0.321209
0.329343
0.337376
0.345305
0.353129
0.360846
0.368455
0.375953
0.383339
0.390612
0.39777
0.404812
0.411737
0.418543
0.425229
0.431795
0.438238
0.444559
0.450756
0.456829
0.462777
0.468599
0.474294
0.479862
0.485303
0.490616
0.4958
0.500855
0.505782
0.510579
0.515246
0.519783
0.524191
0.528469
0.532616
0.536634
0.540521
0.544278
0.547905
0.551402
0.554769
0.558006
0.561113
0.564091
0.56694
0.569659
0.572249
0.57471
0.577042
0.579246
0.581322
0.583269
0.585089
0.58678
0.588344
0.589781
0.591091
0.592274
0.593324
0.594222
0.594966
0.595793
0.597133
0.597572
0.596903
0.593153
0.598725
92.8777
-38.0761
8.59331
-0.0911051
-0.198075
0.0593491
0.0841191
0.0883857
0.0984406
0.109862
0.121244
0.132532
0.143766
0.15495
0.166082
0.177158
0.188173
0.199124
0.210007
0.220819
0.231557
0.242217
0.252796
0.26329
0.273697
0.284014
0.294238
0.304365
0.314393
0.32432
0.334141
0.343856
0.353461
0.362953
0.372331
0.381592
0.390734
0.399755
0.408652
0.417424
0.426069
0.434585
0.44297
0.451223
0.459342
0.467326
0.475172
0.482881
0.490451
0.49788
0.505167
0.512312
0.519313
0.526171
0.532883
0.539449
0.545869
0.552142
0.558267
0.564244
0.570072
0.575752
0.581282
0.586664
0.591895
0.596977
0.601908
0.60669
0.611322
0.615804
0.620135
0.624317
0.628348
0.63223
0.635962
0.639545
0.642978
0.646262
0.649397
0.652384
0.655221
0.65791
0.660451
0.662844
0.665089
0.667187
0.669138
0.670941
0.672597
0.674107
0.675472
0.67669
0.67775
0.678625
0.679356
0.680178
0.681066
0.681962
0.678556
0.683271
92.8783
-38.0749
8.59599
-0.0869587
-0.192413
0.0665398
0.0928305
0.0986102
0.110172
0.123097
0.135976
0.148756
0.161476
0.174141
0.186745
0.199286
0.211759
0.224158
0.236482
0.248724
0.260883
0.272953
0.284932
0.296815
0.308599
0.320281
0.331857
0.343325
0.35468
0.365919
0.37704
0.38804
0.398916
0.409664
0.420283
0.43077
0.441121
0.451335
0.46141
0.471342
0.481131
0.490773
0.500268
0.509613
0.518806
0.527846
0.53673
0.545459
0.55403
0.562442
0.570693
0.578784
0.586711
0.594476
0.602076
0.609511
0.61678
0.623882
0.630818
0.637586
0.644185
0.650616
0.656879
0.662972
0.668895
0.674649
0.680233
0.685648
0.690892
0.695967
0.700871
0.705606
0.710171
0.714567
0.718793
0.722849
0.726737
0.730455
0.734005
0.737386
0.740599
0.743644
0.746521
0.749231
0.751773
0.754148
0.756357
0.758399
0.760274
0.761984
0.763528
0.764908
0.766122
0.767154
0.767985
0.768666
0.769427
0.770937
0.766239
0.772507
92.8792
-38.0726
8.59982
-0.0815984
-0.185532
0.0749381
0.10274
0.110027
0.123092
0.137515
0.151887
0.166156
0.180358
0.194497
0.208571
0.222573
0.236498
0.250342
0.264101
0.277771
0.291346
0.304822
0.318196
0.331464
0.344621
0.357665
0.37059
0.383393
0.396071
0.40862
0.421037
0.433319
0.445461
0.457462
0.469318
0.481026
0.492584
0.503988
0.515236
0.526326
0.537255
0.548021
0.558621
0.569055
0.579319
0.589412
0.599332
0.609077
0.618647
0.628039
0.637251
0.646284
0.655136
0.663804
0.67229
0.680591
0.688707
0.696637
0.70438
0.711937
0.719305
0.726485
0.733477
0.74028
0.746894
0.753318
0.759553
0.765598
0.771453
0.777119
0.782595
0.787881
0.792978
0.797886
0.802604
0.807133
0.811473
0.815625
0.819589
0.823364
0.826951
0.830351
0.833563
0.836588
0.839427
0.842079
0.844545
0.846824
0.848918
0.850827
0.85255
0.85409
0.855447
0.856616
0.857576
0.858292
0.859001
0.861191
0.854672
0.862837
92.88
-38.0703
8.60365
-0.0762472
-0.17867
0.0833091
0.112617
0.121406
0.135969
0.151884
0.167746
0.183498
0.199176
0.214787
0.230324
0.245782
0.261156
0.27644
0.291631
0.306721
0.321708
0.336587
0.351352
0.366
0.380526
0.394926
0.409195
0.42333
0.437327
0.451181
0.46489
0.478449
0.491855
0.505104
0.518193
0.531119
0.543878
0.556468
0.568887
0.58113
0.593196
0.605081
0.616784
0.628303
0.639634
0.650777
0.661729
0.672488
0.683053
0.693421
0.703592
0.713564
0.723336
0.732907
0.742275
0.751439
0.760399
0.769154
0.777703
0.786045
0.79418
0.802107
0.809825
0.817336
0.824637
0.83173
0.838613
0.845287
0.851751
0.858006
0.864052
0.869888
0.875515
0.880933
0.886142
0.891142
0.895934
0.900517
0.904893
0.90906
0.913021
0.916774
0.920321
0.923661
0.926794
0.929722
0.932444
0.934961
0.937273
0.93938
0.941283
0.942981
0.944478
0.945773
0.946849
0.94763
0.948315
0.951254
0.942964
0.952906
92.8808
-38.068
8.60743
-0.0709585
-0.171877
0.0916055
0.122413
0.132698
0.148754
0.166158
0.183503
0.200732
0.217883
0.234959
0.251955
0.268864
0.285681
0.3024
0.319016
0.335524
0.351918
0.368193
0.384345
0.400367
0.416257
0.432009
0.447618
0.46308
0.47839
0.493546
0.508541
0.523373
0.538037
0.55253
0.566848
0.580987
0.594944
0.608716
0.6223
0.635693
0.648891
0.661892
0.674694
0.687294
0.699689
0.711878
0.723857
0.735626
0.747183
0.758525
0.76965
0.780559
0.791248
0.801717
0.811964
0.821989
0.83179
0.841366
0.850717
0.859842
0.868741
0.877412
0.885855
0.89407
0.902057
0.909815
0.917344
0.924645
0.931716
0.938558
0.945171
0.951555
0.95771
0.963636
0.969334
0.974804
0.980045
0.985059
0.989845
0.994404
0.998737
1.00284
1.00672
1.01038
1.0138
1.01701
1.01998
1.02274
1.02527
1.02757
1.02965
1.03151
1.03315
1.03456
1.03575
1.0366
1.03725
1.04088
1.03107
1.04254
92.8816
-38.0658
8.61119
-0.065699
-0.165118
0.0998611
0.132163
0.143939
0.161481
0.180368
0.19919
0.217892
0.236509
0.255044
0.273493
0.291847
0.310102
0.32825
0.346287
0.364206
0.382001
0.399667
0.4172
0.434592
0.45184
0.468938
0.485882
0.502665
0.519285
0.535736
0.552013
0.568113
0.58403
0.599762
0.615303
0.630651
0.645802
0.660751
0.675496
0.690033
0.70436
0.718472
0.732368
0.746045
0.7595
0.77273
0.785734
0.798509
0.811053
0.823364
0.835441
0.847281
0.858884
0.870248
0.881371
0.892252
0.902891
0.913286
0.923436
0.933341
0.943
0.952412
0.961577
0.970495
0.979164
0.987585
0.995758
1.00368
1.01136
1.01878
1.02596
1.03289
1.03957
1.04601
1.05219
1.05813
1.06382
1.06926
1.07446
1.0794
1.08411
1.08856
1.09277
1.09674
1.10046
1.10394
1.10717
1.11016
1.1129
1.11541
1.11767
1.11968
1.12146
1.12299
1.12428
1.12521
1.12584
1.13004
1.11903
1.13173
92.8823
-38.0635
8.61494
-0.0604624
-0.158388
0.108082
0.141871
0.155132
0.174155
0.194517
0.214811
0.234978
0.255055
0.275044
0.294939
0.314733
0.334419
0.35399
0.373441
0.392765
0.411956
0.431008
0.449915
0.468671
0.487272
0.505711
0.523983
0.542083
0.560005
0.577746
0.5953
0.612662
0.629827
0.646793
0.663553
0.680104
0.696443
0.712564
0.728465
0.744142
0.759592
0.774811
0.789797
0.804546
0.819055
0.833323
0.847346
0.861123
0.87465
0.887927
0.900951
0.913719
0.926232
0.938486
0.950482
0.962216
0.973689
0.984899
0.995845
1.00653
1.01694
1.02709
1.03698
1.04659
1.05594
1.06502
1.07384
1.08238
1.09066
1.09867
1.10641
1.11388
1.12109
1.12802
1.13469
1.1411
1.14723
1.1531
1.1587
1.16404
1.16911
1.17392
1.17846
1.18274
1.18675
1.1905
1.19398
1.19721
1.20017
1.20287
1.2053
1.20748
1.20939
1.21105
1.21244
1.21344
1.21407
1.2187
1.20681
1.22045
92.8831
-38.0613
8.61866
-0.0552499
-0.151689
0.116265
0.151536
0.166273
0.18677
0.208602
0.23036
0.251986
0.273516
0.294952
0.316287
0.337514
0.358624
0.379612
0.400471
0.421193
0.441773
0.462204
0.48248
0.502594
0.52254
0.542314
0.561908
0.581318
0.600538
0.619563
0.638387
0.657006
0.675414
0.693607
0.71158
0.72933
0.74685
0.764139
0.781191
0.798002
0.81457
0.830891
0.846961
0.862777
0.878337
0.893637
0.908675
0.923448
0.937955
0.952192
0.966158
0.979851
0.993269
1.00641
1.01927
1.03186
1.04416
1.05618
1.06792
1.07937
1.09054
1.10143
1.11203
1.12234
1.13236
1.1421
1.15155
1.16072
1.16959
1.17818
1.18648
1.1945
1.20222
1.20966
1.21682
1.22368
1.23026
1.23655
1.24256
1.24829
1.25372
1.25888
1.26375
1.26833
1.27264
1.27666
1.2804
1.28385
1.28703
1.28992
1.29253
1.29487
1.29692
1.2987
1.30019
1.30127
1.30192
1.30683
1.29439
1.30868
92.8838
-38.0591
8.62237
-0.0500634
-0.145023
0.124408
0.161152
0.17736
0.199323
0.222617
0.245832
0.26891
0.291886
0.314762
0.33753
0.360182
0.38271
0.405108
0.427367
0.449481
0.471443
0.493246
0.514883
0.536348
0.557635
0.578736
0.599647
0.62036
0.640871
0.661173
0.681262
0.701131
0.720775
0.74019
0.75937
0.778311
0.797009
0.815458
0.833655
0.851595
0.869276
0.886692
0.903841
0.92072
0.937324
0.953652
0.969699
0.985465
1.00095
1.01614
1.03104
1.04565
1.05997
1.074
1.08772
1.10115
1.11428
1.12711
1.13964
1.15186
1.16378
1.17539
1.1867
1.19771
1.20841
1.2188
1.22889
1.23867
1.24814
1.2573
1.26616
1.27471
1.28296
1.2909
1.29853
1.30586
1.31288
1.31959
1.32601
1.33211
1.33792
1.34342
1.34861
1.35351
1.3581
1.36239
1.36638
1.37007
1.37346
1.37654
1.37933
1.38182
1.38401
1.38591
1.38751
1.38867
1.38934
1.39443
1.38169
1.39641
92.8846
-38.0569
8.62606
-0.0449047
-0.138392
0.132507
0.170717
0.188388
0.21181
0.236558
0.261222
0.285745
0.310159
0.334467
0.35866
0.38273
0.406668
0.430468
0.454121
0.477619
0.500956
0.524124
0.547115
0.569924
0.592543
0.614965
0.637185
0.659195
0.68099
0.702563
0.723909
0.745021
0.765895
0.786525
0.806906
0.827033
0.846901
0.866505
0.88584
0.904904
0.923691
0.942197
0.96042
0.978355
0.995998
1.01335
1.0304
1.04715
1.0636
1.07975
1.09558
1.11111
1.12632
1.14122
1.15581
1.17008
1.18403
1.19766
1.21097
1.22396
1.23663
1.24897
1.26099
1.27268
1.28405
1.29509
1.30581
1.3162
1.32626
1.336
1.34541
1.3545
1.36326
1.3717
1.37981
1.38759
1.39505
1.40219
1.409
1.41549
1.42166
1.4275
1.43303
1.43823
1.44311
1.44767
1.4519
1.45582
1.45942
1.46271
1.46567
1.46831
1.47064
1.47266
1.47436
1.4756
1.47632
1.48148
1.46868
1.48361
92.8853
-38.0547
8.62973
-0.0397753
-0.131799
0.140561
0.180228
0.199353
0.224226
0.25042
0.276526
0.302484
0.328329
0.35406
0.37967
0.40515
0.430491
0.455685
0.480723
0.505598
0.530302
0.554827
0.579165
0.60331
0.627254
0.65099
0.674511
0.69781
0.720882
0.743718
0.766315
0.788664
0.810761
0.832599
0.854174
0.875479
0.896511
0.917263
0.937731
0.957911
0.977798
0.997389
1.01668
1.03566
1.05434
1.07271
1.09076
1.10849
1.1259
1.14299
1.15976
1.17619
1.1923
1.20807
1.22351
1.23862
1.25338
1.26781
1.2819
1.29565
1.30906
1.32212
1.33485
1.34722
1.35926
1.37095
1.38229
1.39329
1.40394
1.41425
1.42422
1.43384
1.44311
1.45204
1.46063
1.46887
1.47676
1.48432
1.49153
1.4984
1.50493
1.51112
1.51696
1.52247
1.52763
1.53246
1.53695
1.54109
1.54491
1.54838
1.55152
1.55432
1.55678
1.55891
1.56072
1.56204
1.56283
1.56797
1.55529
1.57027
92.8861
-38.0525
8.63337
-0.0346767
-0.125245
0.148566
0.189682
0.210253
0.236567
0.264199
0.291737
0.319123
0.346389
0.373536
0.400555
0.427436
0.454171
0.48075
0.507166
0.533409
0.559472
0.585346
0.611023
0.636496
0.661757
0.686798
0.711613
0.736194
0.760534
0.784627
0.808466
0.832045
0.855357
0.878397
0.901158
0.923635
0.945823
0.967717
0.989311
1.0106
1.03158
1.05225
1.0726
1.09263
1.11233
1.13171
1.15075
1.16946
1.18783
1.20586
1.22355
1.24088
1.25788
1.27452
1.29081
1.30674
1.32232
1.33754
1.35241
1.36691
1.38106
1.39484
1.40826
1.42132
1.43402
1.44635
1.45832
1.46992
1.48116
1.49204
1.50255
1.5127
1.52248
1.5319
1.54096
1.54965
1.55798
1.56595
1.57356
1.58081
1.5877
1.59422
1.60039
1.6062
1.61165
1.61674
1.62147
1.62585
1.62987
1.63354
1.63685
1.6398
1.6424
1.64465
1.64655
1.64797
1.64882
1.65388
1.64148
1.65637
92.8868
-38.0503
8.637
-0.0296106
-0.118733
0.15652
0.199076
0.221083
0.24883
0.27789
0.306852
0.335656
0.364335
0.392888
0.421307
0.449581
0.4777
0.505657
0.533441
0.561044
0.588457
0.615671
0.642678
0.669471
0.696041
0.722379
0.74848
0.774334
0.799936
0.825277
0.85035
0.875151
0.89967
0.923903
0.947843
0.971485
0.994822
1.01785
1.04056
1.06295
1.08502
1.10676
1.12817
1.14923
1.16996
1.19034
1.21037
1.23004
1.24936
1.26833
1.28693
1.30517
1.32304
1.34054
1.35767
1.37443
1.39082
1.40683
1.42246
1.43772
1.4526
1.46709
1.48121
1.49495
1.5083
1.52127
1.53386
1.54606
1.55788
1.56932
1.58038
1.59105
1.60134
1.61125
1.62078
1.62992
1.63869
1.64707
1.65507
1.66269
1.66994
1.6768
1.68329
1.6894
1.69513
1.70049
1.70547
1.71007
1.7143
1.71815
1.72164
1.72474
1.72748
1.72984
1.73184
1.73334
1.73427
1.73921
1.72719
1.74189
92.8875
-38.0482
8.64059
-0.0245785
-0.112265
0.164421
0.208407
0.231841
0.261011
0.29149
0.321866
0.352079
0.382161
0.412111
0.44192
0.471577
0.501073
0.530397
0.55954
0.588493
0.617247
0.645793
0.674122
0.702225
0.730095
0.757722
0.7851
0.812219
0.839073
0.865654
0.891954
0.917967
0.943687
0.969105
0.994216
1.01901
1.04349
1.06765
1.09147
1.11496
1.13811
1.16091
1.18336
1.20546
1.22719
1.24857
1.26958
1.29022
1.31048
1.33038
1.34989
1.36902
1.38776
1.40612
1.42409
1.44167
1.45886
1.47565
1.49205
1.50805
1.52366
1.53886
1.55367
1.56808
1.58208
1.59569
1.60889
1.62169
1.63409
1.64609
1.65769
1.66888
1.67968
1.69007
1.70006
1.70965
1.71885
1.72764
1.73603
1.74403
1.75163
1.75883
1.76563
1.77204
1.77805
1.78367
1.78889
1.79372
1.79816
1.8022
1.80585
1.80911
1.81198
1.81446
1.81656
1.81815
1.81916
1.82393
1.81238
1.82682
92.8882
-38.046
8.64417
-0.0195818
-0.105842
0.172266
0.217673
0.242523
0.273106
0.304993
0.336773
0.368385
0.399861
0.431198
0.462388
0.493418
0.52428
0.554962
0.585455
0.61575
0.645835
0.675703
0.705344
0.734749
0.763909
0.792816
0.821462
0.849837
0.877934
0.905746
0.933265
0.960483
0.987393
1.01399
1.04026
1.06621
1.09182
1.11709
1.14202
1.1666
1.19081
1.21467
1.23816
1.26128
1.28403
1.30639
1.32837
1.34997
1.37117
1.39199
1.4124
1.43242
1.45203
1.47124
1.49004
1.50843
1.52642
1.54399
1.56115
1.57789
1.59422
1.61012
1.62562
1.64069
1.65534
1.66958
1.68339
1.69679
1.70976
1.72232
1.73445
1.74616
1.75746
1.76833
1.77878
1.78882
1.79844
1.80764
1.81642
1.82479
1.83274
1.84027
1.84739
1.85409
1.86039
1.86626
1.87173
1.87678
1.88142
1.88566
1.88948
1.89289
1.89589
1.89849
1.90068
1.90235
1.90345
1.90804
1.897
1.91113
92.8889
-38.0439
8.64771
-0.0146221
-0.099467
0.180054
0.226869
0.253126
0.285111
0.318397
0.351571
0.384571
0.41743
0.450144
0.482704
0.515098
0.547316
0.579346
0.611179
0.642804
0.674212
0.705392
0.736335
0.767032
0.797474
0.827651
0.857555
0.887177
0.916509
0.945542
0.97427
1.00268
1.03078
1.05854
1.08597
1.11305
1.13979
1.16617
1.1922
1.21785
1.24313
1.26804
1.29256
1.3167
1.34044
1.36379
1.38674
1.40928
1.43141
1.45314
1.47445
1.49535
1.51582
1.53587
1.5555
1.5747
1.59347
1.61182
1.62973
1.64721
1.66425
1.68086
1.69703
1.71277
1.72806
1.74292
1.75734
1.77133
1.78487
1.79797
1.81064
1.82287
1.83466
1.84601
1.85692
1.8674
1.87744
1.88704
1.89621
1.90495
1.91324
1.92111
1.92854
1.93554
1.94211
1.94824
1.95395
1.95923
1.96407
1.96849
1.97248
1.97604
1.97917
1.98189
1.98417
1.98593
1.98712
1.99151
1.98102
1.99481
92.8896
-38.0418
8.65123
-0.00970071
-0.0931413
0.18778
0.235994
0.263646
0.297023
0.331697
0.366254
0.400632
0.434863
0.468943
0.502863
0.53661
0.570173
0.603541
0.636703
0.669649
0.702369
0.734851
0.767087
0.799066
0.830778
0.862215
0.893368
0.924227
0.954784
0.98503
1.01496
1.04456
1.07382
1.10275
1.13132
1.15954
1.18739
1.21487
1.24198
1.26871
1.29505
1.32099
1.34654
1.37168
1.39642
1.42074
1.44464
1.46813
1.49119
1.51382
1.53602
1.55779
1.57912
1.6
1.62045
1.64045
1.66001
1.67912
1.69778
1.71598
1.73374
1.75104
1.76789
1.78428
1.80022
1.8157
1.83072
1.84528
1.85939
1.87305
1.88624
1.89898
1.91126
1.92309
1.93446
1.94537
1.95583
1.96583
1.97538
1.98448
1.99313
2.00132
2.00906
2.01635
2.0232
2.02959
2.03553
2.04103
2.04608
2.05068
2.05484
2.05855
2.06181
2.06464
2.06702
2.06886
2.07014
2.07433
2.06439
2.07784
92.8903
-38.0397
8.65472
-0.00481912
-0.086867
0.195445
0.245046
0.274082
0.308839
0.344889
0.380818
0.416563
0.452155
0.48759
0.522859
0.557948
0.592845
0.62754
0.662021
0.696277
0.730297
0.764071
0.797589
0.830839
0.863813
0.8965
0.928891
0.960977
0.992749
1.0242
1.05531
1.08609
1.11652
1.14659
1.1763
1.20564
1.2346
1.26318
1.29136
1.31915
1.34654
1.37351
1.40008
1.42622
1.45194
1.47722
1.50208
1.5265
1.55047
1.57401
1.59709
1.61972
1.6419
1.66362
1.68488
1.70567
1.72601
1.74587
1.76527
1.7842
1.80267
1.82065
1.83817
1.85521
1.87178
1.88788
1.9035
1.91864
1.93331
1.94751
1.96123
1.97447
1.98724
1.99953
2.01136
2.0227
2.03358
2.04398
2.05391
2.06337
2.07236
2.08088
2.08893
2.09651
2.10362
2.11027
2.11645
2.12217
2.12742
2.1322
2.13652
2.14038
2.14378
2.14671
2.14919
2.15112
2.15248
2.15648
2.14708
2.16019
92.891
-38.0376
8.65818
2.12647e-05
-0.0806456
0.203044
0.254021
0.284429
0.320555
0.35797
0.395259
0.432359
0.4693
0.50608
0.542685
0.579105
0.615326
0.651336
0.687125
0.72268
0.75799
0.793045
0.827833
0.862344
0.896568
0.930494
0.964114
0.997416
1.03039
1.06303
1.09533
1.12727
1.15886
1.19007
1.22091
1.25136
1.28141
1.31107
1.34033
1.36917
1.39759
1.42559
1.45316
1.48029
1.50699
1.53323
1.55903
1.58437
1.60926
1.63368
1.65764
1.68113
1.70415
1.72669
1.74875
1.77034
1.79144
1.81206
1.8322
1.85185
1.87101
1.88968
1.90786
1.92555
1.94274
1.95945
1.97566
1.99138
2.0066
2.02133
2.03557
2.04932
2.06257
2.07533
2.0876
2.09938
2.11067
2.12146
2.13177
2.14159
2.15092
2.15976
2.16812
2.17599
2.18337
2.19027
2.19668
2.20261
2.20806
2.21303
2.21752
2.22152
2.22505
2.22809
2.23066
2.23267
2.23412
2.23794
2.22905
2.24184
92.8917
-38.0356
8.66161
0.00481907
-0.0744791
0.210577
0.262917
0.294685
0.332168
0.370936
0.409572
0.448016
0.486295
0.524406
0.562337
0.600076
0.637608
0.674923
0.712007
0.748849
0.785438
0.821762
0.85781
0.893571
0.929034
0.964189
0.999026
1.03353
1.0677
1.10153
1.13499
1.16809
1.20082
1.23316
1.26511
1.29667
1.32781
1.35855
1.38886
1.41875
1.4482
1.47721
1.50578
1.53389
1.56155
1.58875
1.61548
1.64174
1.66752
1.69283
1.71766
1.74199
1.76584
1.7892
1.81207
1.83443
1.8563
1.87767
1.89853
1.91889
1.93874
1.95809
1.97693
1.99525
2.01307
2.03038
2.04718
2.06347
2.07924
2.09451
2.10926
2.12351
2.13724
2.15046
2.16318
2.17538
2.18708
2.19826
2.20894
2.21912
2.22878
2.23795
2.2466
2.25476
2.26241
2.26956
2.2762
2.28235
2.288
2.29315
2.29779
2.30194
2.3056
2.30875
2.31142
2.31351
2.31504
2.31869
2.31029
2.32278
92.8924
-38.0335
8.66501
0.00957295
-0.0683692
0.21804
0.271731
0.304847
0.343674
0.383782
0.423755
0.463529
0.503133
0.542564
0.581809
0.620854
0.659686
0.698293
0.736661
0.774779
0.812635
0.850217
0.887512
0.924512
0.961202
0.997575
1.03362
1.06932
1.10467
1.13967
1.17429
1.20854
1.2424
1.27586
1.30892
1.34156
1.37379
1.40558
1.43695
1.46787
1.49834
1.52835
1.55791
1.587
1.61561
1.64375
1.67141
1.69858
1.72525
1.75144
1.77712
1.8023
1.82698
1.85114
1.8748
1.89794
1.92056
1.94267
1.96425
1.98531
2.00585
2.02587
2.04536
2.06432
2.08276
2.10066
2.11804
2.1349
2.15122
2.16701
2.18227
2.19701
2.21122
2.2249
2.23805
2.25068
2.26278
2.27435
2.2854
2.29593
2.30593
2.31541
2.32437
2.3328
2.34072
2.34812
2.35499
2.36135
2.3672
2.37252
2.37733
2.38162
2.3854
2.38867
2.39142
2.3936
2.39522
2.3987
2.39077
2.40297
92.8931
-38.0315
8.66837
0.0142816
-0.0623175
0.225432
0.280461
0.314913
0.355071
0.396506
0.437802
0.478894
0.519811
0.56055
0.601095
0.641434
0.681554
0.72144
0.76108
0.800461
0.839572
0.878399
0.916931
0.955157
0.993064
1.03064
1.06788
1.10477
1.14129
1.17744
1.21321
1.2486
1.28358
1.31815
1.3523
1.38603
1.41932
1.45217
1.48457
1.51652
1.548
1.57901
1.60954
1.63959
1.66916
1.69823
1.7268
1.75487
1.78243
1.80948
1.83601
1.86203
1.88752
1.91249
1.93693
1.96083
1.98421
2.00704
2.02934
2.0511
2.07232
2.093
2.11314
2.13273
2.15177
2.17027
2.18823
2.20564
2.2225
2.23882
2.25459
2.26981
2.28449
2.29862
2.31221
2.32526
2.33776
2.34971
2.36113
2.372
2.38234
2.39213
2.40138
2.4101
2.41828
2.42592
2.43303
2.4396
2.44563
2.45114
2.45611
2.46054
2.46445
2.46782
2.47067
2.47292
2.47462
2.47796
2.47045
2.48241
92.8937
-38.0295
8.6717
0.0189437
-0.0563256
0.232751
0.289105
0.324878
0.366355
0.409104
0.45171
0.494107
0.536324
0.578357
0.62019
0.661811
0.703204
0.744358
0.785257
0.825889
0.866242
0.906303
0.946059
0.985498
1.02461
1.06338
1.1018
1.13986
1.17754
1.21484
1.25175
1.28826
1.32435
1.36002
1.39526
1.43005
1.4644
1.4983
1.53173
1.56469
1.59717
1.62916
1.66066
1.69167
1.72217
1.75216
1.78164
1.8106
1.83904
1.86695
1.89432
1.92116
1.94747
1.97322
1.99844
2.0231
2.04722
2.07078
2.09379
2.11624
2.13813
2.15947
2.18024
2.20045
2.2201
2.23919
2.25772
2.27568
2.29307
2.30991
2.32618
2.34189
2.35703
2.37161
2.38563
2.39909
2.41199
2.42433
2.4361
2.44732
2.45798
2.46809
2.47764
2.48663
2.49507
2.50295
2.51028
2.51706
2.52329
2.52897
2.5341
2.53868
2.54271
2.54619
2.54912
2.55146
2.55323
2.55644
2.54932
2.56107
92.8944
-38.0275
8.675
0.0235579
-0.0503953
0.239995
0.29766
0.334741
0.377523
0.421573
0.465475
0.509164
0.552668
0.595981
0.639089
0.681978
0.724633
0.76704
0.809186
0.851056
0.892638
0.93392
0.974887
1.01553
1.05583
1.09578
1.13537
1.17459
1.21342
1.25186
1.28989
1.32751
1.3647
1.40146
1.43777
1.47363
1.50902
1.54395
1.5784
1.61236
1.64583
1.6788
1.71126
1.74321
1.77464
1.80555
1.83592
1.86576
1.89507
1.92382
1.95203
1.97969
2.00679
2.03334
2.05932
2.08473
2.10958
2.13386
2.15757
2.1807
2.20326
2.22525
2.24665
2.26748
2.28773
2.3074
2.32649
2.34499
2.36292
2.38027
2.39703
2.41322
2.42882
2.44385
2.4583
2.47216
2.48545
2.49817
2.5103
2.52186
2.53285
2.54326
2.5531
2.56237
2.57106
2.57919
2.58674
2.59373
2.60015
2.606
2.61128
2.616
2.62016
2.62375
2.62677
2.62918
2.63103
2.63413
2.62736
2.63892
92.895
-38.0256
8.67826
0.0281232
-0.0445281
0.247162
0.306124
0.3445
0.388572
0.433909
0.479094
0.524061
0.568837
0.613417
0.657787
0.70193
0.745833
0.789481
0.832859
0.875955
0.918754
0.961242
1.00341
1.04524
1.08672
1.12784
1.16859
1.20895
1.24892
1.28848
1.32763
1.36635
1.40462
1.44245
1.47983
1.51673
1.55316
1.58911
1.62457
1.65952
1.69397
1.7279
1.76131
1.7942
1.82655
1.85836
1.88962
1.92034
1.95049
1.98009
2.00913
2.03759
2.06549
2.09281
2.11955
2.1457
2.17128
2.19627
2.22067
2.24448
2.2677
2.29032
2.31236
2.33379
2.35463
2.37488
2.39452
2.41357
2.43202
2.44987
2.46713
2.48379
2.49985
2.51531
2.53018
2.54446
2.55813
2.57122
2.58371
2.59561
2.60692
2.61763
2.62776
2.6373
2.64625
2.65461
2.66239
2.66958
2.67618
2.68221
2.68765
2.6925
2.69678
2.70047
2.70359
2.70607
2.708
2.711
2.70455
2.71594
92.8957
-38.0236
8.68149
0.0326381
-0.0387255
0.25425
0.314495
0.35415
0.399499
0.446109
0.492563
0.538793
0.584829
0.630662
0.676279
0.721663
0.7668
0.811675
0.856272
0.900579
0.944581
0.988264
1.03162
1.07462
1.11727
1.15955
1.20144
1.24294
1.28403
1.3247
1.36495
1.40475
1.44411
1.483
1.52142
1.55937
1.59682
1.63378
1.67023
1.70617
1.74158
1.77647
1.81082
1.84462
1.87788
1.91059
1.94273
1.9743
2.00531
2.03574
2.06559
2.09485
2.12353
2.15162
2.17911
2.206
2.23229
2.25799
2.28307
2.30755
2.33142
2.35468
2.37733
2.39937
2.42079
2.44161
2.4618
2.48139
2.50036
2.51871
2.53645
2.55358
2.57009
2.58599
2.60127
2.61595
2.63001
2.64346
2.6563
2.66854
2.68016
2.69118
2.70159
2.7114
2.7206
2.7292
2.73719
2.74459
2.75138
2.75757
2.76316
2.76816
2.77255
2.77635
2.77955
2.78212
2.78411
2.78703
2.78087
2.79213
92.8963
-38.0217
8.68468
0.0371017
-0.0329889
0.261257
0.322771
0.363691
0.410302
0.458171
0.505878
0.553358
0.600638
0.64771
0.69456
0.741171
0.787528
0.833615
0.879418
0.924923
0.970114
1.01498
1.0595
1.10367
1.14747
1.19089
1.23391
1.27653
1.31874
1.36051
1.40184
1.44272
1.48314
1.52308
1.56254
1.60151
1.63998
1.67793
1.71537
1.75228
1.78865
1.82448
1.85975
1.89447
1.92863
1.96222
1.99523
2.02766
2.0595
2.09075
2.12141
2.15146
2.18091
2.20976
2.23799
2.26561
2.29261
2.319
2.34476
2.3699
2.39441
2.4183
2.44156
2.4642
2.4862
2.50757
2.52832
2.54843
2.56791
2.58676
2.60498
2.62257
2.63952
2.65585
2.67155
2.68662
2.70106
2.71488
2.72807
2.74063
2.75257
2.76389
2.77458
2.78465
2.7941
2.80293
2.81114
2.81874
2.82571
2.83207
2.83782
2.84295
2.84746
2.85136
2.85465
2.85729
2.85935
2.8622
2.8563
2.86744
92.8969
-38.0198
8.68783
0.0415128
-0.02732
0.268182
0.330949
0.37312
0.420978
0.47009
0.519036
0.567751
0.616261
0.664557
0.712625
0.760449
0.808011
0.855297
0.902292
0.94898
0.995346
1.04138
1.08706
1.13237
1.17731
1.22186
1.26601
1.30973
1.35303
1.39589
1.4383
1.48024
1.52171
1.56269
1.60318
1.64316
1.68263
1.72157
1.75998
1.79784
1.83516
1.87192
1.90811
1.94374
1.97878
2.01324
2.04711
2.08038
2.11305
2.14511
2.17656
2.2074
2.23762
2.26721
2.29618
2.32451
2.35222
2.37929
2.40572
2.43151
2.45666
2.48117
2.50504
2.52826
2.55083
2.57276
2.59404
2.61468
2.63466
2.654
2.67269
2.69074
2.70814