/*--------------------------------*- C++ -*----------------------------------*\
  =========                 |
  \\      /  F ield         | OpenFOAM: The Open Source CFD Toolbox
   \\    /   O peration     | Website:  https://openfoam.org
    \\  /    A nd           | Version:  10
     \\/     M anipulation  |
\*---------------------------------------------------------------------------*/
FoamFile
{
    format      ascii;
    class       volScalarField;
    location    "39.5";
    object      T_0;
}
// * * * * * * * * * * * * * * * * * * * * * * * * * * * * * * * * * * * * * //

dimensions      [0 0 0 1 0 0 0];

internalField   nonuniform List<scalar> 
10000
(
374.987
361.301
356.629
354.585
353.48
352.786
352.305
351.948
351.671
351.448
351.263
351.106
350.97
350.852
350.746
350.651
350.565
350.487
350.414
350.346
350.283
350.224
350.168
350.115
350.065
350.017
349.971
349.927
349.885
349.844
349.805
349.767
349.731
349.695
349.661
349.627
349.595
349.563
349.532
349.502
349.473
349.444
349.417
349.389
349.363
349.337
349.312
349.287
349.263
349.24
349.217
349.194
349.173
349.151
349.13
349.11
349.09
349.071
349.052
349.034
349.016
348.999
348.982
348.965
348.95
348.934
348.919
348.905
348.89
348.877
348.864
348.851
348.839
348.827
348.815
348.805
348.794
348.784
348.774
348.765
348.757
348.748
348.741
348.733
348.726
348.72
348.714
348.708
348.703
348.699
348.694
348.691
348.687
348.684
348.682
348.68
348.678
348.677
348.677
348.676
388.625
374.89
367.257
362.818
360.031
358.147
356.791
355.766
354.96
354.306
353.761
353.297
352.896
352.543
352.229
351.947
351.69
351.455
351.237
351.035
350.847
350.67
350.503
350.344
350.194
350.05
349.913
349.781
349.655
349.533
349.415
349.302
349.192
349.085
348.982
348.882
348.784
348.689
348.597
348.507
348.419
348.334
348.25
348.169
348.09
348.012
347.936
347.863
347.79
347.72
347.651
347.584
347.519
347.455
347.392
347.331
347.272
347.214
347.158
347.103
347.049
346.997
346.947
346.898
346.85
346.803
346.758
346.715
346.672
346.632
346.592
346.554
346.517
346.482
346.448
346.415
346.383
346.353
346.325
346.297
346.271
346.247
346.223
346.201
346.181
346.161
346.143
346.126
346.111
346.097
346.084
346.073
346.063
346.054
346.047
346.041
346.036
346.033
346.031
346.03
393.248
382.375
374.693
369.397
365.678
362.979
360.947
359.366
358.097
357.054
356.177
355.426
354.772
354.196
353.681
353.216
352.793
352.405
352.046
351.712
351.399
351.106
350.829
350.566
350.316
350.078
349.85
349.631
349.42
349.218
349.022
348.833
348.651
348.473
348.301
348.134
347.972
347.814
347.66
347.51
347.364
347.222
347.083
346.948
346.815
346.686
346.56
346.437
346.317
346.2
346.085
345.974
345.864
345.758
345.654
345.553
345.454
345.357
345.263
345.172
345.083
344.996
344.912
344.83
344.75
344.673
344.598
344.525
344.455
344.387
344.321
344.257
344.196
344.137
344.08
344.026
343.973
343.923
343.875
343.83
343.786
343.745
343.706
343.67
343.635
343.603
343.573
343.545
343.52
343.496
343.475
343.456
343.439
343.425
343.413
343.403
343.395
343.389
343.386
343.384
395.243
386.667
379.744
374.399
370.307
367.143
364.653
362.652
361.01
359.637
358.469
357.459
356.573
355.788
355.083
354.445
353.863
353.327
352.83
352.368
351.935
351.527
351.142
350.777
350.429
350.097
349.779
349.474
349.18
348.898
348.625
348.361
348.106
347.858
347.618
347.385
347.158
346.937
346.722
346.513
346.308
346.109
345.915
345.726
345.541
345.36
345.184
345.012
344.844
344.68
344.52
344.363
344.211
344.062
343.916
343.775
343.636
343.501
343.37
343.242
343.117
342.996
342.878
342.763
342.652
342.544
342.439
342.337
342.239
342.143
342.051
341.962
341.876
341.794
341.714
341.638
341.565
341.495
341.428
341.364
341.303
341.246
341.191
341.14
341.092
341.046
341.004
340.966
340.93
340.897
340.867
340.841
340.818
340.797
340.78
340.766
340.755
340.747
340.742
340.741
396.299
389.307
383.218
378.149
374.008
370.635
367.871
365.58
363.655
362.017
360.603
359.367
358.275
357.3
356.42
355.62
354.887
354.211
353.583
352.996
352.446
351.928
351.437
350.972
350.528
350.104
349.697
349.307
348.932
348.57
348.221
347.883
347.556
347.239
346.931
346.631
346.34
346.057
345.781
345.513
345.251
344.995
344.746
344.503
344.266
344.034
343.808
343.587
343.371
343.16
342.955
342.754
342.558
342.366
342.179
341.997
341.82
341.646
341.478
341.313
341.153
340.997
340.846
340.698
340.555
340.416
340.281
340.15
340.024
339.901
339.783
339.669
339.559
339.452
339.35
339.252
339.158
339.068
338.982
338.9
338.822
338.748
338.678
338.612
338.55
338.492
338.438
338.388
338.342
338.3
338.262
338.228
338.198
338.172
338.15
338.132
338.118
338.107
338.101
338.099
396.944
391.044
385.673
380.97
376.94
373.519
370.616
368.141
366.015
364.173
362.56
361.134
359.862
358.718
357.679
356.73
355.857
355.049
354.296
353.591
352.929
352.303
351.711
351.147
350.61
350.096
349.603
349.129
348.674
348.234
347.809
347.398
347
346.613
346.238
345.874
345.519
345.174
344.838
344.511
344.191
343.88
343.576
343.279
342.99
342.707
342.431
342.161
341.898
341.641
341.39
341.144
340.905
340.671
340.443
340.221
340.004
339.793
339.587
339.386
339.19
339
338.815
338.635
338.46
338.29
338.126
337.966
337.811
337.662
337.517
337.378
337.243
337.113
336.989
336.869
336.754
336.644
336.539
336.439
336.344
336.253
336.168
336.087
336.012
335.941
335.875
335.814
335.758
335.706
335.66
335.618
335.582
335.55
335.523
335.501
335.483
335.471
335.463
335.461
397.376
392.253
387.461
383.119
379.265
375.885
372.934
370.355
368.094
366.1
364.331
362.748
361.324
360.031
358.851
357.767
356.765
355.833
354.963
354.146
353.377
352.649
351.958
351.3
350.672
350.07
349.493
348.938
348.403
347.887
347.387
346.904
346.436
345.982
345.54
345.111
344.694
344.287
343.891
343.505
343.129
342.762
342.404
342.054
341.712
341.379
341.053
340.735
340.425
340.121
339.825
339.536
339.253
338.978
338.709
338.446
338.19
337.94
337.697
337.46
337.229
337.005
336.786
336.574
336.367
336.167
335.973
335.784
335.602
335.425
335.255
335.09
334.931
334.778
334.63
334.489
334.353
334.223
334.099
333.981
333.869
333.762
333.661
333.566
333.477
333.393
333.315
333.243
333.177
333.116
333.061
333.012
332.969
332.931
332.899
332.873
332.853
332.838
332.829
332.826
397.684
393.132
388.799
384.778
381.118
377.824
374.879
372.252
369.906
367.806
365.916
364.207
362.654
361.235
359.93
358.724
357.604
356.559
355.58
354.658
353.787
352.961
352.176
351.427
350.711
350.025
349.365
348.73
348.118
347.527
346.955
346.401
345.864
345.342
344.835
344.343
343.863
343.396
342.941
342.497
342.064
341.642
341.229
340.827
340.434
340.05
339.675
339.309
338.952
338.602
338.261
337.928
337.603
337.285
336.975
336.673
336.378
336.09
335.81
335.537
335.271
335.012
334.76
334.515
334.278
334.047
333.823
333.606
333.395
333.192
332.995
332.805
332.622
332.445
332.276
332.113
331.956
331.807
331.664
331.527
331.398
331.275
331.158
331.049
330.946
330.849
330.76
330.676
330.6
330.53
330.467
330.41
330.36
330.317
330.28
330.25
330.227
330.21
330.199
330.196
397.913
393.792
389.823
386.08
382.605
379.415
376.509
373.87
371.476
369.302
367.322
365.513
363.854
362.326
360.912
359.598
358.372
357.223
356.142
355.122
354.156
353.237
352.362
351.526
350.725
349.957
349.218
348.505
347.818
347.153
346.51
345.887
345.282
344.694
344.123
343.567
343.026
342.499
341.986
341.485
340.996
340.519
340.053
339.598
339.154
338.72
338.297
337.883
337.478
337.083
336.698
336.321
335.953
335.594
335.243
334.901
334.567
334.242
333.925
333.616
333.315
333.022
332.737
332.46
332.191
331.93
331.676
331.43
331.192
330.962
330.739
330.524
330.317
330.117
329.925
329.741
329.564
329.394
329.232
329.078
328.931
328.792
328.66
328.536
328.42
328.31
328.209
328.115
328.028
327.949
327.877
327.813
327.757
327.708
327.666
327.632
327.605
327.586
327.575
327.57
398.087
394.301
390.624
387.113
383.806
380.725
377.872
375.244
372.827
370.605
368.559
366.672
364.927
363.307
361.798
360.388
359.067
357.823
356.649
355.537
354.481
353.475
352.514
351.595
350.713
349.865
349.049
348.262
347.501
346.765
346.052
345.361
344.689
344.037
343.402
342.785
342.183
341.597
341.026
340.468
339.924
339.393
338.874
338.368
337.873
337.39
336.918
336.456
336.006
335.565
335.135
334.715
334.305
333.904
333.513
333.132
332.759
332.397
332.043
331.698
331.362
331.036
330.718
330.408
330.108
329.817
329.534
329.259
328.994
328.737
328.488
328.248
328.017
327.794
327.579
327.373
327.176
326.987
326.806
326.634
326.47
326.315
326.168
326.029
325.899
325.777
325.664
325.559
325.462
325.374
325.294
325.222
325.159
325.104
325.058
325.02
324.99
324.969
324.956
324.951
398.224
394.701
391.259
387.943
384.785
381.806
379.014
376.409
373.986
371.734
369.641
367.692
365.876
364.179
362.588
361.095
359.687
358.357
357.097
355.9
354.76
353.672
352.631
351.632
350.672
349.749
348.858
347.998
347.166
346.36
345.58
344.822
344.085
343.37
342.673
341.995
341.334
340.689
340.061
339.447
338.849
338.264
337.693
337.135
336.591
336.058
335.538
335.03
334.533
334.048
333.574
333.11
332.658
332.216
331.785
331.365
330.954
330.554
330.164
329.783
329.413
329.052
328.702
328.361
328.029
327.708
327.395
327.093
326.8
326.516
326.242
325.977
325.722
325.476
325.239
325.012
324.794
324.585
324.385
324.195
324.015
323.843
323.681
323.528
323.384
323.25
323.125
323.009
322.902
322.804
322.716
322.637
322.568
322.507
322.456
322.414
322.381
322.357
322.343
322.338
398.332
395.019
391.768
388.615
385.586
382.701
379.969
377.395
374.976
372.707
370.58
368.584
366.71
364.947
363.287
361.718
360.234
358.826
357.488
356.212
354.994
353.828
352.71
351.636
350.602
349.605
348.643
347.713
346.812
345.939
345.092
344.269
343.47
342.692
341.934
341.196
340.476
339.775
339.09
338.422
337.769
337.132
336.509
335.901
335.307
334.726
334.158
333.603
333.061
332.531
332.013
331.507
331.013
330.531
330.06
329.6
329.152
328.714
328.288
327.872
327.467
327.073
326.69
326.317
325.955
325.603
325.262
324.931
324.611
324.301
324.001
323.711
323.432
323.163
322.904
322.656
322.417
322.189
321.971
321.763
321.566
321.378
321.201
321.033
320.876
320.729
320.592
320.465
320.349
320.242
320.146
320.059
319.983
319.917
319.861
319.815
319.779
319.753
319.738
319.732
398.42
395.276
392.181
389.163
386.245
383.444
380.769
378.228
375.819
373.542
371.39
369.357
367.436
365.618
363.896
362.263
360.71
359.231
357.821
356.473
355.181
353.943
352.752
351.607
350.502
349.435
348.404
347.406
346.439
345.501
344.589
343.703
342.842
342.003
341.185
340.389
339.612
338.854
338.114
337.391
336.686
335.996
335.323
334.664
334.021
333.392
332.777
332.176
331.589
331.015
330.454
329.906
329.37
328.847
328.337
327.839
327.352
326.878
326.416
325.965
325.526
325.099
324.683
324.279
323.886
323.504
323.134
322.775
322.428
322.091
321.766
321.452
321.149
320.857
320.576
320.306
320.048
319.8
319.564
319.338
319.124
318.92
318.728
318.546
318.375
318.216
318.067
317.93
317.803
317.687
317.583
317.489
317.406
317.334
317.274
317.224
317.185
317.157
317.14
317.134
398.49
395.485
392.518
389.613
386.789
384.061
381.439
378.929
376.534
374.254
372.085
370.023
368.062
366.198
364.423
362.731
361.117
359.574
358.098
356.682
355.323
354.016
352.757
351.544
350.371
349.238
348.141
347.078
346.046
345.044
344.07
343.123
342.201
341.302
340.427
339.573
338.739
337.926
337.132
336.356
335.598
334.858
334.134
333.426
332.734
332.058
331.396
330.75
330.118
329.5
328.896
328.306
327.73
327.167
326.617
326.08
325.557
325.046
324.548
324.062
323.589
323.129
322.681
322.245
321.822
321.411
321.012
320.625
320.251
319.888
319.537
319.199
318.872
318.558
318.255
317.964
317.686
317.419
317.164
316.92
316.689
316.47
316.262
316.067
315.883
315.711
315.55
315.402
315.266
315.141
315.028
314.927
314.838
314.76
314.695
314.641
314.599
314.569
314.551
314.544
398.548
395.656
392.794
389.983
387.239
384.574
381.999
379.519
377.138
374.858
372.676
370.59
368.597
366.693
364.871
363.128
361.458
359.857
358.32
356.842
355.419
354.048
352.725
351.447
350.211
349.013
347.853
346.726
345.633
344.569
343.535
342.528
341.547
340.59
339.658
338.748
337.859
336.992
336.144
335.316
334.506
333.715
332.942
332.185
331.446
330.722
330.015
329.323
328.647
327.986
327.34
326.709
326.091
325.489
324.9
324.325
323.765
323.218
322.684
322.164
321.658
321.165
320.685
320.218
319.764
319.324
318.896
318.482
318.08
317.692
317.316
316.953
316.603
316.266
315.942
315.63
315.331
315.045
314.772
314.511
314.263
314.028
313.805
313.596
313.398
313.214
313.042
312.883
312.737
312.603
312.482
312.374
312.278
312.195
312.125
312.067
312.022
311.99
311.97
311.963
398.595
395.795
393.021
390.288
387.611
385
382.465
380.012
377.645
375.366
373.175
371.07
369.049
367.109
365.246
363.457
361.737
360.082
358.489
356.953
355.472
354.04
352.657
351.317
350.02
348.761
347.54
346.353
345.199
344.076
342.983
341.918
340.88
339.867
338.878
337.913
336.971
336.05
335.15
334.271
333.411
332.57
331.747
330.943
330.156
329.386
328.634
327.898
327.178
326.474
325.786
325.113
324.456
323.814
323.187
322.575
321.977
321.394
320.826
320.271
319.731
319.206
318.694
318.196
317.713
317.243
316.787
316.345
315.917
315.503
315.102
314.715
314.342
313.982
313.636
313.304
312.985
312.68
312.388
312.11
311.846
311.595
311.357
311.134
310.923
310.727
310.543
310.374
310.218
310.075
309.946
309.83
309.728
309.64
309.565
309.503
309.455
309.421
309.4
309.392
398.634
395.91
393.207
390.539
387.917
385.352
382.852
380.423
378.068
375.791
373.592
371.47
369.425
367.453
365.554
363.723
361.957
360.253
358.608
357.019
355.482
353.994
352.552
351.155
349.799
348.482
347.202
345.957
344.745
343.565
342.415
341.293
340.199
339.131
338.089
337.07
336.075
335.102
334.15
333.22
332.31
331.421
330.55
329.698
328.865
328.05
327.253
326.473
325.71
324.964
324.234
323.521
322.824
322.143
321.478
320.828
320.194
319.575
318.972
318.384
317.811
317.253
316.71
316.182
315.668
315.17
314.686
314.216
313.762
313.322
312.896
312.485
312.089
311.707
311.339
310.986
310.648
310.324
310.014
309.719
309.438
309.171
308.919
308.681
308.458
308.249
308.055
307.874
307.708
307.557
307.42
307.297
307.189
307.095
307.015
306.95
306.899
306.862
306.84
306.832
398.666
396.004
393.359
390.745
388.169
385.642
383.171
380.762
378.417
376.141
373.935
371.799
369.731
367.732
365.799
363.93
362.122
360.373
358.68
357.04
355.451
353.909
352.414
350.961
349.549
348.176
346.84
345.539
344.272
343.036
341.831
340.654
339.506
338.384
337.289
336.218
335.17
334.146
333.145
332.165
331.206
330.268
329.351
328.452
327.573
326.713
325.872
325.048
324.243
323.455
322.685
321.931
321.195
320.475
319.772
319.086
318.416
317.762
317.124
316.502
315.897
315.307
314.732
314.174
313.631
313.104
312.592
312.095
311.614
311.149
310.699
310.264
309.845
309.441
309.052
308.679
308.32
307.977
307.65
307.337
307.04
306.758
306.491
306.24
306.003
305.782
305.576
305.386
305.21
305.05
304.905
304.775
304.66
304.56
304.476
304.407
304.353
304.314
304.291
304.282
398.691
396.08
393.484
390.912
388.375
385.879
383.432
381.038
378.702
376.427
374.213
372.063
369.976
367.951
365.987
364.083
362.236
360.445
358.706
357.019
355.381
353.789
352.242
350.737
349.272
347.845
346.455
345.1
343.779
342.489
341.231
340.001
338.8
337.626
336.478
335.356
334.258
333.184
332.134
331.105
330.099
329.113
328.149
327.205
326.281
325.377
324.491
323.625
322.778
321.949
321.138
320.345
319.57
318.812
318.072
317.349
316.643
315.954
315.282
314.627
313.989
313.367
312.762
312.174
311.601
311.046
310.506
309.983
309.476
308.985
308.511
308.052
307.61
307.184
306.774
306.381
306.003
305.641
305.296
304.966
304.653
304.355
304.074
303.809
303.56
303.326
303.109
302.908
302.723
302.554
302.401
302.264
302.143
302.038
301.949
301.876
301.819
301.778
301.753
301.744
398.712
396.142
393.584
391.048
388.541
386.071
383.642
381.261
378.931
376.654
374.434
372.27
370.164
368.115
366.122
364.185
362.302
360.471
358.691
356.959
355.275
353.635
352.038
350.483
348.967
347.489
346.047
344.64
343.267
341.925
340.615
339.334
338.081
336.857
335.658
334.486
333.339
332.216
331.117
330.041
328.987
327.956
326.945
325.956
324.988
324.04
323.112
322.204
321.315
320.445
319.594
318.762
317.948
317.153
316.376
315.617
314.876
314.153
313.447
312.759
312.089
311.435
310.8
310.181
309.58
308.996
308.429
307.879
307.347
306.831
306.332
305.851
305.386
304.938
304.507
304.093
303.696
303.316
302.953
302.606
302.277
301.964
301.668
301.389
301.127
300.882
300.654
300.442
300.248
300.07
299.909
299.765
299.638
299.527
299.434
299.357
299.297
299.254
299.228
299.219
398.729
396.191
393.664
391.156
388.673
386.222
383.809
381.436
379.11
376.831
374.602
372.426
370.301
368.229
366.21
364.241
362.324
360.456
358.635
356.862
355.133
353.448
351.804
350.201
348.636
347.109
345.618
344.161
342.737
341.345
339.984
338.653
337.351
336.076
334.829
333.608
332.412
331.242
330.095
328.972
327.872
326.795
325.74
324.707
323.695
322.704
321.734
320.784
319.854
318.944
318.054
317.183
316.332
315.499
314.686
313.891
313.115
312.358
311.619
310.898
310.196
309.511
308.845
308.197
307.567
306.956
306.361
305.785
305.227
304.687
304.164
303.659
303.172
302.703
302.251
301.817
301.401
301.002
300.621
300.258
299.913
299.585
299.275
298.982
298.708
298.45
298.211
297.989
297.785
297.599
297.43
297.279
297.146
297.03
296.932
296.851
296.789
296.744
296.716
296.706
398.742
396.229
393.726
391.24
388.776
386.34
383.937
381.57
379.245
376.962
374.725
372.535
370.392
368.298
366.253
364.255
362.305
360.401
358.543
356.73
354.959
353.23
351.542
349.892
348.281
346.706
345.167
343.661
342.189
340.748
339.339
337.959
336.608
335.285
333.99
332.721
331.479
330.261
329.068
327.9
326.755
325.633
324.533
323.457
322.402
321.369
320.357
319.366
318.396
317.447
316.518
315.609
314.72
313.851
313.001
312.171
311.361
310.569
309.797
309.044
308.311
307.596
306.9
306.223
305.564
304.925
304.304
303.701
303.118
302.553
302.006
301.478
300.969
300.478
300.006
299.552
299.117
298.7
298.302
297.922
297.561
297.218
296.894
296.588
296.301
296.032
295.781
295.549
295.336
295.141
294.964
294.806
294.667
294.546
294.443
294.359
294.294
294.246
294.218
294.207
398.752
396.259
393.774
391.304
388.854
386.428
384.032
381.668
379.341
377.053
374.806
372.602
370.442
368.327
366.256
364.23
362.249
360.311
358.417
356.565
354.754
352.983
351.252
349.559
347.902
346.282
344.696
343.144
341.624
340.137
338.68
337.253
335.855
334.485
333.143
331.827
330.539
329.275
328.037
326.823
325.634
324.468
323.326
322.206
321.109
320.034
318.982
317.951
316.941
315.953
314.985
314.039
313.113
312.207
311.322
310.458
309.613
308.789
307.984
307.199
306.434
305.689
304.963
304.257
303.571
302.904
302.256
301.628
301.019
300.43
299.86
299.309
298.778
298.266
297.773
297.3
296.846
296.411
295.996
295.599
295.222
294.865
294.526
294.207
293.907
293.627
293.365
293.123
292.9
292.697
292.513
292.348
292.202
292.076
291.969
291.881
291.813
291.764
291.734
291.723
398.759
396.28
393.808
391.35
388.909
386.49
384.097
381.734
379.404
377.109
374.851
372.633
370.455
368.318
366.223
364.169
362.158
360.188
358.259
356.37
354.52
352.71
350.937
349.201
347.502
345.837
344.206
342.609
341.044
339.51
338.007
336.534
335.09
333.675
332.287
330.926
329.592
328.284
327.002
325.744
324.511
323.302
322.117
320.956
319.817
318.702
317.609
316.538
315.489
314.462
313.457
312.474
311.511
310.57
309.65
308.751
307.873
307.015
306.179
305.362
304.566
303.791
303.036
302.301
301.587
300.893
300.219
299.565
298.932
298.319
297.725
297.152
296.599
296.066
295.553
295.06
294.588
294.135
293.702
293.29
292.897
292.525
292.172
291.84
291.528
291.236
290.964
290.711
290.48
290.268
290.076
289.904
289.752
289.621
289.509
289.418
289.347
289.296
289.264
289.253
398.764
396.294
393.832
391.38
388.945
386.529
384.137
381.771
379.436
377.132
374.863
372.629
370.433
368.275
366.156
364.076
362.035
360.034
358.071
356.147
354.26
352.411
350.598
348.822
347.08
345.373
343.699
342.058
340.448
338.87
337.323
335.805
334.316
332.856
331.424
330.019
328.641
327.289
325.963
324.662
323.386
322.135
320.909
319.706
318.527
317.371
316.238
315.128
314.041
312.977
311.934
310.914
309.916
308.94
307.985
307.052
306.141
305.25
304.382
303.534
302.708
301.903
301.119
300.356
299.614
298.893
298.194
297.515
296.856
296.219
295.603
295.007
294.433
293.879
293.346
292.834
292.343
291.873
291.423
290.994
290.586
290.199
289.833
289.488
289.163
288.86
288.577
288.315
288.074
287.853
287.654
287.476
287.318
287.181
287.065
286.97
286.896
286.843
286.811
286.799
398.767
396.303
393.845
391.397
388.964
386.548
384.154
381.784
379.441
377.127
374.845
372.596
370.382
368.202
366.059
363.953
361.884
359.852
357.856
355.898
353.975
352.089
350.238
348.421
346.639
344.89
343.174
341.491
339.839
338.217
336.626
335.065
333.533
332.029
330.553
329.105
327.684
326.289
324.92
323.578
322.26
320.968
319.7
318.457
317.237
316.042
314.871
313.722
312.598
311.496
310.417
309.361
308.327
307.316
306.327
305.361
304.416
303.494
302.594
301.716
300.86
300.025
299.213
298.422
297.653
296.905
296.18
295.476
294.793
294.133
293.493
292.876
292.28
291.706
291.153
290.622
290.112
289.624
289.158
288.713
288.29
287.889
287.509
287.15
286.814
286.499
286.205
285.934
285.683
285.455
285.248
285.063
284.899
284.758
284.637
284.539
284.462
284.407
284.373
284.361
398.768
396.306
393.849
391.402
388.968
386.55
384.151
381.774
379.422
377.097
374.801
372.536
370.302
368.102
365.935
363.803
361.706
359.644
357.617
355.625
353.667
351.745
349.856
348.002
346.18
344.391
342.635
340.91
339.216
337.552
335.919
334.315
332.741
331.194
329.676
328.186
326.722
325.286
323.875
322.491
321.133
319.8
318.492
317.209
315.95
314.716
313.506
312.32
311.158
310.02
308.905
307.813
306.745
305.699
304.677
303.678
302.701
301.747
300.816
299.907
299.022
298.158
297.317
296.499
295.703
294.929
294.178
293.45
292.743
292.059
291.397
290.758
290.141
289.546
288.974
288.424
287.896
287.391
286.908
286.448
286.009
285.594
285.2
284.829
284.48
284.154
283.85
283.569
283.31
283.073
282.859
282.667
282.497
282.351
282.226
282.124
282.044
281.987
281.952
281.94
398.767
396.304
393.846
391.397
388.959
386.536
384.13
381.745
379.383
377.045
374.734
372.451
370.199
367.977
365.786
363.629
361.504
359.412
357.354
355.33
353.339
351.381
349.456
347.564
345.704
343.876
342.08
340.315
338.581
336.876
335.202
333.557
331.941
330.353
328.793
327.261
325.757
324.279
322.828
321.404
320.005
318.632
317.285
315.963
314.666
313.394
312.146
310.923
309.724
308.55
307.399
306.273
305.17
304.091
303.035
302.003
300.995
300.01
299.048
298.109
297.194
296.302
295.433
294.588
293.765
292.966
292.19
291.436
290.706
289.999
289.315
288.654
288.016
287.402
286.81
286.241
285.696
285.173
284.674
284.198
283.745
283.315
282.908
282.524
282.163
281.826
281.512
281.221
280.953
280.708
280.486
280.288
280.113
279.961
279.832
279.726
279.644
279.585
279.549
279.536
398.765
396.299
393.836
391.382
388.938
386.508
384.094
381.698
379.324
376.972
374.645
372.345
370.073
367.829
365.615
363.432
361.28
359.16
357.071
355.015
352.991
350.998
349.038
347.11
345.213
343.347
341.512
339.708
337.934
336.19
334.476
332.79
331.134
329.505
327.905
326.333
324.788
323.27
321.779
320.315
318.877
317.465
316.079
314.719
313.384
312.074
310.79
309.53
308.296
307.086
305.9
304.739
303.602
302.49
301.402
300.338
299.298
298.282
297.29
296.322
295.378
294.458
293.561
292.689
291.84
291.015
290.214
289.437
288.683
287.953
287.247
286.565
285.907
285.272
284.661
284.074
283.511
282.972
282.456
281.964
281.496
281.052
280.632
280.236
279.864
279.515
279.19
278.89
278.613
278.36
278.132
277.927
277.746
277.589
277.456
277.347
277.262
277.201
277.163
277.15
398.762
396.29
393.821
391.359
388.907
386.468
384.043
381.636
379.248
376.881
374.538
372.219
369.926
367.661
365.423
363.215
361.036
358.887
356.769
354.681
352.625
350.599
348.604
346.64
344.707
342.805
340.932
339.09
337.278
335.495
333.741
332.016
330.32
328.652
327.013
325.401
323.817
322.26
320.73
319.226
317.75
316.3
314.876
313.478
312.106
310.759
309.438
308.143
306.873
305.628
304.408
303.213
302.043
300.898
299.778
298.682
297.611
296.565
295.543
294.546
293.574
292.626
291.702
290.803
289.928
289.078
288.253
287.451
286.675
285.922
285.195
284.491
283.813
283.158
282.528
281.923
281.342
280.786
280.255
279.748
279.265
278.807
278.374
277.965
277.581
277.222
276.887
276.577
276.292
276.031
275.795
275.584
275.397
275.235
275.098
274.986
274.898
274.835
274.797
274.783
398.758
396.277
393.8
391.329
388.867
386.417
383.98
381.56
379.157
376.775
374.414
372.076
369.762
367.475
365.213
362.98
360.774
358.597
356.45
354.331
352.243
350.184
348.156
346.157
344.189
342.25
340.341
338.462
336.612
334.791
332.999
331.236
329.501
327.795
326.116
324.466
322.843
321.247
319.679
318.138
316.624
315.136
313.675
312.24
310.831
309.449
308.092
306.761
305.457
304.177
302.924
301.695
300.493
299.315
298.163
297.037
295.935
294.859
293.808
292.782
291.782
290.806
289.856
288.93
288.03
287.155
286.305
285.481
284.681
283.907
283.157
282.433
281.734
281.061
280.412
279.789
279.191
278.618
278.071
277.548
277.052
276.58
276.134
275.713
275.317
274.947
274.602
274.283
273.989
273.721
273.477
273.26
273.068
272.901
272.76
272.644
272.553
272.488
272.449
272.435
398.753
396.262
393.774
391.292
388.819
386.356
383.906
381.471
379.053
376.654
374.274
371.917
369.582
367.272
364.987
362.728
360.496
358.291
356.114
353.966
351.847
349.756
347.694
345.662
343.659
341.685
339.74
337.824
335.937
334.079
332.25
330.449
328.677
326.933
325.217
323.528
321.868
320.235
318.629
317.051
315.499
313.975
312.477
311.006
309.561
308.143
306.752
305.386
304.047
302.734
301.447
300.186
298.951
297.742
296.559
295.402
294.27
293.165
292.085
291.03
290.002
289
288.023
287.072
286.146
285.247
284.373
283.525
282.703
281.907
281.136
280.391
279.673
278.98
278.313
277.672
277.057
276.468
275.904
275.367
274.856
274.371
273.912
273.479
273.072
272.691
272.337
272.008
271.706
271.429
271.179
270.955
270.758
270.586
270.441
270.322
270.229
270.162
270.121
270.107
398.747
396.244
393.744
391.25
388.763
386.287
383.822
381.372
378.937
376.52
374.122
371.744
369.388
367.055
364.746
362.462
360.203
357.971
355.765
353.587
351.437
349.315
347.221
345.155
343.118
341.11
339.13
337.179
335.256
333.362
331.496
329.658
327.849
326.068
324.315
322.59
320.892
319.222
317.58
315.964
314.377
312.816
311.282
309.776
308.296
306.843
305.417
304.018
302.645
301.299
299.979
298.686
297.419
296.179
294.965
293.778
292.617
291.482
290.374
289.292
288.236
287.207
286.204
285.227
284.277
283.353
282.456
281.585
280.741
279.923
279.131
278.367
277.628
276.916
276.231
275.573
274.941
274.335
273.757
273.205
272.68
272.181
271.709
271.264
270.846
270.455
270.091
269.753
269.442
269.158
268.901
268.671
268.468
268.291
268.142
268.02
267.924
267.855
267.814
267.799
398.741
396.224
393.711
391.203
388.702
386.21
383.73
381.263
378.81
376.375
373.957
371.558
369.181
366.824
364.491
362.182
359.897
357.637
355.404
353.196
351.016
348.862
346.737
344.638
342.568
340.526
338.512
336.526
334.568
332.638
330.737
328.863
327.018
325.201
323.411
321.65
319.916
318.21
316.531
314.88
313.257
311.661
310.092
308.551
307.037
305.55
304.09
302.657
301.251
299.872
298.52
297.196
295.898
294.627
293.383
292.165
290.975
289.812
288.675
287.566
286.483
285.428
284.399
283.398
282.423
281.475
280.555
279.661
278.795
277.956
277.144
276.359
275.601
274.871
274.168
273.492
272.843
272.222
271.628
271.061
270.522
270.011
269.526
269.07
268.64
268.239
267.865
267.518
267.199
266.907
266.644
266.407
266.199
266.018
265.864
265.739
265.64
265.57
265.527
265.512
398.734
396.203
393.674
391.151
388.634
386.127
383.63
381.145
378.674
376.219
373.781
371.362
368.962
366.582
364.225
361.89
359.579
357.292
355.031
352.794
350.584
348.4
346.243
344.113
342.01
339.934
337.887
335.867
333.874
331.91
329.973
328.065
326.184
324.331
322.507
320.709
318.94
317.199
315.485
313.799
312.141
310.51
308.907
307.331
305.783
304.262
302.769
301.304
299.865
298.454
297.071
295.715
294.386
293.085
291.811
290.565
289.346
288.155
286.991
285.854
284.745
283.664
282.61
281.583
280.585
279.614
278.67
277.754
276.866
276.006
275.174
274.369
273.592
272.843
272.123
271.43
270.765
270.128
269.519
268.938
268.385
267.86
267.364
266.895
266.455
266.043
265.659
265.304
264.977
264.678
264.407
264.165
263.951
263.765
263.608
263.479
263.378
263.306
263.262
263.246
398.726
396.179
393.635
391.095
388.562
386.037
383.523
381.02
378.53
376.055
373.596
371.155
368.733
366.33
363.948
361.588
359.251
356.937
354.648
352.382
350.143
347.929
345.741
343.579
341.444
339.336
337.256
335.202
333.176
331.178
329.207
327.264
325.349
323.461
321.602
319.77
317.966
316.19
314.441
312.721
311.028
309.363
307.726
306.117
304.536
302.982
301.457
299.959
298.488
297.046
295.632
294.245
292.886
291.555
290.252
288.977
287.73
286.511
285.32
284.157
283.021
281.914
280.836
279.785
278.762
277.768
276.802
275.865
274.955
274.074
273.222
272.398
271.602
270.835
270.097
269.387
268.706
268.053
267.429
266.834
266.268
265.73
265.222
264.742
264.291
263.869
263.476
263.111
262.776
262.47
262.192
261.944
261.725
261.535
261.374
261.241
261.138
261.064
261.019
261.003
398.717
396.154
393.593
391.036
388.485
385.943
383.41
380.888
378.378
375.883
373.403
370.94
368.495
366.068
363.662
361.277
358.914
356.573
354.256
351.962
349.693
347.45
345.231
343.039
340.872
338.733
336.619
334.533
332.474
330.443
328.438
326.461
324.512
322.591
320.697
318.831
316.993
315.183
313.401
311.647
309.92
308.222
306.552
304.91
303.296
301.71
300.152
298.622
297.121
295.648
294.203
292.786
291.398
290.037
288.706
287.402
286.127
284.881
283.663
282.474
281.313
280.181
279.078
278.003
276.957
275.94
274.952
273.992
273.062
272.161
271.288
270.445
269.631
268.846
268.091
267.364
266.667
265.999
265.361
264.752
264.172
263.622
263.101
262.61
262.148
261.716
261.314
260.941
260.598
260.284
260
259.746
259.521
259.327
259.162
259.026
258.921
258.845
258.799
258.782
398.709
396.127
393.548
390.974
388.405
385.844
383.291
380.75
378.22
375.704
373.202
370.717
368.249
365.799
363.368
360.958
358.568
356.201