/*--------------------------------*- C++ -*----------------------------------*\
  =========                 |
  \\      /  F ield         | OpenFOAM: The Open Source CFD Toolbox
   \\    /   O peration     | Website:  https://openfoam.org
    \\  /    A nd           | Version:  10
     \\/     M anipulation  |
\*---------------------------------------------------------------------------*/
FoamFile
{
    format      ascii;
    class       volScalarField;
    location    "4.4";
    object      T;
}
// * * * * * * * * * * * * * * * * * * * * * * * * * * * * * * * * * * * * * //

dimensions      [0 0 -1 0 0 0 0];

internalField   nonuniform List<scalar> 
100
(
0.0454619
0.134774
0.219312
0.296081
0.362361
0.415804
0.454517
0.477128
0.482837
0.471442
0.443345
0.399542
0.341586
0.271528
0.191852
0.105379
0.0151731
-0.0755704
-0.163637
-0.245906
-0.319464
-0.381705
-0.430424
-0.463895
-0.480932
-0.480932
-0.463895
-0.430424
-0.381705
-0.319464
-0.245905
-0.163636
-0.0755692
0.0151743
0.10538
0.191853
0.271529
0.341587
0.399543
0.443346
0.471442
0.482838
0.477129
0.454517
0.415804
0.362361
0.29608
0.219312
0.134774
0.045461
-0.045462
-0.134774
-0.219312
-0.296081
-0.362361
-0.415804
-0.454517
-0.477129
-0.482838
-0.471442
-0.443345
-0.399543
-0.341586
-0.271529
-0.191852
-0.105379
-0.0151733
0.0755702
0.163637
0.245906
0.319464
0.381705
0.430424
0.463895
0.480932
0.480932
0.463895
0.430424
0.381705
0.319464
0.245905
0.163636
0.0755694
-0.0151741
-0.10538
-0.191853
-0.271529
-0.341586
-0.399543
-0.443345
-0.471442
-0.482837
-0.477128
-0.454517
-0.415803
-0.36236
-0.29608
-0.219311
-0.134773
-0.045461
)
;

boundaryField
{
    inlet
    {
        type            cyclic;
    }
    outlet
    {
        type            cyclic;
    }
    bottom
    {
        type            slip;
    }
    top
    {
        type            slip;
    }
    frontAndBack
    {
        type            empty;
    }
}


// ************************************************************************* //
