/*--------------------------------*- C++ -*----------------------------------*\
| =========                 |                                                 |
| \\      /  F ield         | OpenFOAM: The Open Source CFD Toolbox           |
|  \\    /   O peration     | Version:  2406                                  |
|   \\  /    A nd           | Website:  www.openfoam.com                      |
|    \\/     M anipulation  |                                                 |
\*---------------------------------------------------------------------------*/
FoamFile
{
    version     2.0;
    format      ascii;
    arch        "LSB;label=32;scalar=64";
    class       volScalarField;
    location    "0.065";
    object      T;
}
// * * * * * * * * * * * * * * * * * * * * * * * * * * * * * * * * * * * * * //

dimensions      [0 0 0 1 0 0 0];

internalField   nonuniform List<scalar> 
12225
(
1.00694
1.00397
1.00144
1.00053
1.00001
0.99965
0.999457
0.99937
0.999323
0.999291
0.999264
0.99922
0.999128
0.9989
0.998328
0.996956
0.993346
0.984865
0.994965
0.99447
0.996349
0.997908
0.99867
0.998979
0.999136
0.99924
0.999302
0.999333
0.99934
0.99932
0.999241
0.999028
0.99848
0.997169
0.993894
0.986264
0.999592
0.99992
1
0.999967
0.999819
0.999637
0.999514
0.999449
0.99941
0.999379
0.999347
0.999302
0.999209
0.998997
0.99848
0.997273
0.994424
0.988327
1.00032
1.00007
0.999547
0.99942
0.999421
0.999388
0.999355
0.999341
0.999334
0.999324
0.999307
0.999274
0.999194
0.999003
0.998542
0.997488
0.995143
0.990463
1.00013
0.999833
0.999434
0.999387
0.999436
0.999423
0.999388
0.999365
0.999349
0.999332
0.999309
0.999271
0.999193
0.999018
0.998614
0.997727
0.995869
0.992398
0.999993
0.999846
0.999578
0.999496
0.999494
0.99946
0.999412
0.999376
0.99935
0.999326
0.999297
0.999257
0.999182
0.999025
0.998684
0.997967
0.996549
0.994045
0.999975
0.999925
0.999719
0.999592
0.999547
0.999499
0.999443
0.999399
0.999363
0.99933
0.999296
0.999251
0.999179
0.999041
0.998761
0.998203
0.997156
0.995394
0.999983
0.999963
0.999798
0.999661
0.999596
0.999539
0.999477
0.999423
0.999378
0.999337
0.999297
0.999248
0.999178
0.999056
0.998823
0.998381
0.997587
0.996293
0.999986
0.999973
0.99984
0.999706
0.999627
0.99956
0.999491
0.99943
0.999377
0.99933
0.999284
0.999232
0.999163
0.999055
0.99886
0.998508
0.9979
0.996934
0.999984
0.999963
0.999852
0.999723
0.999631
0.999554
0.999478
0.99941
0.999351
0.999297
0.999245
0.999191
0.999125
0.999029
0.99887
0.998599
0.99815
0.997456
0.99998
0.999942
0.99984
0.999715
0.999612
0.999524
0.999441
0.999366
0.9993
0.999241
0.999185
0.999128
0.999065
0.998981
0.998853
0.998651
0.998332
0.997855
0.999976
0.999921
0.999818
0.999694
0.999583
0.999486
0.999398
0.999317
0.999245
0.999181
0.999121
0.999064
0.999003
0.998929
0.998828
0.998682
0.998463
0.998149
0.999975
0.999912
0.999811
0.99969
0.999577
0.999476
0.999384
0.9993
0.999224
0.999156
0.999096
0.999038
0.998979
0.998915
0.998837
0.998731
0.998586
0.998388
0.999978
0.999919
0.999828
0.999717
0.99961
0.999512
0.999421
0.999338
0.999264
0.999197
0.999137
0.999082
0.999026
0.998971
0.99891
0.998836
0.998742
0.998622
0.999982
0.999936
0.999861
0.999769
0.999677
0.99959
0.999511
0.999438
0.99937
0.999309
0.999254
0.999205
0.99916
0.999115
0.999067
0.999016
0.998957
0.998888
0.999987
0.999957
0.999905
0.99984
0.999774
0.999712
0.999654
0.9996
0.999548
0.999503
0.999462
0.999426
0.999394
0.999362
0.999329
0.999297
0.999263
0.999226
0.999993
0.999986
0.999968
0.999941
0.999912
0.999886
0.999864
0.999841
0.99982
0.999801
0.999783
0.999768
0.999755
0.999743
0.99973
0.999716
0.999703
0.999689
1
1.00003
1.00005
1.00007
1.00009
1.00011
1.00013
1.00015
1.00017
1.00018
1.0002
1.00021
1.00022
1.00023
1.00024
1.00024
1.00025
1.00025
1.00001
1.00006
1.00011
1.00017
1.00022
1.00028
1.00034
1.00039
1.00043
1.00048
1.00051
1.00055
1.00058
1.0006
1.00063
1.00065
1.00067
1.00068
1.00001
1.00006
1.00012
1.00019
1.00026
1.00033
1.00039
1.00046
1.00052
1.00057
1.00062
1.00067
1.00071
1.00075
1.00078
1.00081
1.00084
1.00086
1.00001
1.00006
1.00012
1.00018
1.00025
1.00031
1.00038
1.00045
1.00051
1.00057
1.00062
1.00068
1.00072
1.00077
1.00081
1.00085
1.00088
1.00091
1.00001
1.00006
1.00012
1.00017
1.00023
1.0003
1.00036
1.00043
1.00049
1.00055
1.00061
1.00067
1.00072
1.00077
1.00081
1.00085
1.00089
1.00092
1
1.00008
1.00013
1.00016
1.00021
1.00027
1.00034
1.00041
1.00048
1.00054
1.0006
1.00066
1.00071
1.00076
1.00081
1.00085
1.00089
1.00093
0.999997
1.0001
1.00014
1.00015
1.00019
1.00026
1.00033
1.0004
1.00047
1.00054
1.00061
1.00067
1.00072
1.00077
1.00082
1.00086
1.00091
1.00094
1
1.00009
1.0001
1.00012
1.00019
1.00028
1.00035
1.00042
1.00049
1.00056
1.00063
1.00069
1.00074
1.00079
1.00084
1.00088
1.00093
1.00097
1.00014
1.00014
0.999953
0.999972
1.00014
1.00029
1.00039
1.00047
1.00055
1.00062
1.00068
1.00074
1.0008
1.00084
1.00089
1.00093
1.00097
1.00101
1.0005
1.00058
1.0001
0.999927
1.00003
1.00018
1.00031
1.00042
1.00053
1.00062
1.0007
1.00076
1.00082
1.00088
1.00093
1.00097
1.00102
1.00106
1.00004
1.00088
1.00115
1.00111
1.00099
1.00088
1.00081
1.0008
1.00082
1.00085
1.00088
1.00092
1.00096
1.00099
1.00103
1.00106
1.0011
1.00113
0.994517
0.993822
0.99606
0.998048
0.999185
0.99978
1.00015
1.0004
1.00059
1.00072
1.00083
1.00091
1.00098
1.00104
1.00109
1.00114
1.00118
1.00121
1.00648
1.00454
1.00223
1.0015
1.00119
1.00097
1.00088
1.00087
1.00089
1.00092
1.00096
1.00099
1.00103
1.00107
1.0011
1.00114
1.00117
1.00122
0.619034
0.61902
0.618953
0.618856
0.61874
0.618603
0.618441
0.618258
0.618055
0.617834
0.617597
0.617342
0.617072
0.616788
0.61649
0.616182
0.615864
0.61554
0.61521
0.614879
0.614548
0.614219
0.613896
0.613581
0.613277
0.612986
0.612709
0.612448
0.612202
0.611974
0.611777
0.611635
0.61161
0.611809
0.61203
0.612119
0.612235
0.612337
0.612445
0.612564
0.612674
0.612847
0.613115
0.613379
0.613691
0.614091
0.614521
0.614991
0.6155
0.616047
0.616629
0.617244
0.617892
0.618571
0.619278
0.620014
0.620777
0.621565
0.622376
0.62321
0.624064
0.624938
0.625829
0.626737
0.627659
0.628595
0.629543
0.630501
0.631468
0.632443
0.633425
0.634412
0.635403
0.636397
0.637393
0.63839
0.639386
0.640381
0.641374
0.642364
0.643351
0.644333
0.645309
0.64628
0.647244
0.648201
0.64915
0.65009
0.651023
0.651946
0.65286
0.653764
0.654657
0.65554
0.65641
0.657269
0.658113
0.658942
0.659761
0.660569
0.661364
0.662146
0.662914
0.663668
0.664407
0.665132
0.665841
0.666535
0.667214
0.667877
0.668524
0.669154
0.669768
0.670365
0.670945
0.671508
0.672053
0.67258
0.673088
0.673578
0.674049
0.6745
0.674931
0.675341
0.67573
0.676097
0.676444
0.676769
0.677072
0.677353
0.677611
0.677847
0.678059
0.678248
0.678414
0.678556
0.678673
0.678765
0.678833
0.678876
0.678893
0.678884
0.678848
0.678784
0.678693
0.678572
0.678423
0.678245
0.678036
0.677798
0.677529
0.677228
0.676897
0.676534
0.676139
0.675712
0.675252
0.67476
0.674234
0.673675
0.673081
0.672452
0.67178
0.671055
0.670279
0.669465
0.668618
0.667739
0.666827
0.665882
0.664902
0.663888
0.662839
0.661753
0.660631
0.659468
0.658286
0.656992
0.655918
0.653819
0.620037
0.620012
0.619965
0.619888
0.619789
0.619667
0.619522
0.619351
0.619155
0.618936
0.618694
0.618432
0.618154
0.617862
0.617558
0.617245
0.616923
0.616597
0.616268
0.615938
0.615612
0.615292
0.614982
0.614686
0.614409
0.614156
0.613932
0.613743
0.613593
0.613485
0.613414
0.613366
0.613324
0.61314
0.612887
0.612789
0.612779
0.612849
0.612986
0.613168
0.613409
0.613677
0.613934
0.614255
0.614641
0.615038
0.615466
0.615931
0.616432
0.61697
0.617543
0.61815
0.61879
0.61946
0.620161
0.620889
0.621644
0.622424
0.623229
0.624055
0.624902
0.625768
0.626652
0.627552
0.628468
0.629396
0.630337
0.631288
0.632248
0.633217
0.634192
0.635172
0.636157
0.637144
0.638134
0.639125
0.640115
0.641104
0.642092
0.643076
0.644057
0.645033
0.646004
0.646969
0.647928
0.648879
0.649823
0.650759
0.651685
0.652603
0.653511
0.654409
0.655296
0.656173
0.657038
0.657892
0.658736
0.659569
0.660389
0.661194
0.661985
0.662761
0.663524
0.664273
0.665006
0.665725
0.666429
0.667117
0.66779
0.668447
0.669087
0.669711
0.670319
0.670909
0.671483
0.672038
0.672576
0.673096
0.673597
0.674079
0.674543
0.674986
0.675409
0.675811
0.676191
0.676551
0.676889
0.677205
0.677499
0.67777
0.678019
0.678246
0.678448
0.678628
0.678783
0.678914
0.679021
0.679103
0.679159
0.679191
0.679196
0.679175
0.679127
0.679051
0.678947
0.678813
0.678651
0.678459
0.678237
0.677984
0.6777
0.677385
0.677039
0.67666
0.67625
0.675806
0.67533
0.674821
0.674278
0.673701
0.67309
0.672443
0.671761
0.671048
0.670302
0.66952
0.668702
0.667849
0.666963
0.666041
0.665085
0.664093
0.663065
0.661999
0.660898
0.659758
0.658596
0.657344
0.656232
0.654486
0.622127
0.62206
0.621994
0.621909
0.6218
0.621664
0.621501
0.621313
0.6211
0.620865
0.62061
0.620335
0.620044
0.619739
0.619422
0.619095
0.618761
0.618423
0.618082
0.617742
0.617406
0.617077
0.616757
0.616451
0.616161
0.61589
0.615639
0.615411
0.615203
0.615017
0.614851
0.614711
0.614603
0.614512
0.61444
0.614411
0.61442
0.614474
0.614577
0.614729
0.614935
0.615194
0.615495
0.615832
0.6162
0.616594
0.617023
0.617486
0.617983
0.618515
0.619081
0.61968
0.62031
0.620972
0.621663
0.622382
0.623127
0.623898
0.624692
0.625509
0.626347
0.627204
0.628079
0.628971
0.629878
0.630799
0.631732
0.632676
0.633629
0.634591
0.63556
0.636535
0.637514
0.638497
0.639482
0.640469
0.641456
0.642442
0.643426
0.644408
0.645387
0.646362
0.647332
0.648296
0.649254
0.650206
0.65115
0.652086
0.653014
0.653933
0.654843
0.655743
0.656633
0.657512
0.65838
0.659236
0.66008
0.660913
0.661733
0.66254
0.663334
0.664115
0.664881
0.665634
0.666371
0.667094
0.667802
0.668495
0.669172
0.669833
0.670478
0.671106
0.671718
0.672313
0.67289
0.67345
0.673992
0.674516
0.675021
0.675507
0.675974
0.676421
0.676847
0.677252
0.677636
0.677998
0.678338
0.678657
0.678953
0.679227
0.679478
0.679706
0.67991
0.68009
0.680246
0.680378
0.680485
0.680567
0.680623
0.680654
0.680658
0.680635
0.680585
0.680507
0.6804
0.680264
0.680098
0.679902
0.679676
0.679419
0.67913
0.67881
0.678458
0.678074
0.677657
0.677208
0.676725
0.676209
0.675659
0.675075
0.674457
0.673805
0.673119
0.672405
0.671661
0.670882
0.670068
0.669219
0.668335
0.667417
0.666462
0.665473
0.664446
0.663382
0.662282
0.661141
0.659972
0.658723
0.657572
0.65602
0.62525
0.625143
0.625049
0.624946
0.624818
0.624661
0.624476
0.624266
0.624033
0.623777
0.623502
0.623208
0.622898
0.622575
0.622239
0.621895
0.621544
0.621189
0.620833
0.620478
0.620127
0.619782
0.619448
0.619126
0.618819
0.618529
0.618259
0.618009
0.617782
0.617579
0.617404
0.61726
0.617148
0.617062
0.617005
0.616986
0.617004
0.61706
0.617156
0.617292
0.617471
0.617692
0.617953
0.618255
0.618596
0.618972
0.619385
0.619833
0.620316
0.620833
0.621383
0.621967
0.622582
0.623227
0.623902
0.624604
0.625334
0.626089
0.626867
0.627669
0.628491
0.629334
0.630195
0.631073
0.631966
0.632874
0.633795
0.634727
0.63567
0.636621
0.63758
0.638546
0.639517
0.640492
0.64147
0.642451
0.643432
0.644413
0.645394
0.646372
0.647348
0.648321
0.649289
0.650253
0.651211
0.652163
0.653108
0.654046
0.654977
0.655899
0.656812
0.657716
0.65861
0.659494
0.660368
0.66123
0.662081
0.66292
0.663747
0.664562
0.665363
0.666151
0.666925
0.667686
0.668432
0.669164
0.669881
0.670582
0.671268
0.671939
0.672593
0.673231
0.673852
0.674457
0.675044
0.675613
0.676165
0.676698
0.677212
0.677707
0.678183
0.678639
0.679074
0.679488
0.67988
0.68025
0.680599
0.680926
0.68123
0.681511
0.681769
0.682003
0.682213
0.6824
0.682562
0.682698
0.68281
0.682896
0.682957
0.682991
0.682998
0.682978
0.68293
0.682853
0.682748
0.682612
0.682447
0.682251
0.682024
0.681766
0.681476
0.681154
0.6808
0.680414
0.679994
0.679541
0.679055
0.678535
0.677981
0.677393
0.676771
0.676115
0.675426
0.674706
0.673954
0.673169
0.672348
0.671493
0.670604
0.669679
0.668719
0.667723
0.666691
0.66562
0.664512
0.663361
0.662177
0.660917
0.65973
0.658251
0.629378
0.629232
0.629112
0.628991
0.628845
0.628667
0.62846
0.628226
0.627968
0.627687
0.627387
0.627068
0.626733
0.626385
0.626026
0.625658
0.625284
0.624906
0.624527
0.62415
0.623778
0.623412
0.623056
0.622713
0.622385
0.622074
0.621783
0.621513
0.621269
0.621051
0.620861
0.620703
0.620575
0.620477
0.620411
0.620381
0.620388
0.620433
0.620516
0.620638
0.620799
0.620999
0.621238
0.621516
0.621833
0.622187
0.622578
0.623005
0.623466
0.623962
0.624492
0.625054
0.625647
0.626271
0.626924
0.627605
0.628313
0.629047
0.629805
0.630586
0.631389
0.632212
0.633054
0.633914
0.63479
0.63568
0.636585
0.637502
0.638429
0.639367
0.640313
0.641267
0.642226
0.643191
0.644159
0.645131
0.646105
0.647079
0.648053
0.649027
0.649999
0.650968
0.651934
0.652896
0.653853
0.654805
0.655751
0.65669
0.657622
0.658547
0.659463
0.660371
0.66127
0.662159
0.663038
0.663907
0.664765
0.665611
0.666446
0.667268
0.668078
0.668875
0.669659
0.670429
0.671185
0.671927
0.672654
0.673367
0.674064
0.674745
0.675411
0.67606
0.676693
0.677309
0.677907
0.678488
0.679051
0.679595
0.680121
0.680628
0.681115
0.681581
0.682027
0.682451
0.682853
0.683234
0.683592
0.683928
0.684241
0.684531
0.684797
0.68504
0.685258
0.685451
0.685619
0.685763
0.68588
0.685971
0.686037
0.686075
0.686086
0.686069
0.686023
0.685948
0.685844
0.685709
0.685544
0.685348
0.685121
0.684861
0.68457
0.684246
0.683889
0.6835
0.683077
0.68262
0.682129
0.681605
0.681046
0.680453
0.679825
0.679164
0.678469
0.677741
0.676981
0.676187
0.675358
0.674495
0.673598
0.672666
0.671698
0.670694
0.669653
0.668574
0.667456
0.666294
0.665094
0.663821
0.662608
0.661133
0.634523
0.634346
0.634204
0.634067
0.633901
0.6337
0.633469
0.633209
0.632924
0.632615
0.632286
0.631938
0.631575
0.631198
0.63081
0.630413
0.630011
0.629606
0.629201
0.628797
0.628399
0.628008
0.627627
0.62726
0.626908
0.626574
0.626261
0.625971
0.625706
0.625468
0.625259
0.625081
0.624934
0.624818
0.624735
0.624687
0.624676
0.624701
0.624765
0.624866
0.625006
0.625184
0.625401
0.625655
0.625947
0.626275
0.62664
0.62704
0.627475
0.627944
0.628446
0.628981
0.629547
0.630144
0.63077
0.631424
0.632105
0.632812
0.633544
0.634299
0.635077
0.635875
0.636693
0.637529
0.638382
0.639251
0.640135
0.641032
0.64194
0.642859
0.643788
0.644725
0.64567
0.64662
0.647575
0.648535
0.649497
0.650461
0.651427
0.652392
0.653357
0.65432
0.655281
0.656239
0.657193
0.658143
0.659088
0.660027
0.660959
0.661885
0.662804
0.663715
0.664617
0.665511
0.666395
0.667269
0.668133
0.668986
0.669828
0.670659
0.671477
0.672283
0.673076
0.673856
0.674623
0.675375
0.676113
0.676836
0.677545
0.678238
0.678915
0.679577
0.680221
0.680849
0.68146
0.682053
0.682628
0.683185
0.683723
0.684241
0.684739
0.685217
0.685674
0.68611
0.686523
0.686914
0.687283
0.687629
0.687952
0.688251
0.688526
0.688777
0.689003
0.689203
0.689379
0.689528
0.689651
0.689748
0.689818
0.68986
0.689875
0.689861
0.689817
0.689744
0.68964
0.689506
0.689341
0.689144
0.688915
0.688653
0.688359
0.688032
0.687672
0.687278
0.68685
0.686388
0.685892
0.685361
0.684796
0.684196
0.683562
0.682893
0.68219
0.681454
0.680685
0.679881
0.679044
0.678172
0.677265
0.676324
0.675347
0.674335
0.673285
0.672197
0.671068
0.669895
0.668681
0.667393
0.666157
0.664651
0.640709
0.640513
0.640353
0.640198
0.640011
0.639787
0.639529
0.639242
0.638928
0.638589
0.638229
0.63785
0.637454
0.637045
0.636625
0.636197
0.635764
0.635328
0.634892
0.634459
0.634032
0.633613
0.633205
0.632811
0.632433
0.632075
0.631737
0.631423
0.631134
0.630873
0.630642
0.63044
0.630269
0.630131
0.630026
0.629955
0.62992
0.629922
0.62996
0.630036
0.630149
0.6303
0.630488
0.630713
0.630975
0.631273
0.631606
0.631974
0.632377
0.632814
0.633283
0.633785
0.634318
0.634881
0.635474
0.636095
0.636744
0.637418
0.638118
0.638842
0.639588
0.640356
0.641144
0.641951
0.642776
0.643618
0.644475
0.645346
0.64623
0.647126
0.648033
0.648949
0.649873
0.650805
0.651742
0.652685
0.653632
0.654583
0.655535
0.656488
0.657443
0.658396
0.659349
0.660299
0.661247
0.662192
0.663132
0.664068
0.664999
0.665924
0.666842
0.667754
0.668657
0.669553
0.67044
0.671319
0.672187
0.673046
0.673894
0.674731
0.675557
0.676371
0.677172
0.677961
0.678737
0.679499
0.680247
0.680981
0.6817
0.682404
0.683093
0.683766
0.684422
0.685062
0.685684
0.686289
0.686877
0.687445
0.687995
0.688525
0.689036
0.689525
0.689993
0.69044
0.690864
0.691266
0.691645
0.692001
0.692334
0.692642
0.692926
0.693185
0.693419
0.693627
0.693809
0.693964
0.694093
0.694195
0.694269
0.694316
0.694333
0.694321
0.694279
0.694207
0.694104
0.693969
0.693803
0.693604
0.693373
0.693109
0.692811
0.69248
0.692115
0.691716
0.691282
0.690814
0.690311
0.689773
0.6892
0.688592
0.68795
0.687272
0.686561
0.685815
0.685035
0.684222
0.683374
0.682492
0.681576
0.680624
0.679638
0.678616
0.677556
0.676458
0.675319
0.674134
0.672906
0.671602
0.670344
0.668794
0.64798
0.64777
0.647594
0.64742
0.647211
0.646963
0.646678
0.646362
0.646017
0.645647
0.645254
0.644841
0.644411
0.643968
0.643514
0.643052
0.642585
0.642116
0.641647
0.641183
0.640724
0.640275
0.639837
0.639414
0.639008
0.638621
0.638256
0.637915
0.6376
0.637312
0.637053
0.636824
0.636626
0.63646
0.636328
0.636229
0.636166
0.636138
0.636146
0.636191
0.636272
0.63639
0.636544
0.636735
0.636961
0.637223
0.637519
0.63785
0.638215
0.638613
0.639044
0.639506
0.64
0.640524
0.641078
0.64166
0.642269
0.642905
0.643566
0.644252
0.644961
0.645692
0.646444
0.647216
0.648007
0.648815
0.64964
0.65048
0.651334
0.6522
0.653079
0.653968
0.654867
0.655774
0.656688
0.657609
0.658536
0.659466
0.660401
0.661337
0.662276
0.663216
0.664155
0.665094
0.666031
0.666966
0.667899
0.668827
0.669752
0.670672
0.671586
0.672495
0.673397
0.674292
0.675179
0.676058
0.676928
0.677789
0.678641
0.679482
0.680312
0.681131
0.681939
0.682734
0.683517
0.684287
0.685044
0.685786
0.686514
0.687228
0.687926
0.688609
0.689276
0.689926
0.690559
0.691175
0.691773
0.692353
0.692913
0.693455
0.693975
0.694475
0.694954
0.695411
0.695846
0.696258
0.696646
0.697012
0.697353
0.69767
0.697962
0.698228
0.698469
0.698684
0.698872
0.699033
0.699167
0.699274
0.699352
0.699401
0.699421
0.699411
0.69937
0.699298
0.699194
0.699059
0.698891
0.69869
0.698456
0.698188
0.697886
0.69755
0.697179
0.696774
0.696333
0.695858
0.695347
0.694801
0.69422
0.693603
0.69295
0.692263
0.691542
0.690785
0.689995
0.68917
0.688311
0.687419
0.686491
0.685529
0.684532
0.683499
0.682429
0.681321
0.680171
0.678974
0.677734
0.676415
0.675134
0.673538
0.656384
0.656164
0.655972
0.655778
0.655546
0.655271
0.654959
0.654613
0.654237
0.653833
0.653406
0.652958
0.652493
0.652014
0.651524
0.651026
0.650523
0.650019
0.649516
0.649017
0.648525
0.648043
0.647573
0.647119
0.646681
0.646264
0.645868
0.645497
0.645151
0.644832
0.644542
0.644282
0.644053
0.643855
0.64369
0.643559
0.643462
0.643399
0.643372
0.64338
0.643424
0.643503
0.643618
0.643768
0.643953
0.644172
0.644426
0.644713
0.645034
0.645387
0.645773
0.64619
0.646638
0.647116
0.647624
0.64816
0.648724
0.649314
0.64993
0.650571
0.651236
0.651924
0.652633
0.653363
0.654113
0.654881
0.655666
0.656468
0.657284
0.658115
0.658959
0.659814
0.660681
0.661557
0.662442
0.663334
0.664233
0.665138
0.666048
0.666962
0.667879
0.668798
0.669719
0.67064
0.671561
0.672481
0.6734
0.674316
0.675229
0.676139
0.677044
0.677945
0.67884
0.679729
0.680612
0.681487
0.682355
0.683214
0.684065
0.684906
0.685737
0.686558
0.687368
0.688166
0.688953
0.689727
0.690489
0.691237
0.691971
0.692691
0.693396
0.694086
0.694761
0.695419
0.69606
0.696684
0.697291
0.697879
0.698448
0.698998
0.699527
0.700036
0.700523
0.700989
0.701432
0.701852
0.702249
0.702622
0.702971
0.703295
0.703593
0.703866
0.704113
0.704333
0.704526
0.704692
0.70483
0.704939
0.70502
0.705071
0.705092
0.705083
0.705042
0.70497
0.704865
0.704727
0.704557
0.704352
0.704114
0.703842
0.703535
0.703193
0.702816
0.702404
0.701956
0.701472
0.700953
0.700398
0.699807
0.69918
0.698517
0.69782
0.697087
0.69632
0.695517
0.694681
0.693811
0.692906
0.691967
0.690993
0.689985
0.688942
0.687861
0.686742
0.685582
0.684375
0.683123
0.681791
0.680489
0.678849
0.665977
0.665747
0.665539
0.665323
0.665066
0.664765
0.664424
0.664047
0.663638
0.663201
0.662738
0.662254
0.661752
0.661235
0.660708
0.660172
0.659632
0.659091
0.658551
0.658016
0.657488
0.656971
0.656466
0.655977
0.655506
0.655054
0.654625
0.65422
0.653839
0.653486
0.653161
0.652866
0.6526
0.652366
0.652164
0.651994
0.651858
0.651756
0.651687
0.651653
0.651653
0.651688
0.651758
0.651861
0.651998
0.65217
0.652374
0.652612
0.652882
0.653184
0.653518
0.653883
0.654278
0.654704
0.655158
0.655642
0.656152
0.65669
0.657254
0.657843
0.658456
0.659093
0.659752
0.660432
0.661133
0.661853
0.662591
0.663347
0.664118
0.664905
0.665706
0.66652
0.667347
0.668184
0.669031
0.669888
0.670752
0.671624
0.672502
0.673385
0.674273
0.675164
0.676059
0.676955
0.677853
0.678751
0.679648
0.680545
0.68144
0.682333
0.683223
0.684109
0.684991
0.685869
0.68674
0.687606
0.688465
0.689317
0.690161
0.690997
0.691823
0.692641
0.693448
0.694244
0.69503
0.695803
0.696565
0.697314
0.69805
0.698772
0.69948
0.700173
0.700851
0.701513
0.702158
0.702787
0.703399
0.703992
0.704567
0.705122
0.705657
0.706172
0.706665
0.707136
0.707585
0.70801
0.708413
0.708791
0.709145
0.709474
0.709777
0.710054
0.710304
0.710528
0.710724
0.710892
0.711032
0.711143
0.711225
0.711277
0.711298
0.711288
0.711246
0.711172
0.711064
0.710924
0.710749
0.710541
0.710298
0.71002
0.709707
0.709358
0.708974
0.708554
0.708097
0.707605
0.707077
0.706512
0.70591
0.705273
0.7046
0.703891
0.703147
0.702368
0.701554
0.700705
0.699823
0.698906
0.697955
0.69697
0.695951
0.694896
0.693806
0.692677
0.691507
0.690291
0.689029
0.687685
0.686367
0.684688
0.67682
0.676581
0.676355
0.676116
0.675833
0.675504
0.675132
0.674723
0.67428
0.673806
0.673307
0.672785
0.672244
0.671689
0.671122
0.670547
0.669968
0.669387
0.668808
0.668235
0.667669
0.667114
0.666572
0.666045
0.665536
0.665048
0.664581
0.664137
0.663719
0.663327
0.662963
0.662627
0.662321
0.662046
0.661801
0.661588
0.661407
0.661259
0.661144
0.661061
0.661012
0.660997
0.661014
0.661065
0.661148
0.661264
0.661413
0.661594
0.661807
0.662051
0.662326
0.662631
0.662967
0.663332
0.663726
0.664149
0.664599
0.665076
0.66558
0.666109
0.666662
0.667239
0.66784
0.668462
0.669105
0.669768
0.670451
0.671152
0.67187
0.672604
0.673353
0.674117
0.674894
0.675684
0.676485
0.677296
0.678117
0.678946
0.679783
0.680627
0.681477
0.682332
0.683191
0.684054
0.68492
0.685787
0.686655
0.687524
0.688393
0.689261
0.690127
0.690991
0.691852
0.69271
0.693563
0.694412
0.695255
0.696092
0.696922
0.697746
0.698561
0.699367
0.700165
0.700953
0.701731
0.702498
0.703254
0.703998
0.704729
0.705448
0.706153
0.706844
0.70752
0.708181
0.708826
0.709454
0.710066
0.71066
0.711235
0.711792
0.712328
0.712844
0.713339
0.713812
0.714263
0.714691
0.715095
0.715476
0.715831
0.716162
0.716466
0.716745
0.716996
0.717221
0.717418
0.717586
0.717726
0.717837
0.717917
0.717968
0.717987
0.717974
0.717929
0.717851
0.71774
0.717595
0.717416
0.717201
0.716952
0.716668
0.716348
0.715992
0.715599
0.715171
0.714705
0.714203
0.713665
0.71309
0.712478
0.71183
0.711145
0.710425
0.709669
0.708878
0.708052
0.707191
0.706296
0.705368
0.704405
0.703409
0.702379
0.701314
0.700214
0.699076
0.697898
0.696674
0.695405
0.694051
0.69272
0.691009
0.688982
0.688733
0.688488
0.688223
0.687912
0.687552
0.687148
0.686704
0.686224
0.685713
0.685174
0.684612
0.684031
0.683434
0.682826
0.682209
0.681588
0.680966
0.680346
0.679731
0.679124
0.678528
0.677945
0.677378
0.676828
0.676298
0.67579
0.675305
0.674844
0.674409
0.674001
0.67362
0.673268
0.672946
0.672653
0.672391
0.67216
0.67196
0.671792
0.671655
0.671551
0.671478
0.671437
0.671428
0.671451
0.671505
0.671591
0.671708
0.671855
0.672034
0.672242
0.672481
0.672749
0.673046
0.673372
0.673725
0.674106
0.674514
0.674949
0.675409
0.675893
0.676402
0.676934
0.677489
0.678065
0.678663
0.67928
0.679916
0.68057
0.681242
0.68193
0.682633
0.683351
0.684083
0.684827
0.685583
0.68635
0.687127
0.687913
0.688707
0.689509
0.690317
0.691131
0.69195
0.692773
0.6936
0.694429
0.69526
0.696093
0.696926
0.697759
0.698592
0.699422
0.700251
0.701077
0.701899
0.702718
0.703531
0.704339
0.705141
0.705937
0.706725
0.707505
0.708277
0.709039
0.709792
0.710534
0.711266
0.711986
0.712694
0.713389
0.714071
0.714739
0.715392
0.71603
0.716653
0.717259
0.717847
0.718418
0.71897
0.719503
0.720015
0.720507
0.720977
0.721425
0.721851
0.722253
0.722631
0.722984
0.723313
0.723615
0.723891
0.724141
0.724363
0.724557
0.724723
0.724859
0.724967
0.725044
0.72509
0.725105
0.725088
0.725038
0.724955
0.724838
0.724687
0.724501
0.72428
0.724023
0.723731
0.723403
0.723038
0.722637
0.722198
0.721723
0.721211
0.720663
0.720077
0.719454
0.718794
0.718099
0.717366
0.716599
0.715795
0.714957
0.714085
0.713178
0.712238
0.711264
0.710257
0.709217
0.708142
0.707033
0.705888
0.704703
0.703474
0.7022
0.700841
0.699501
0.697766
0.70254
0.702279
0.702012
0.701718
0.701376
0.700982
0.700541
0.700059
0.69954
0.698987
0.698406
0.6978
0.697175
0.696533
0.69588
0.695218
0.694552
0.693884
0.69322
0.69256
0.691908
0.691268
0.69064
0.690028
0.689434
0.688859
0.688305
0.687773
0.687265
0.686782
0.686325
0.685895
0.685492
0.685117
0.684771
0.684454
0.684166
0.683908
0.68368
0.683482
0.683315
0.683179
0.683072
0.682997
0.682951
0.682936
0.682951
0.682997
0.683072
0.683176
0.68331
0.683473
0.683665
0.683885
0.684133
0.684409
0.684712
0.685042
0.685397
0.685778
0.686185
0.686615
0.687069
0.687546
0.688045
0.688566
0.689107
0.689667
0.690247
0.690845
0.691461
0.692092
0.69274
0.693402
0.694078
0.694767
0.695468
0.696181
0.696904
0.697637
0.698379
0.699129
0.699887
0.70065
0.70142
0.702195
0.702973
0.703756
0.704541
0.705329
0.706117
0.706907
0.707697
0.708486
0.709274
0.71006
0.710843
0.711623
0.712399
0.71317
0.713936
0.714695
0.715449
0.716195
0.716933
0.717663
0.718383
0.719094
0.719794
0.720483
0.72116
0.721825
0.722477
0.723115
0.723739
0.724348
0.724941
0.725518
0.726077
0.726618
0.727141
0.727644
0.728126
0.728588
0.729028
0.729446
0.72984
0.730211
0.730558
0.730879
0.731175
0.731445
0.731688
0.731903
0.732091
0.732251
0.732381
0.732482
0.732553
0.732592
0.7326
0.732576
0.732518
0.732428
0.732303
0.732143
0.731949
0.73172
0.731455
0.731153
0.730815
0.730441
0.73003
0.729582
0.729096
0.728573
0.728014
0.727417
0.726783
0.726112
0.725404
0.724661
0.723881
0.723066
0.722217
0.721333
0.720415
0.719464
0.718479
0.717462
0.716412
0.71533
0.714213
0.713061
0.711872
0.71064
0.709364
0.708003
0.70666
0.704909
0.717578
0.717302
0.71701
0.716683
0.716304
0.715871
0.715389
0.714863
0.714298
0.713698
0.713068
0.712414
0.711739
0.711047
0.710343
0.709632
0.708916
0.708199
0.707485
0.706776
0.706076
0.705386
0.70471
0.704049
0.703405
0.70278
0.702175
0.701593
0.701032
0.700496
0.699984
0.699498
0.699038
0.698605
0.698198
0.69782
0.697469
0.697146
0.696852
0.696586
0.696349
0.696141
0.695962
0.695811
0.69569
0.695597
0.695534
0.695499
0.695492
0.695514
0.695564
0.695643
0.695749
0.695883
0.696044
0.696232
0.696446
0.696687
0.696954
0.697246
0.697563
0.697904
0.698269
0.698657
0.699067
0.699499
0.699953
0.700426
0.70092
0.701432
0.701962
0.70251
0.703074
0.703655
0.70425
0.70486
0.705483
0.706119
0.706766
0.707425
0.708095
0.708774
0.709461
0.710157
0.710861
0.711571
0.712286
0.713008
0.713733
0.714462
0.715195
0.71593
0.716667
0.717404
0.718142
0.71888
0.719616
0.720351
0.721084
0.721813
0.722538
0.723259
0.723975
0.724685
0.725389
0.726085
0.726774
0.727454
0.728124
0.728785
0.729436
0.730075
0.730702
0.731317
0.731918
0.732505
0.733078
0.733634
0.734175
0.734698
0.735203
0.735689
0.736156
0.736602
0.737028
0.737431
0.737813
0.738171
0.738505
0.738814
0.739098
0.739357
0.739589
0.739793
0.739971
0.74012
0.74024
0.740331
0.740391
0.74042
0.740418
0.740384
0.740316
0.740215
0.74008
0.739911
0.739706
0.739467
0.739191
0.738879
0.73853
0.738145
0.737723
0.737264
0.736767
0.736234
0.735663
0.735054
0.734409
0.733727
0.733008
0.732253
0.731462
0.730636
0.729775
0.72888
0.727952
0.72699
0.725997
0.724971
0.723913
0.722823
0.721701
0.720545
0.719353
0.718119
0.716845
0.715486
0.714145
0.712387
0.734192
0.733896
0.733572
0.733206
0.732783
0.732303
0.731771
0.731192
0.730572
0.729916
0.72923
0.728517
0.727784
0.727035
0.726274
0.725506
0.724734
0.723961
0.723192
0.722429
0.721674
0.72093
0.7202
0.719484
0.718786
0.718105
0.717445
0.716805
0.716187
0.715591
0.715019
0.714471
0.713947
0.713448
0.712975
0.712528
0.712106
0.711711
0.711342
0.711
0.710685
0.710397
0.710136
0.709903
0.709696
0.709517
0.709365
0.70924
0.709143
0.709073
0.709029
0.709013
0.709023
0.70906
0.709124
0.709213
0.709329
0.70947
0.709636
0.709828
0.710044
0.710284
0.710547
0.710834
0.711143
0.711475
0.711827
0.712201
0.712595
0.713008
0.71344
0.713891
0.714359
0.714844
0.715345
0.715861
0.716393
0.716938
0.717496
0.718068
0.718651
0.719245
0.719849
0.720464
0.721087
0.721719
0.722358
0.723004
0.723657
0.724315
0.724978
0.725645
0.726315
0.726989
0.727664
0.728341
0.729018
0.729696
0.730373
0.731048
0.731721
0.732392
0.733059
0.733721
0.734379
0.735031
0.735677
0.736316
0.736947
0.737569
0.738183
0.738786
0.739379
0.739961
0.74053
0.741087
0.74163
0.742158
0.742671
0.743168
0.743648
0.744109
0.744553
0.744977
0.745381
0.745764
0.746125
0.746464
0.746779
0.74707
0.747337
0.747579
0.747794
0.747983
0.748145
0.748279
0.748385
0.748461
0.748507
0.748523
0.748507
0.748459
0.748379
0.748265
0.748117
0.747935
0.747718
0.747466
0.747178
0.746854
0.746493
0.746096
0.745662
0.745191
0.744682
0.744137
0.743554
0.742935
0.742278
0.741584
0.740854
0.740088
0.739286
0.73845
0.737579
0.736674
0.735736
0.734765
0.733763
0.73273
0.731665
0.73057
0.729444
0.728286
0.727093
0.725862
0.724592
0.72324
0.721906
0.720151
0.752519
0.752195
0.751832
0.751416
0.750937
0.750395
0.749796
0.749148
0.748457
0.747729
0.746969
0.746184
0.74538
0.74456
0.743729
0.742893
0.742054
0.741217
0.740384
0.739557
0.738741
0.737936
0.737144
0.736367
0.735607
0.734865
0.734142
0.733438
0.732755
0.732094
0.731454
0.730836
0.730241
0.729669
0.72912
0.728595
0.728094
0.727618
0.727165
0.726737
0.726335
0.725957
0.725604
0.725277
0.724975
0.724698
0.724447
0.724222
0.724023
0.723849
0.7237
0.723578
0.723481
0.723409
0.723362
0.723341
0.723345
0.723374
0.723427
0.723505