/*--------------------------------*- C++ -*----------------------------------*\
  =========                 |
  \\      /  F ield         | OpenFOAM: The Open Source CFD Toolbox
   \\    /   O peration     | Website:  https://openfoam.org
    \\  /    A nd           | Version:  10
     \\/     M anipulation  |
\*---------------------------------------------------------------------------*/
FoamFile
{
    format      ascii;
    class       volScalarField;
    location    "20.5";
    object      ddt0(T);
}
// * * * * * * * * * * * * * * * * * * * * * * * * * * * * * * * * * * * * * //

dimensions      [0 0 -1 1 0 0 0];

internalField   nonuniform List<scalar> 
10000
(
1827.69
463.052
576.441
585.709
584.822
584.761
584.833
584.862
584.871
584.875
584.878
584.88
584.883
584.885
584.888
584.89
584.892
584.895
584.897
584.899
584.901
584.903
584.905
584.907
584.909
584.911
584.912
584.914
584.916
584.918
584.919
584.921
584.922
584.924
584.925
584.927
584.928
584.929
584.931
584.932
584.933
584.934
584.935
584.936
584.937
584.938
584.939
584.94
584.941
584.941
584.942
584.943
584.944
584.944
584.945
584.945
584.946
584.946
584.947
584.947
584.947
584.948
584.948
584.948
584.949
584.949
584.949
584.949
584.949
584.949
584.949
584.95
584.95
584.95
584.95
584.95
584.95
584.95
584.95
584.95
584.95
584.95
584.95
584.95
584.95
584.95
584.949
584.949
584.949
584.949
584.949
584.949
584.949
584.949
584.951
584.97
585.01
583.526
561.74
563.707
571.845
-389.857
-180.886
-174.424
-178.374
-178.892
-178.833
-178.798
-178.786
-178.779
-178.771
-178.764
-178.757
-178.75
-178.744
-178.737
-178.73
-178.724
-178.717
-178.711
-178.705
-178.699
-178.693
-178.687
-178.681
-178.676
-178.67
-178.665
-178.66
-178.655
-178.65
-178.645
-178.64
-178.636
-178.631
-178.627
-178.623
-178.619
-178.615
-178.611
-178.608
-178.605
-178.601
-178.598
-178.595
-178.592
-178.59
-178.587
-178.585
-178.582
-178.58
-178.578
-178.576
-178.574
-178.573
-178.571
-178.57
-178.568
-178.567
-178.566
-178.565
-178.564
-178.563
-178.562
-178.561
-178.561
-178.56
-178.559
-178.559
-178.559
-178.558
-178.558
-178.558
-178.558
-178.557
-178.557
-178.557
-178.557
-178.557
-178.557
-178.557
-178.558
-178.558
-178.558
-178.558
-178.558
-178.558
-178.558
-178.558
-178.559
-178.559
-178.559
-178.559
-178.56
-178.557
-178.516
-178.268
-178.119
-186.56
-165.605
661.303
-206.814
6.41901
9.18299
4.30195
3.72313
3.806
3.85342
3.87116
3.88341
3.89524
3.90702
3.9187
3.93026
3.94168
3.95295
3.96406
3.975
3.98576
3.99632
4.0067
4.01687
4.02684
4.03661
4.04617
4.05551
4.06465
4.07356
4.08226
4.09074
4.09899
4.10701
4.11481
4.12237
4.1297
4.1368
4.14366
4.15028
4.15666
4.16281
4.16872
4.17439
4.17983
4.18503
4.19001
4.19475
4.19927
4.20357
4.20764
4.2115
4.21515
4.2186
4.22183
4.22487
4.22772
4.23038
4.23286
4.23515
4.23728
4.23924
4.24104
4.24269
4.24419
4.24555
4.24677
4.24787
4.24884
4.24969
4.25044
4.25108
4.25163
4.25209
4.25246
4.25275
4.25297
4.25312
4.25321
4.25325
4.25324
4.25319
4.25309
4.25297
4.25281
4.25263
4.25243
4.25222
4.252
4.25177
4.25154
4.25131
4.25108
4.25081
4.25024
4.24825
4.24371
4.25781
4.44166
4.82185
0.0839866
7.8497
669.095
-200.64
9.02981
10.4469
5.36114
4.79273
4.89183
4.94735
4.97046
4.98755
5.0041
5.02055
5.03684
5.05295
5.06887
5.08458
5.10006
5.11531
5.13031
5.14505
5.15953
5.17374
5.18767
5.20131
5.21467
5.22774
5.24051
5.25298
5.26515
5.277
5.28854
5.29977
5.31067
5.32125
5.3315
5.34142
5.35101
5.36026
5.36919
5.37778
5.38604
5.39397
5.40158
5.40885
5.41581
5.42244
5.42876
5.43476
5.44046
5.44586
5.45096
5.45577
5.46029
5.46454
5.46852
5.47223
5.47569
5.47891
5.48188
5.48462
5.48713
5.48944
5.49153
5.49343
5.49514
5.49666
5.49802
5.49922
5.50026
5.50115
5.50192
5.50255
5.50307
5.50347
5.50378
5.50399
5.50412
5.50417
5.50416
5.50408
5.50394
5.50376
5.50354
5.50329
5.50301
5.5027
5.50238
5.50205
5.50172
5.50138
5.50106
5.50075
5.50025
5.49823
5.49025
5.47838
5.56169
6.03821
5.35767
6.59557
668.372
-203.989
4.78342
5.99645
0.911397
0.361379
0.470573
0.532069
0.560102
0.581918
0.603154
0.624255
0.645158
0.665832
0.686261
0.706427
0.726312
0.745899
0.765171
0.784116
0.802724
0.820984
0.83889
0.856434
0.873608
0.890406
0.906823
0.922851
0.938486
0.953721
0.968551
0.982971
0.996977
1.01057
1.02373
1.03648
1.04879
1.06068
1.07215
1.08318
1.09379
1.10397
1.11374
1.12308
1.13201
1.14052
1.14863
1.15634
1.16366
1.17059
1.17714
1.18331
1.18912
1.19457
1.19968
1.20445
1.20889
1.21301
1.21682
1.22034
1.22357
1.22652
1.22921
1.23164
1.23383
1.23579
1.23753
1.23906
1.2404
1.24155
1.24252
1.24333
1.24399
1.24451
1.2449
1.24517
1.24534
1.2454
1.24538
1.24527
1.2451
1.24486
1.24458
1.24425
1.24389
1.24349
1.24308
1.24266
1.24222
1.24179
1.24138
1.24102
1.24075
1.2399
1.23451
1.21508
1.20071
1.34393
1.4288
1.60224
668.326
-204.431
4.27722
5.49883
0.431793
-0.107196
0.00853201
0.0751206
0.107927
0.13445
0.160359
0.186096
0.211593
0.236815
0.261741
0.28635
0.310619
0.334526
0.358052
0.381181
0.403901
0.426198
0.448064
0.469487
0.490459
0.510973
0.531019
0.550591
0.569681
0.588282
0.606388
0.623992
0.641091
0.657678
0.67375
0.689304
0.704338
0.71885
0.73284
0.746307
0.759254
0.771683
0.783596
0.794997
0.80589
0.816282
0.826178
0.835585
0.844511
0.852963
0.860951
0.868483
0.875571
0.882223
0.888451
0.894267
0.899682
0.904709
0.909359
0.913645
0.917581
0.92118
0.924456
0.927422
0.930091
0.932478
0.934598
0.936462
0.938087
0.939485
0.940671
0.941658
0.94246
0.94309
0.943562
0.943889
0.944083
0.944157
0.944123
0.943993
0.943778
0.943489
0.943138
0.942734
0.942287
0.941807
0.941302
0.940781
0.94025
0.939718
0.939195
0.938726
0.938437
0.938398
0.937232
0.928393
0.905986
0.90826
0.94615
1.01516
668.389
-204.379
4.35001
5.58694
0.529824
-0.00265345
0.118245
0.189638
0.227165
0.258375
0.288939
0.319292
0.349363
0.379112
0.408515
0.437544
0.466174
0.494379
0.522137
0.54943
0.57624
0.602554
0.628359
0.653642
0.678394
0.702604
0.726262
0.74936
0.771888
0.793839
0.815205
0.835978
0.856153
0.875725
0.894688
0.913039
0.930775
0.947895
0.964399
0.980286
0.995558
1.01022
1.02427
1.03772
1.05057
1.06282
1.07449
1.08559
1.09611
1.10608
1.1155
1.12438
1.13274
1.14058
1.14792
1.15478
1.16116
1.16709
1.17257
1.17762
1.18226
1.1865
1.19035
1.19385
1.19699
1.1998
1.20229
1.20449
1.2064
1.20804
1.20944
1.21059
1.21153
1.21227
1.21282
1.2132
1.21343
1.21351
1.21346
1.21331
1.21305
1.2127
1.21229
1.2118
1.21127
1.2107
1.2101
1.20949
1.20886
1.20823
1.2076
1.20699
1.20649
1.20633
1.20654
1.20496
1.19586
1.17997
1.16987
1.22693
668.414
-204.347
4.3927
5.63752
0.58633
0.0589389
0.184642
0.26076
0.302981
0.338857
0.374052
0.408998
0.443619
0.477871
0.511725
0.545151
0.578118
0.610598
0.642565
0.673998
0.704876
0.735184
0.764906
0.794029
0.822539
0.850425
0.877676
0.90428
0.930228
0.955509
0.980116
1.00404
1.02727
1.04981
1.07165
1.09278
1.1132
1.13292
1.15192
1.17021
1.18779
1.20467
1.22085
1.23633
1.25112
1.26523
1.27866
1.29143
1.30354
1.31502
1.32586
1.33608
1.34569
1.35472
1.36316
1.37105
1.37839
1.38521
1.39151
1.39732
1.40265
1.40753
1.41196
1.41597
1.41958
1.42281
1.42568
1.42819
1.43039
1.43227
1.43387
1.43519
1.43627
1.43711
1.43774
1.43817
1.43842
1.43851
1.43845
1.43826
1.43796
1.43756
1.43707
1.43651
1.43589
1.43523
1.43454
1.43382
1.43309
1.43236
1.43164
1.43091
1.43023
1.42971
1.42965
1.4299
1.42815
1.41781
1.3919
1.4525
668.421
-204.336
4.40967
5.65986
0.613587
0.0909705
0.221396
0.30221
0.349101
0.389616
0.429416
0.468928
0.508072
0.546799
0.585077
0.622872
0.660149
0.696877
0.733026
0.768573
0.803494
0.837771
0.871386
0.904324
0.936569
0.968108
0.998928
1.02902
1.05836
1.08695
1.11478
1.14183
1.16811
1.19359
1.21828
1.24217
1.26527
1.28755
1.30904
1.32971
1.34959
1.36867
1.38696
1.40446
1.42117
1.43712
1.4523
1.46673
1.48042
1.49339
1.50563
1.51718
1.52805
1.53824
1.54778
1.55669
1.56498
1.57268
1.57979
1.58635
1.59237
1.59787
1.60288
1.6074
1.61148
1.61511
1.61834
1.62118
1.62365
1.62577
1.62756
1.62905
1.63026
1.6312
1.6319
1.63238
1.63265
1.63274
1.63267
1.63245
1.6321
1.63164
1.63108
1.63044
1.62974
1.62898
1.62819
1.62738
1.62655
1.62572
1.6249
1.62409
1.62328
1.62253
1.62204
1.62219
1.62285
1.6173
1.57934
1.65365
668.425
-204.329
4.4219
5.67693
0.635398
0.117493
0.252611
0.338093
0.389625
0.43475
0.479124
0.523172
0.566808
0.60998
0.652651
0.694784
0.736341
0.777286
0.817588
0.857219
0.896154
0.934372
0.971852
1.00858
1.04453
1.0797
1.11406
1.14761
1.18032
1.2122
1.24322
1.27338
1.30267
1.33108
1.35861
1.38524
1.41098
1.43582
1.45976
1.48281
1.50496
1.52622
1.5466
1.5661
1.58473
1.6025
1.61941
1.63549
1.65074
1.66518
1.67882
1.69169
1.70378
1.71514
1.72576
1.73568
1.74491
1.75348
1.7614
1.76869
1.77539
1.78151
1.78707
1.79211
1.79663
1.80068
1.80426
1.80741
1.81015
1.8125
1.81449
1.81614
1.81747
1.81851
1.81928
1.8198
1.82009
1.82018
1.82009
1.81983
1.81943
1.81891
1.81828
1.81756
1.81676
1.81592
1.81503
1.81411
1.81318
1.81226
1.81134
1.81044
1.80955
1.80868
1.80792
1.80775
1.80924
1.80692
1.75497
1.84745
668.428
-204.322
4.43375
5.69353
0.656692
0.143467
0.283245
0.373364
0.429505
0.479206
0.528122
0.576671
0.624764
0.672347
0.719377
0.765814
0.811616
0.856746
0.901167
0.94485
0.987767
1.02989
1.07121
1.11169
1.15132
1.19009
1.22796
1.26494
1.301
1.33614
1.37033
1.40357
1.43585
1.46716
1.49749
1.52684
1.5552
1.58258
1.60896
1.63435
1.65876
1.68219
1.70464
1.72612
1.74664
1.76621
1.78484
1.80254
1.81934
1.83524
1.85026
1.86443
1.87775
1.89024
1.90194
1.91285
1.92301
1.93244
1.94115
1.94917
1.95654
1.96327
1.96938
1.97491
1.97989
1.98433
1.98826
1.99172
1.99472
1.99729
1.99947
2.00127
2.00272
2.00385
2.00468
2.00524
2.00555
2.00564
2.00553
2.00523
2.00478
2.00419
2.00348
2.00268
2.00179
2.00085
1.99986
1.99885
1.99782
1.99679
1.99577
1.99478
1.99381
1.99285
1.99194
1.99152
1.99345
1.9939
1.92786
2.03861
668.431
-204.314
4.44556
5.71004
0.677856
0.169276
0.31368
0.408399
0.469112
0.523353
0.576772
0.629785
0.682299
0.734253
0.785605
0.836309
0.88632
0.935597
0.984102
1.0318
1.07866
1.12467
1.16978
1.21399
1.25727
1.29959
1.34096
1.38133
1.42071
1.45907
1.49641
1.5327
1.56794
1.60213
1.63524
1.66728
1.69824
1.72812
1.75691
1.78463
1.81127
1.83683
1.86133
1.88477
1.90717
1.92852
1.94885
1.96817
1.98649
2.00383
2.02022
2.03566
2.05019
2.06382
2.07657
2.08847
2.09954
2.10981
2.1193
2.12805
2.13607
2.14339
2.15005
2.15607
2.16148
2.16631
2.17058
2.17434
2.17759
2.18039
2.18274
2.18469
2.18626
2.18747
2.18836
2.18896
2.18928
2.18936
2.18922
2.18888
2.18837
2.18772
2.18693
2.18604
2.18507
2.18403
2.18294
2.18182
2.18068
2.17955
2.17843
2.17734
2.17629
2.17525
2.17422
2.17362
2.17581
2.17876
2.10039
2.2272
668.433
-204.307
4.45727
5.72639
0.698834
0.19486
0.343849
0.443129
0.508373
0.567113
0.624995
0.682431
0.739323
0.795609
0.851241
0.906171
0.960351
1.01374
1.06628
1.11796
1.16873
1.21857
1.26745
1.31535
1.36223
1.40809
1.4529
1.49665
1.53931
1.58087
1.62131
1.66062
1.6988
1.73582
1.77169
1.80639
1.83992
1.87228
1.90346
1.93348
1.96232
1.99001
2.01653
2.04191
2.06615
2.08927
2.11127
2.13218
2.15201
2.17078
2.18851
2.20522
2.22094
2.23568
2.24947
2.26234
2.27431
2.28541
2.29567
2.30512
2.31378
2.3217
2.32889
2.33538
2.34122
2.34642
2.35103
2.35507
2.35858
2.36158
2.36411
2.3662
2.36788
2.36917
2.37012
2.37074
2.37107
2.37114
2.37097
2.37058
2.37002
2.36929
2.36842
2.36745
2.36638
2.36524
2.36404
2.36282
2.36158
2.36035
2.35913
2.35794
2.35679
2.35567
2.35454
2.35377
2.3561
2.3611
2.273
2.41281
668.436
-204.3
4.46887
5.74258
0.719597
0.220186
0.373717
0.477513
0.547245
0.610439
0.672739
0.734553
0.795779
0.856353
0.916221
0.975333
1.03364
1.09109
1.14764
1.20325
1.25789
1.31153
1.36413
1.41568
1.46614
1.51549
1.56371
1.61078
1.65669
1.70141
1.74493
1.78723
1.82831
1.86814
1.90673
1.94406
1.98013
2.01494
2.04849
2.08077
2.11179
2.14157
2.17009
2.19738
2.22345
2.2483
2.27196
2.29444
2.31576
2.33593
2.35499
2.37295
2.38983
2.40567
2.42048
2.4343
2.44716
2.45908
2.47009
2.48023
2.48953
2.49802
2.50573
2.51269
2.51894
2.52452
2.52945
2.53377
2.53752
2.54072
2.54342
2.54564
2.54742
2.54879
2.54978
2.55043
2.55076
2.55081
2.5506
2.55017
2.54954
2.54874
2.54779
2.54672
2.54555
2.54431
2.54302
2.54169
2.54034
2.539
2.53768
2.53639
2.53515
2.53394
2.53272
2.5318
2.53416
2.54067
2.44563
2.5952
668.438
-204.294
4.48034
5.75858
0.740131
0.245236
0.403261
0.511525
0.585695
0.653296
0.719966
0.78611
0.851623
0.916435
0.980493
1.04374
1.10612
1.16759
1.2281
1.28761
1.34607
1.40346
1.45975
1.5149
1.56889
1.62169
1.67329
1.72366
1.77277
1.82061
1.86717
1.91242
1.95636
1.99897
2.04025
2.08018
2.11876
2.15599
2.19186
2.22639
2.25956
2.2914
2.3219
2.35107
2.37894
2.40551
2.43079
2.45482
2.4776
2.49916
2.51952
2.5387
2.55674
2.57365
2.58948
2.60423
2.61796
2.63068
2.64243
2.65325
2.66316
2.67221
2.68043
2.68784
2.6945
2.70043
2.70568
2.71027
2.71425
2.71765
2.7205
2.72285
2.72472
2.72616
2.72719
2.72786
2.72819
2.72821
2.72797
2.72748
2.72679
2.72591
2.72487
2.72371
2.72244
2.7211
2.7197
2.71826
2.71681
2.71536
2.71394
2.71255
2.71122
2.70992
2.70861
2.70756
2.70987
2.71735
2.61798
2.77425
668.44
-204.287
4.49167
5.77438
0.760418
0.269988
0.432455
0.545135
0.623693
0.695649
0.766638
0.83706
0.906808
0.975809
1.04401
1.11134
1.17775
1.24319
1.30761
1.37096
1.4332
1.4943
1.55422
1.61294
1.67042
1.72663
1.78156
1.83517
1.88745
1.93838
1.98794
2.03611
2.08287
2.12822
2.17215
2.21464
2.2557
2.29531
2.33349
2.37022
2.40551
2.43938
2.47183
2.50286
2.5325
2.56075
2.58765
2.61319
2.63741
2.66033
2.68198
2.70237
2.72153
2.73951
2.75631
2.77199
2.78656
2.80007
2.81254
2.82402
2.83454
2.84414
2.85284
2.8607
2.86776
2.87403
2.87958
2.88443
2.88863
2.89221
2.89522
2.89768
2.89964
2.90114
2.90221
2.90289
2.90321
2.90321
2.90292
2.90238
2.90161
2.90065
2.89952
2.89826
2.8969
2.89544
2.89393
2.89239
2.89083
2.88928
2.88775
2.88626
2.88483
2.88345
2.88205
2.8809
2.88308
2.89105
2.78967
2.9499
668.443
-204.28
4.50285
5.78998
0.780441
0.294421
0.461274
0.578316
0.661206
0.737462
0.812714
0.88736
0.96129
1.03443
1.10671
1.17808
1.24847
1.31783
1.3861
1.45325
1.51922
1.58398
1.64749
1.70972
1.77064
1.83022
1.88843
1.94525
2.00066
2.05463
2.10715
2.15819
2.20774
2.25579
2.30233
2.34735
2.39085
2.43281
2.47325
2.51215
2.54954
2.58541
2.61976
2.65263
2.68401
2.71393
2.7424
2.76944
2.79507
2.81933
2.84223
2.8638
2.88408
2.90309
2.92086
2.93744
2.95284
2.96712
2.9803
2.99242
3.00353
3.01366
3.02284
3.03113
3.03856
3.04518
3.05102
3.05612
3.06053
3.06428
3.06743
3.07
3.07204
3.07359
3.07469
3.07537
3.07568
3.07565
3.07531
3.0747
3.07386
3.07281
3.0716
3.07024
3.06876
3.0672
3.06558
3.06393
3.06226
3.0606
3.05897
3.05738
3.05585
3.05438
3.0529
3.05165
3.05368
3.06173
2.96029
3.12215
668.445
-204.273
4.51387
5.80535
0.800184
0.318515
0.489696
0.61104
0.698204
0.778701
0.858159
0.936972
1.01503
1.09224
1.16855
1.2439
1.31821
1.39144
1.46352
1.53441
1.60406
1.67242
1.73947
1.80517
1.86949
1.93238
1.99383
2.05382
2.1123
2.16927
2.2247
2.27857
2.33087
2.38159
2.4307
2.47821
2.5241
2.56838
2.61104
2.65209
2.69153
2.72936
2.76561
2.80027
2.83336
2.86491
2.89493
2.92344
2.95046
2.97603
3.00016
3.0229
3.04426
3.06428
3.083
3.10045
3.11667
3.1317
3.14556
3.15832
3.16999
3.18064
3.19029
3.199
3.20679
3.21373
3.21985
3.22519
3.2298
3.23372
3.23699
3.23967
3.24178
3.24338
3.24449
3.24518
3.24546
3.24539
3.245
3.24432
3.2434
3.24227
3.24095
3.23949
3.23791
3.23624
3.2345
3.23274
3.23096
3.22919
3.22745
3.22576
3.22414
3.22258
3.22102
3.21969
3.22151
3.22933
3.12942
3.29097
668.447
-204.267
4.52472
5.82049
0.819633
0.342251
0.517698
0.643283
0.73466
0.819338
0.902941
0.985861
1.06798
1.14922
1.2295
1.30876
1.38695
1.46398
1.53981
1.61439
1.68766
1.75958
1.83012
1.89923
1.96689
2.03305
2.09769
2.16079
2.22231
2.28223
2.34052
2.39718
2.45219
2.50552
2.55716
2.60712
2.65537
2.70193
2.74678
2.78993
2.83139
2.87115
2.90924
2.94567
2.98045
3.01359
3.04513
3.07508
3.10346
3.13031
3.15566
3.17953
3.20195
3.22297
3.24261
3.26092
3.27793
3.29368
3.30822
3.32158
3.33382
3.34496
3.35506
3.36417
3.37232
3.37956
3.38595
3.39152
3.39631
3.40039
3.40379
3.40655
3.40873
3.41036
3.41149
3.41216
3.41242
3.41231
3.41185
3.41111
3.4101
3.40887
3.40745
3.40588
3.40419
3.40241
3.40056
3.39868
3.39678
3.39491
3.39306
3.39127
3.38955
3.38791
3.38628
3.38486
3.38646
3.39382
3.29668
3.45635
668.449
-204.261
4.53539
5.83539
0.838774
0.365616
0.545263
0.675025
0.770549
0.859344
0.94703
1.03399
1.12012
1.20531
1.2895
1.37263
1.45462
1.5354
1.61492
1.69313
1.76996
1.84539
1.91936
1.99183
2.06278
2.13216
2.19994
2.26609
2.3306
2.39342
2.45454
2.51394
2.5716
2.6275
2.68164
2.734
2.78457
2.83336
2.88036
2.92558
2.96901
3.01068
3.05058
3.08874
3.12516
3.15988
3.1929
3.22426
3.25398
3.28208
3.30861
3.33359
3.35705
3.37903
3.39958
3.41872
3.4365
3.45296
3.46815
3.48211
3.49488
3.50651
3.51704
3.52653
3.53502
3.54256
3.5492
3.55498
3.55996
3.56418
3.56768
3.57053
3.57276
3.57442
3.57556
3.57622
3.57644
3.57627
3.57575
3.57493
3.57383
3.5725
3.57098
3.5693
3.5675
3.56559
3.56363
3.56163
3.55962
3.55763
3.55568
3.55379
3.55198
3.55024
3.54853
3.54704
3.54841
3.55513
3.4617
3.61828
668.451
-204.254
4.54589
5.85004
0.857598
0.388595
0.572376
0.706246
0.805852
0.898697
0.990399
1.08134
1.1714
1.26049
1.34853
1.43545
1.52119
1.60566
1.68881
1.77059
1.85093
1.9298
2.00714
2.08292
2.1571
2.22964
2.30051
2.36967
2.43711
2.50278
2.56668
2.62877
2.68903
2.74746
2.80404
2.85876
2.91162
2.9626
3.01171
3.05895
3.10433
3.14785
3.18953
3.22938
3.26742
3.30367
3.33815
3.37089
3.40191
3.43124
3.45892
3.48498
3.50945
3.53238
3.5538
3.57375
3.59228
3.60943
3.62525
3.63978
3.65307
3.66517
3.67612
3.68598
3.69479
3.70261
3.70949
3.71547
3.72062
3.72497
3.72858
3.73149
3.73377
3.73545
3.73658
3.73722
3.7374
3.73717
3.73658
3.73567
3.73448
3.73305
3.73142
3.72963
3.7277
3.72568
3.7236
3.72148
3.71936
3.71725
3.71519
3.71319
3.71128
3.70946
3.70768
3.70612
3.70724
3.7132
3.62414
3.77676
668.453
-204.248
4.55619
5.86444
0.876095
0.411177
0.599021
0.73693
0.840549
0.937376
1.03303
1.12788
1.22181
1.31473
1.40655
1.4972
1.58662
1.67472
1.76144
1.84672
1.93051
2.01276
2.09342
2.17245
2.2498
2.32545
2.39934
2.47146
2.54178
2.61025
2.67687
2.7416
2.80443
2.86534
2.92431
2.98135
3.03643
3.08956
3.14074
3.18996
3.23724
3.28259
3.326
3.36751
3.40713
3.44488
3.48078
3.51487
3.54716
3.57769
3.60649
3.6336
3.65906
3.68291
3.70518
3.72592
3.74518
3.763
3.77942
3.7945
3.80829
3.82084
3.83219
3.8424
3.85152
3.85961
3.86671
3.87289
3.87818
3.88265
3.88635
3.88933
3.89164
3.89333
3.89445
3.89506
3.89519
3.8949
3.89423
3.89323
3.89194
3.89041
3.88866
3.88675
3.8847
3.88256
3.88035
3.87811
3.87587
3.87365
3.87148
3.86938
3.86737
3.86546
3.86361
3.86198
3.86284
3.86798
3.78371
3.93176
668.455
-204.242
4.5663
5.87857
0.894259
0.433352
0.625187
0.767064
0.874624
0.975362
1.07489
1.17358
1.27132
1.36799
1.46353
1.55785
1.65088
1.74254
1.83276
1.92149
2.00867
2.09423
2.17815
2.26036
2.34083
2.41952
2.49639
2.57141
2.64455
2.71577
2.78505
2.85237
2.91771
2.98105
3.04237
3.10168
3.15894
3.21418
3.26738
3.31854
3.36768
3.41481
3.45993
3.50306
3.54422
3.58343
3.62072
3.65612
3.68964
3.72134
3.75124
3.77938
3.80579
3.83053
3.85363
3.87513
3.89509
3.91355
3.93057
3.94618
3.96045
3.97343
3.98516
3.99571
4.00512
4.01346
4.02078
4.02713
4.03256
4.03714
4.04092
4.04395
4.04628
4.04797
4.04907
4.04964
4.04972
4.04936
4.0486
4.04751
4.04611
4.04446
4.0426
4.04057
4.0384
4.03613
4.03379
4.03143
4.02907
4.02673
4.02445
4.02224
4.02014
4.01814
4.01621
4.01452
4.01512
4.0194
3.94012
4.08326
668.457
-204.236
4.57622
5.89244
0.91208
0.455111
0.650862
0.796632
0.90806
1.01264
1.11597
1.21843
1.3199
1.42026
1.51944
1.61736
1.71393
1.80908
1.90275
1.99485
2.08535
2.17417
2.26128
2.34662
2.43014
2.51182
2.5916
2.66946
2.74537
2.81928
2.89117
2.96103
3.02883
3.09454
3.15817
3.21968
3.27909
3.33638
3.39156
3.44462
3.49558
3.54444
3.59122
3.63593
3.6786
3.71924
3.75788
3.79455
3.82929
3.86212
3.89308
3.92221
3.94956
3.97516
3.99906
4.0213
4.04194
4.06102
4.0786
4.09473
4.10946
4.12284
4.13494
4.14581
4.1555
4.16407
4.17158
4.17809
4.18366
4.18833
4.19218
4.19524
4.19759
4.19928
4.20035
4.20087
4.20088
4.20044
4.1996
4.1984
4.1969
4.19513
4.19315
4.19098
4.18869
4.18629
4.18383
4.18134
4.17885
4.1764
4.174
4.17169
4.16949
4.1674
4.1654
4.16364
4.16399
4.1674
4.09316
4.23123
668.459
-204.23
4.58595
5.90603
0.929553
0.476444
0.676035
0.825624
0.940843
1.04918
1.15625
1.26241
1.36753
1.47151
1.57426
1.6757
1.77575
1.87433
1.97136
2.06678
2.16052
2.25254
2.34277
2.43117
2.51769
2.60229
2.68493
2.76557
2.84418
2.92072
2.99518
3.06752
3.13771
3.20576
3.27163
3.33531
3.39681
3.45611
3.51322
3.56813
3.62086
3.67142
3.71982
3.76607
3.8102
3.85223
3.89219
3.93011
3.96601
3.99994
4.03194
4.06204
4.09028
4.11672
4.14139
4.16434
4.18564
4.20532
4.22344
4.24006
4.25523
4.269
4.28145
4.29261
4.30256
4.31136
4.31905
4.32571
4.33139
4.33615
4.34004
4.34314
4.34549
4.34716
4.3482
4.34866
4.3486
4.34807
4.34714
4.34583
4.34421
4.34232
4.34021
4.33791
4.33548
4.33295
4.33036
4.32774
4.32513
4.32256
4.32005
4.31763
4.31533
4.31315
4.31107
4.30925
4.30936
4.31192
4.24263
4.37564
668.461
-204.225
4.59547
5.91935
0.946671
0.497344
0.700697
0.854026
0.972961
1.08499
1.19571
1.30549
1.41419
1.52171
1.62797
1.73286
1.83631
1.93824
2.03857
2.13723
2.23416
2.3293
2.42259
2.51398
2.60343
2.6909
2.77633
2.85969
2.94094
3.02006
3.09701
3.17178
3.24432
3.31464
3.3827
3.4485
3.51204
3.5733
3.63229
3.68901
3.74347
3.79568
3.84565
3.8934
3.93896
3.98234
4.02358
4.06271
4.09975
4.13475
4.16774
4.19878
4.22789
4.25513
4.28055
4.30419
4.32611
4.34637
4.36501
4.38209
4.39768
4.41183
4.4246
4.43605
4.44624
4.45524
4.4631
4.46989
4.47567
4.4805
4.48444
4.48755
4.4899
4.49154
4.49253
4.49292
4.49279
4.49217
4.49113
4.48971
4.48797
4.48595
4.4837
4.48128
4.47871
4.47604
4.47332
4.47057
4.46783
4.46513
4.46251
4.45998
4.45758
4.45531
4.45316
4.45127
4.45115
4.4529
4.38836
4.51643
668.463
-204.219
4.60479
5.93239
0.963428
0.517802
0.724839
0.881828
1.0044
1.12003
1.23433
1.34765
1.45986
1.57085
1.68053
1.7888
1.89558
2.00079
2.10435
2.20618
2.30622
2.40441
2.5007
2.59502
2.68733
2.77759
2.86575
2.95177
3.03561
3.11724
3.19664
3.27376
3.3486
3.42113
3.49134
3.5592
3.62473
3.6879
3.74873
3.8072
3.86335
3.91716
3.96867
4.01788
4.06482
4.10951
4.15199
4.19229
4.23043
4.26646
4.30043
4.33236
4.36231
4.39033
4.41647
4.44077
4.46329
4.4841
4.50323
4.52077
4.53675
4.55125
4.56433
4.57604
4.58646
4.59564
4.60366
4.61056
4.61643
4.62132
4.62529
4.62841
4.63074
4.63234
4.63327
4.63359
4.63337
4.63265
4.6315
4.62996
4.62809
4.62594
4.62356
4.62099
4.61828
4.61548
4.61262
4.60973
4.60686
4.60404
4.6013
4.59867
4.59616
4.5938
4.59158
4.58963
4.58928
4.59028
4.53022
4.65357
668.465
-204.214
4.61391
5.94514
0.979818
0.537812
0.74845
0.90902
1.03515
1.15431
1.2721
1.38889
1.50453
1.61891
1.73193
1.84351
1.95354
2.06196
2.16867
2.2736
2.37668
2.47786
2.57706
2.67425
2.76935
2.86234
2.95316
3.04177
3.12814
3.21223
3.294
3.37343
3.45051
3.5252
3.59749
3.66736
3.73482
3.79986
3.86247
3.92266
3.98043
4.03581
4.0888
4.13943
4.18771
4.23368
4.27736
4.31879
4.358
4.39503
4.42993
4.46273
4.49349
4.52226
4.54908
4.57402
4.59712
4.61844
4.63805
4.65601
4.67237
4.6872
4.70056
4.71252
4.72315
4.7325
4.74065
4.74766
4.7536
4.75853
4.76252
4.76563
4.76794
4.76949
4.77036
4.7706
4.77028
4.76945
4.76818
4.76652
4.76451
4.76222
4.7597
4.75699
4.75414
4.75119
4.74819
4.74517
4.74217
4.73923
4.73636
4.73362
4.73101
4.72856
4.72626
4.72425
4.7237
4.72399
4.66811
4.787
668.467
-204.208
4.62282
5.95761
0.995835
0.557366
0.771522
0.93559
1.06519
1.1878
1.30901
1.42919
1.54817
1.66586
1.78215
1.89695
2.01017
2.12171
2.2315
2.33945
2.44551
2.54959
2.65165
2.75163
2.84946
2.94511
3.03853
3.12967
3.21849
3.30497
3.38906
3.47075
3.54999
3.62679
3.7011
3.77294
3.84228
3.90912
3.97347
4.03532
4.09468
4.15157
4.20601
4.25801
4.30759
4.35479
4.39964
4.44216
4.4824
4.52039
4.55619
4.58983
4.62137
4.65085
4.67833
4.70387
4.72752
4.74935
4.76941
4.78776
4.80448
4.81962
4.83325
4.84544
4.85625
4.86576
4.87403
4.88112
4.88712
4.89208
4.89608
4.89917
4.90143
4.90293
4.90372
4.90387
4.90345
4.90251
4.90111
4.89931
4.89717
4.89474
4.89207
4.88921
4.88622
4.88312
4.87998
4.87682
4.87369
4.87061
4.86763
4.86477
4.86206
4.85952
4.85714
4.85507
4.85432
4.85397
4.80194
4.91668
668.468
-204.203
4.63152
5.96978
1.01147
0.576457
0.794049
0.961531
1.09452
1.2205
1.34504
1.46852
1.59077
1.71169
1.83117
1.94912
2.06544
2.18003
2.29282
2.40373
2.51268
2.6196
2.72444
2.82713
2.92763
3.02587
3.12181
3.21542
3.30664
3.39544
3.48179
3.56566
3.64703
3.72586
3.80215
3.87589
3.94706
4.01565
4.08168
4.14514
4.20605
4.26441
4.32024
4.37357
4.42441
4.4728
4.51877
4.56235
4.60358
4.6425
4.67916
4.71361
4.74589
4.77606
4.80417
4.83029
4.85446
4.87676
4.89724
4.91597
4.93302
4.94845
4.96232
4.97472
4.98571
4.99535
5.00372
5.01089
5.01693
5.02191
5.0259
5.02897
5.03118
5.0326
5.03331
5.03336
5.03283
5.03176
5.03023
5.0283
5.02601
5.02343
5.02061
5.0176
5.01445
5.01121
5.00792
5.00462
5.00135
4.99815
4.99505
4.99207
4.98926
4.98662
4.98417
4.98203
4.9811
4.98018
4.93165
5.04255
668.47
-204.198
4.64001
5.98165
1.02673
0.595079
0.81602
0.986832
1.12313
1.25239
1.38018
1.50688
1.63232
1.75639
1.87898
1.99999
2.11933
2.2369
2.35262
2.46639
2.57816
2.68785
2.7954
2.90074
3.00382
3.10459
3.20299
3.29899
3.39254
3.48361
3.57215
3.65815
3.74156
3.82239
3.90059
3.97617
4.04911
4.11941
4.18707
4.2521
4.31449
4.37427
4.43146
4.48607
4.53812
4.58766
4.63471
4.67931
4.72149
4.76131
4.7988
4.83401
4.86701
4.89783
4.92655
4.95321
4.97788
5.00063
5.02151
5.04059
5.05794
5.07364
5.08774
5.10033
5.11147
5.12123
5.12969
5.13692
5.14299
5.14797
5.15194
5.15496
5.15711
5.15846
5.15907
5.15902
5.15836
5.15717
5.1555
5.15342
5.15098
5.14825
5.14527
5.14211
5.1388
5.13541
5.13197
5.12852
5.12511
5.12178
5.11856
5.11547
5.11255
5.10983
5.1073
5.10509
5.10399
5.10257
5.0572
5.16457
668.472
-204.193
4.64828
5.99322
1.04159
0.613226
0.837431
1.01149
1.15101
1.28346
1.41442
1.54426
1.6728
1.79993
1.92555
2.04955
2.17183
2.2923
2.41086
2.52743
2.64195
2.75433
2.8645
2.97242
3.07802
3.18124
3.28203
3.38036
3.47617
3.56944
3.66011
3.74817
3.83358
3.91633
3.99639
4.07376
4.14842
4.22037
4.2896
4.35614
4.41997
4.48113
4.53962
4.59546
4.64869
4.69934
4.74743
4.793
4.8361
4.87677
4.91506
4.95101
4.98468
5.01614
5.04542
5.0726
5.09774
5.12091
5.14216
5.16157
5.17921
5.19515
5.20947
5.22222
5.23349
5.24336
5.25189
5.25916
5.26524
5.27022
5.27415
5.27712
5.2792
5.28046
5.28097
5.2808
5.28001
5.27868
5.27686
5.27463
5.27204
5.26914
5.26601
5.26268
5.25922
5.25567
5.25207
5.24848
5.24494
5.24147
5.23812
5.23492
5.2319
5.22908
5.22647
5.2242
5.22295
5.22107
5.17856
5.28269
668.473
-204.188
4.65634
6.00449
1.05607
0.630893
0.858274
1.03549
1.17814
1.3137
1.44775
1.58064
1.7122
1.84231
1.97088
2.09778
2.22292
2.3462
2.46753
2.58683
2.70401
2.819
2.93174
3.04216
3.15019
3.2558
3.35892
3.4595
3.55751
3.6529
3.74565
3.8357
3.92305
4.00766
4.08952
4.16862
4.24494
4.31848
4.38925
4.45724
4.52247
4.58494
4.64469
4.70173
4.75609
4.80779
4.85688
4.9034
4.94737
4.98886
5.02791
5.06456
5.09888
5.13093
5.16075
5.18843
5.21401
5.23757
5.25917
5.27889
5.29679
5.31295
5.32745
5.34036
5.35175
5.36169
5.37028
5.37757
5.38366
5.38861
5.3925
5.39541
5.3974
5.39856
5.39895
5.39866
5.39773
5.39625
5.39429
5.39189
5.38914
5.38608
5.38278
5.37929
5.37566
5.37195
5.36821
5.36447
5.36078
5.35718
5.35371
5.35039
5.34726
5.34435
5.34166
5.33932
5.33793
5.33566
5.29572
5.39687
668.475
-204.183
4.66417
6.01545
1.07014
0.648074
0.878544
1.05883
1.20453
1.34311
1.48016
1.61601
1.75051
1.88352
2.01495
2.14467
2.27259
2.39861
2.52263
2.64456
2.76433
2.88186
2.99708
3.10993
3.22034
3.32825
3.43362
3.5364
3.63653
3.73399
3.82873
3.92072
4.00994
4.09636
4.17996
4.26073
4.33865
4.41373
4.48597
4.55537
4.62194
4.68569
4.74665
4.80484
4.86028
4.913
4.96305
5.01046
5.05528
5.09755
5.13732
5.17464
5.20958
5.24218
5.27252
5.30065
5.32665
5.35057
5.3725
5.3925
5.41064
5.42701
5.44167
5.45471
5.46619
5.47621
5.48483
5.49214
5.49821
5.50312
5.50695
5.50978
5.51168
5.51273
5.513
5.51257
5.5115
5.50987
5.50774
5.50519
5.50226
5.49904
5.49556
5.49191
5.48811
5.48424
5.48034
5.47645
5.47261
5.46888
5.46528
5.46185
5.45861
5.4556
5.45284
5.45043
5.4489
5.4463
5.40865
5.50709
668.476
-204.179
4.67179
6.0261
1.08382
0.664767
0.898237
1.0815
1.23016
1.37169
1.51164
1.65037
1.78772
1.92355
2.05775
2.19021
2.32083
2.4495
2.57613
2.70062
2.82291
2.9429
3.06052
3.17572
3.28842
3.39858
3.50613
3.61102
3.71322
3.81268
3.90935
4.00322
4.09424
4.1824
4.26768
4.35006
4.42954
4.50611
4.57976
4.65051
4.71837
4.78335
4.84547
4.90476
4.96124
5.01494
5.06591
5.11418
5.1598
5.20281
5.24326
5.28122
5.31674
5.34987
5.38069
5.40926
5.43564
5.45991
5.48213
5.50239
5.52075
5.53729
5.5521
5.56525
5.57681
5.58688
5.59552
5.60283
5.60887
5.61373
5.61749
5.62023
5.62203
5.62295
5.62309
5.62251
5.62129
5.6195
5.61721
5.61448
5.61138
5.60798
5.60433
5.6005
5.59654
5.5925
5.58844
5.5844
5.58042
5.57654
5.57282
5.56927
5.56593
5.56282
5.55998
5.5575
5.55585
5.55295
5.51737
5.6133
668.478
-204.174
4.67918
6.03643
1.09709
0.680967
0.917347
1.1035
1.25504
1.39941
1.54219
1.68371
1.82382
1.96238
2.09927
2.23439
2.36763
2.49887
2.62802
2.755
2.87971
3.00209
3.12204
3.23952
3.35445
3.46677
3.57643
3.68337
3.78756
3.88895
3.98749
4.08317
4.17594
4.26578
4.35268
4.43661
4.51758
4.59558
4.6706
4.74265
4.81175
4.87791
4.94115
5.00148
5.05896
5.1136
5.16544
5.21453
5.2609
5.30462
5.34573
5.38429
5.42035
5.45399
5.48526
5.51422
5.54096
5.56554
5.58804
5.60853
5.62709
5.64379
5.65872
5.67196
5.68359
5.69369
5.70234
5.70962
5.71562
5.72042
5.72409
5.72673
5.72841
5.72921
5.72921
5.72847
5.72709
5.72513
5.72266
5.71976
5.71648
5.7129
5.70908
5.70507
5.70093
5.69673
5.6925
5.6883
5.68417
5.68016
5.67631
5.67264
5.66919
5.66599
5.66307
5.66053
5.65876
5.65561
5.62188
5.71549
668.479
-204.17
4.68634
6.04645
1.10996
0.696672
0.935874
1.12483
1.27915
1.42628
1.5718
1.71603
1.85881
2.00001
2.13952
2.27721
2.41297
2.54671
2.67831
2.80769
2.93475
3.05943
3.18164
3.30132
3.4184
3.53281
3.64451
3.75343
3.85954
3.96279
4.06314
4.16056
4.25501
4.34647
4.43493
4.52037
4.60277
4.68214
4.75847
4.83178
4.90206
4.96935
5.03365
5.095
5.15342