/*--------------------------------*- C++ -*----------------------------------*\
  =========                 |
  \\      /  F ield         | OpenFOAM: The Open Source CFD Toolbox
   \\    /   O peration     | Website:  https://openfoam.org
    \\  /    A nd           | Version:  10
     \\/     M anipulation  |
\*---------------------------------------------------------------------------*/
FoamFile
{
    format      ascii;
    class       volScalarField;
    location    "20.5";
    object      T_0;
}
// * * * * * * * * * * * * * * * * * * * * * * * * * * * * * * * * * * * * * //

dimensions      [0 0 0 1 0 0 0];

internalField   nonuniform List<scalar> 
10000
(
374.971
361.262
356.564
354.495
353.365
352.645
352.139
351.757
351.455
351.207
350.997
350.816
350.656
350.513
350.384
350.265
350.155
350.053
349.957
349.867
349.781
349.7
349.622
349.547
349.475
349.406
349.34
349.275
349.213
349.153
349.094
349.037
348.981
348.928
348.875
348.824
348.774
348.726
348.678
348.632
348.587
348.544
348.501
348.459
348.418
348.379
348.34
348.303
348.266
348.23
348.196
348.162
348.129
348.097
348.065
348.035
348.006
347.977
347.949
347.922
347.896
347.871
347.846
347.823
347.8
347.778
347.756
347.735
347.715
347.696
347.678
347.66
347.643
347.627
347.611
347.596
347.582
347.568
347.555
347.543
347.531
347.52
347.51
347.5
347.491
347.482
347.474
347.467
347.46
347.454
347.449
347.444
347.44
347.436
347.433
347.43
347.428
347.427
347.426
347.426
388.585
374.776
367.067
362.551
359.689
357.729
356.298
355.198
354.317
353.588
352.969
352.431
351.957
351.532
351.146
350.792
350.464
350.159
349.872
349.602
349.346
349.102
348.868
348.645
348.43
348.223
348.023
347.83
347.643
347.462
347.286
347.115
346.949
346.788
346.63
346.477
346.328
346.182
346.041
345.902
345.768
345.636
345.508
345.383
345.261
345.142
345.027
344.914
344.804
344.697
344.592
344.491
344.392
344.296
344.202
344.112
344.023
343.937
343.854
343.773
343.695
343.619
343.545
343.474
343.405
343.339
343.275
343.212
343.153
343.095
343.04
342.986
342.935
342.886
342.839
342.794
342.751
342.71
342.671
342.634
342.599
342.566
342.535
342.506
342.478
342.453
342.429
342.407
342.387
342.369
342.353
342.338
342.325
342.314
342.305
342.298
342.292
342.288
342.286
342.285
393.183
382.185
374.376
368.953
365.108
362.282
360.124
358.418
357.025
355.857
354.857
353.983
353.208
352.51
351.875
351.292
350.751
350.246
349.771
349.323
348.898
348.493
348.106
347.734
347.377
347.033
346.701
346.38
346.069
345.768
345.475
345.191
344.914
344.645
344.383
344.128
343.88
343.637
343.401
343.171
342.947
342.728
342.514
342.306
342.103
341.905
341.712
341.524
341.341
341.163
340.989
340.82
340.655
340.495
340.339
340.188
340.041
339.898
339.759
339.625
339.494
339.367
339.245
339.126
339.012
338.901
338.793
338.69
338.59
338.494
338.402
338.313
338.228
338.146
338.068
337.993
337.921
337.853
337.788
337.727
337.668
337.613
337.561
337.513
337.467
337.425
337.385
337.349
337.315
337.285
337.258
337.234
337.212
337.194
337.178
337.166
337.156
337.15
337.146
337.145
395.152
386.401
379.3
373.778
369.508
366.168
363.502
361.326
359.509
357.963
356.622
355.44
354.384
353.429
352.557
351.753
351.005
350.306
349.648
349.026
348.435
347.871
347.332
346.814
346.317
345.837
345.373
344.925
344.491
344.07
343.661
343.264
342.878
342.502
342.136
341.779
341.432
341.093
340.763
340.441
340.127
339.821
339.522
339.231
338.947
338.671
338.401
338.138
337.882
337.632
337.389
337.152
336.922
336.698
336.48
336.268
336.062
335.862
335.668
335.48
335.297
335.12
334.949
334.783
334.622
334.467
334.317
334.173
334.033
333.899
333.769
333.645
333.526
333.411
333.302
333.197
333.097
333.001
332.911
332.824
332.743
332.666
332.593
332.525
332.461
332.402
332.346
332.296
332.249
332.207
332.168
332.134
332.105
332.079
332.057
332.04
332.026
332.017
332.012
332.011
396.183
388.965
382.648
377.35
372.982
369.382
366.392
363.875
361.727
359.865
358.23
356.774
355.463
354.27
353.175
352.161
351.216
350.33
349.494
348.703
347.95
347.231
346.542
345.881
345.245
344.631
344.038
343.464
342.908
342.368
341.844
341.334
340.839
340.357
339.887
339.43
338.984
338.549
338.125
337.712
337.309
336.916
336.533
336.159
335.795
335.439
335.093
334.755
334.426
334.106
333.793
333.49
333.194
332.906
332.626
332.354
332.089
331.832
331.583
331.341
331.106
330.879
330.659
330.446
330.239
330.04
329.847
329.661
329.482
329.31
329.143
328.984
328.83
328.683
328.543
328.408
328.279
328.157
328.04
327.929
327.825
327.726
327.632
327.545
327.463
327.386
327.315
327.25
327.19
327.136
327.087
327.043
327.005
326.971
326.944
326.921
326.904
326.892
326.885
326.884
396.803
390.626
384.976
379.995
375.687
371.989
368.81
366.06
363.661
361.546
359.662
357.967
356.428
355.018
353.716
352.506
351.374
350.31
349.303
348.348
347.438
346.568
345.733
344.931
344.159
343.413
342.692
341.994
341.317
340.66
340.022
339.402
338.798
338.21
337.638
337.08
336.536
336.006
335.49
334.986
334.494
334.014
333.547
333.091
332.646
332.212
331.789
331.377
330.976
330.584
330.203
329.832
329.471
329.12
328.778
328.446
328.123
327.809
327.505
327.21
326.923
326.645
326.376
326.116
325.864
325.621
325.385
325.159
324.94
324.729
324.526
324.331
324.144
323.964
323.792
323.628
323.471
323.321
323.179
323.044
322.915
322.795
322.681
322.574
322.473
322.38
322.294
322.214
322.141
322.074
322.014
321.961
321.914
321.874
321.84
321.812
321.791
321.777
321.769
321.767
397.21
391.76
386.638
381.967
377.786
374.079
370.802
367.898
365.314
362.999
360.91
359.01
357.269
355.664
354.173
352.78
351.473
350.239
349.069
347.957
346.895
345.878
344.902
343.962
343.056
342.181
341.335
340.514
339.719
338.946
338.195
337.465
336.754
336.062
335.387
334.73
334.09
333.465
332.856
332.261
331.682
331.116
330.565
330.027
329.502
328.99
328.491
328.005
327.531
327.07
326.62
326.182
325.756
325.341
324.938
324.546
324.165
323.795
323.435
323.087
322.749
322.421
322.103
321.796
321.499
321.211
320.934
320.666
320.407
320.158
319.919
319.689
319.468
319.256
319.053
318.859
318.673
318.496
318.328
318.169
318.018
317.875
317.74
317.614
317.496
317.385
317.283
317.189
317.103
317.024
316.953
316.89
316.835
316.788
316.748
316.715
316.69
316.673
316.663
316.661
397.493
392.563
387.85
383.452
379.413
375.743
372.423
369.422
366.703
364.232
361.974
359.899
357.982
356.202
354.539
352.978
351.506
350.113
348.788
347.525
346.317
345.159
344.045
342.971
341.936
340.934
339.964
339.024
338.111
337.224
336.362
335.523
334.707
333.911
333.136
332.38
331.644
330.925
330.224
329.54
328.873
328.222
327.587
326.968
326.364
325.775
325.2
324.64
324.095
323.563
323.045
322.541
322.05
321.572
321.107
320.656
320.217
319.79
319.376
318.974
318.585
318.207
317.841
317.487
317.144
316.813
316.493
316.185
315.887
315.6
315.324
315.059
314.804
314.56
314.326
314.102
313.888
313.685
313.491
313.307
313.133
312.968
312.813
312.668
312.531
312.404
312.287
312.178
312.078
311.988
311.906
311.834
311.77
311.715
311.669
311.632
311.603
311.583
311.572
311.57
397.696
393.149
388.75
384.578
380.676
377.06
373.729
370.667
367.851
365.257
362.861
360.638
358.567
356.631
354.811
353.096
351.471
349.928
348.457
347.051
345.703
344.407
343.16
341.957
340.795
339.669
338.579
337.521
336.494
335.495
334.523
333.577
332.656
331.759
330.884
330.031
329.198
328.387
327.595
326.822
326.068
325.333
324.615
323.915
323.232
322.566
321.917
321.283
320.666
320.065
319.479
318.909
318.353
317.813
317.287
316.776
316.28
315.797
315.329
314.874
314.433
314.006
313.592
313.191
312.803
312.429
312.067
311.717
311.38
311.056
310.743
310.443
310.155
309.878
309.614
309.36
309.119
308.888
308.669
308.461
308.263
308.077
307.902
307.737
307.582
307.439
307.305
307.183
307.07
306.967
306.875
306.793
306.721
306.659
306.606
306.564
306.532
306.509
306.497
306.494
397.846
393.583
389.427
385.438
381.654
378.097
374.77
371.67
368.783
366.093
363.582
361.232
359.027
356.951
354.991
353.133
351.367
349.683
348.073
346.531
345.049
343.623
342.247
340.918
339.632
338.387
337.179
336.006
334.865
333.757
332.677
331.626
330.602
329.604
328.63
327.681
326.755
325.851
324.969
324.109
323.269
322.449
321.649
320.869
320.108
319.366
318.641
317.936
317.247
316.577
315.924
315.287
314.668
314.065
313.479
312.909
312.355
311.817
311.294
310.787
310.295
309.819
309.357
308.91
308.477
308.059
307.655
307.265
306.889
306.527
306.179
305.844
305.522
305.213
304.918
304.635
304.365
304.108
303.863
303.631
303.411
303.203
303.007
302.823
302.651
302.491
302.342
302.205
302.079
301.965
301.862
301.77
301.689
301.62
301.562
301.515
301.479
301.453
301.439
301.436
397.958
393.908
389.938
386.094
382.411
378.906
375.592
372.466
369.524
366.756
364.149
361.691
359.368
357.167
355.078
353.09
351.192
349.377
347.637
345.965
344.355
342.803
341.304
339.853
338.448
337.085
335.762
334.477
333.226
332.01
330.825
329.67
328.545
327.447
326.377
325.332
324.313
323.318
322.347
321.4
320.475
319.572
318.691
317.831
316.992
316.174
315.376
314.598
313.839
313.1
312.38
311.679
310.996
310.331
309.685
309.056
308.445
307.851
307.275
306.716
306.173
305.647
305.138
304.644
304.167
303.706
303.26
302.83
302.416
302.016
301.631
301.262
300.907
300.566
300.24
299.929
299.631
299.347
299.077
298.821
298.578
298.348
298.132
297.929
297.739
297.562
297.398
297.247
297.108
296.982
296.868
296.767
296.678
296.602
296.537
296.485
296.445
296.418
296.402
296.398
398.042
394.153
390.325
386.595
382.991
379.532
376.229
373.085
370.099
367.266
364.577
362.024
359.596
357.284
355.078
352.969
350.949
349.011
347.147
345.353
343.621
341.948
340.33
338.762
337.241
335.765
334.33
332.934
331.576
330.254
328.965
327.709
326.484
325.288
324.122
322.984
321.873
320.789
319.73
318.696
317.687
316.702
315.74
314.802
313.886
312.993
312.122
311.272
310.443
309.636
308.849
308.083
307.337
306.611
305.905
305.218
304.55
303.902
303.272
302.661
302.068
301.493
300.936
300.397
299.875
299.371
298.884
298.414
297.961
297.524
297.104
296.7
296.312
295.94
295.583
295.242
294.917
294.607
294.311
294.031
293.766
293.515
293.279
293.057
292.849
292.655
292.476
292.31
292.159
292.021
291.896
291.786
291.689
291.605
291.535
291.478
291.434
291.404
291.387
291.383
398.105
394.337
390.616
386.972
383.431
380.007
376.713
373.553
370.53
367.64
364.88
362.243
359.721
357.307
354.994
352.774
350.64
348.586
346.606
344.695
342.847
341.059
339.325
337.644
336.011
334.425
332.881
331.379
329.915
328.489
327.099
325.743
324.42
323.129
321.868
320.638
319.436
318.263
317.117
315.999
314.906
313.84
312.799
311.783
310.791
309.823
308.879
307.958
307.061
306.186
305.333
304.503
303.694
302.907
302.141
301.397
300.673
299.969
299.287
298.624
297.981
297.358
296.754
296.169
295.604
295.057
294.529
294.019
293.527
293.053
292.598
292.159
291.738
291.335
290.948
290.578
290.225
289.889
289.569
289.264
288.976
288.704
288.448
288.207
287.982
287.772
287.577
287.398
287.233
287.083
286.949
286.829
286.723
286.632
286.556
286.494
286.447
286.414
286.396
286.391
398.151
394.473
390.831
387.253
383.757
380.358
377.068
373.893
370.836
367.896
365.071
362.357
359.75
357.243
354.831
352.508
350.267
348.105
346.015
343.993
342.034
340.134
338.291
336.5
334.759
333.065
331.416
329.809
328.243
326.716
325.226
323.772
322.353
320.968
319.615
318.293
317.003
315.742
314.511
313.308
312.134
310.987
309.867
308.774
307.707
306.665
305.649
304.658
303.692
302.75
301.832
300.938
300.067
299.22
298.395
297.593
296.814
296.056
295.321
294.607
293.914
293.243
292.592
291.962
291.353
290.764
290.195
289.646
289.116
288.605
288.114
287.642
287.188
286.754
286.337
285.938
285.558
285.195
284.85
284.523
284.212
283.919
283.643
283.383
283.14
282.914
282.704
282.511
282.333
282.172
282.027
281.897
281.783
281.686
281.603
281.537
281.486
281.45
281.43
281.426
398.185
394.571
390.987
387.454
383.99
380.607
377.316
374.123
371.033
368.046
365.162
362.378
359.692
357.099
354.595
352.175
349.835
347.57
345.375
343.247
341.182
339.177
337.227
335.331
333.485
331.687
329.935
328.227
326.561
324.935
323.347
321.798
320.284
318.806
317.362
315.951
314.573
313.226
311.911
310.625
309.37
308.143
306.946
305.776
304.635
303.521
302.434
301.373
300.339
299.331
298.348
297.391
296.459
295.551
294.668
293.81
292.975
292.163
291.376
290.611
289.869
289.15
288.453
287.778
287.126
286.495
285.885
285.296
284.729
284.182
283.656
283.15
282.664
282.198
281.751
281.324
280.917
280.528
280.158
279.807
279.474
279.16
278.864
278.586
278.326
278.083
277.858
277.651
277.461
277.288
277.132
276.993
276.872
276.767
276.679
276.607
276.553
276.515
276.493
276.488
398.208
394.639
391.094
387.592
384.147
380.771
377.473
374.261
371.137
368.105
365.165
362.316
359.556
356.882
354.292
351.781
349.346
346.984
344.69
342.462
340.295
338.187
336.136
334.137
332.19
330.291
328.44
326.632
324.868
323.146
321.463
319.82
318.214
316.645
315.111
313.613
312.148
310.717
309.318
307.951
306.615
305.311
304.036
302.792
301.577
300.39
299.233
298.104
297.002
295.929
294.882
293.862
292.869
291.902
290.962
290.047
289.157
288.292
287.453
286.638
285.847
285.081
284.338
283.619
282.923
282.25
281.6
280.973
280.368
279.785
279.224
278.684
278.166
277.669
277.193
276.738
276.303
275.889
275.494
275.12
274.765
274.43
274.114
273.818
273.54
273.282
273.042
272.821
272.618
272.434
272.267
272.12
271.99
271.878
271.784
271.708
271.649
271.609
271.586
271.58
398.223
394.683
391.162
387.677
384.241
380.864
377.554
374.318
371.16
368.084
365.09
362.178
359.349
356.599
353.927
351.33
348.806
346.351
343.962
341.637
339.373
337.167
335.017
332.921
330.875
328.879
326.93
325.026
323.167
321.35
319.575
317.839
316.143
314.485
312.863
311.278
309.729
308.214
306.733
305.286
303.871
302.489
301.139
299.821
298.533
297.276
296.049
294.851
293.684
292.545
291.435
290.354
289.3
288.275
287.277
286.306
285.362
284.445
283.554
282.689
281.85
281.036
280.248
279.485
278.746
278.032
277.342
276.676
276.034
275.415
274.82
274.247
273.697
273.169
272.664
272.181
271.719
271.279
270.861
270.463
270.087
269.731
269.395
269.081
268.786
268.511
268.257
268.022
267.806
267.611
267.434
267.277
267.139
267.02
266.92
266.84
266.778
266.734
266.71
266.704
398.231
394.706
391.197
387.719
384.283
380.897
377.569
374.307
371.113
367.992
364.946
361.974
359.078
356.256
353.506
350.827
348.217
345.674
343.194
340.777
338.419
336.119
333.874
331.682
329.541
327.45
325.406
323.409
321.457
319.548
317.682
315.857
314.072
312.326
310.619
308.949
307.316
305.719
304.157
302.631
301.139
299.681
298.256
296.864
295.505
294.177
292.882
291.617
290.384
289.181
288.009
286.866
285.753
284.669
283.615
282.589
281.591
280.621
279.68
278.766
277.879
277.019
276.185
275.378
274.598
273.843
273.113
272.409
271.73
271.075
270.446
269.84
269.258
268.7
268.166
267.655
267.167
266.701
266.259
265.838
265.44
265.063
264.709
264.376
264.064
263.774
263.504
263.256
263.028
262.821
262.634
262.468
262.322
262.196
262.091
262.005
261.94
261.894
261.868
261.862
398.234
394.713
391.205
387.724
384.28
380.879
377.529
374.237
371.006
367.84
364.742
361.712
358.751
355.858
353.034
350.277
347.585
344.956
342.39
339.884
337.436
335.044
332.707
330.423
328.19
326.007
323.871
321.783
319.74
317.742
315.786
313.873
312.001
310.17
308.378
306.625
304.91
303.232
301.592
299.987
298.419
296.886
295.387
293.923
292.493
291.096
289.733
288.402
287.104
285.838
284.604
283.401
282.229
281.087
279.977
278.896
277.845
276.824
275.832
274.869
273.935
273.029
272.151
271.301
270.478
269.682
268.914
268.172
267.456
266.767
266.103
265.465
264.852
264.264
263.7
263.162
262.647
262.157
261.69
261.247
260.827
260.43
260.056
259.705
259.377
259.071
258.787
258.525
258.284
258.066
257.869
257.694
257.54
257.408
257.296
257.206
257.137
257.089
257.061
257.055
398.232
394.705
391.191
387.699
384.239
380.818
377.442
374.117
370.846
367.635
364.484
361.397
358.373
355.413
352.516
349.683
346.912
344.202
341.552
338.96
336.425
333.945
331.519
329.145
326.823
324.55
322.325
320.148
318.017
315.931
313.889
311.889
309.933
308.017
306.142
304.308
302.512
300.756
299.037
297.356
295.712
294.105
292.534
290.999
289.499
288.034
286.604
285.208
283.846
282.517
281.221
279.959
278.729
277.531
276.365
275.23
274.127
273.055
272.013
271.002
270.02
269.069
268.146
267.253
266.389
265.554
264.746
263.967
263.215
262.49
261.793
261.122
260.478
259.861
259.269
258.703
258.162
257.647
257.156
256.691
256.249
255.832
255.44
255.071
254.725
254.404
254.105
253.83
253.578
253.348
253.141
252.957
252.795
252.656
252.539
252.444
252.371
252.321
252.292
252.285
398.225
394.686
391.157
387.648
384.167
380.72
377.314
373.953
370.641
367.383
364.181
361.036
357.95
354.924
351.958
349.051
346.203
343.414
340.683
338.008
335.389
332.823
330.311
327.851
325.441
323.082
320.77
318.506
316.289
314.117
311.99
309.907
307.867
305.869
303.913
301.998
300.124
298.289
296.494
294.738
293.02
291.34
289.698
288.093
286.524
284.992
283.496
282.035
280.61
279.219
277.863
276.542
275.254
274
272.779
271.591
270.436
269.313
268.223
267.164
266.136
265.139
264.173
263.238
262.333
261.457
260.611
259.795
259.007
258.248
257.518
256.815
256.14
255.493
254.873
254.28
253.713
253.173
252.659
252.171
251.709
251.272
250.861
250.474
250.112
249.775
249.462
249.173
248.909
248.668
248.452
248.259
248.089
247.943
247.82
247.721
247.644
247.591
247.561
247.554
398.216
394.657
391.107
387.575
384.068
380.591
377.151
373.752
370.397
367.091
363.836
360.635
357.488
354.397
351.362
348.384
345.463
342.597
339.787
337.031
334.33
331.682
329.086
326.542
324.048
321.603
319.207
316.859
314.557
312.302
310.092
307.926
305.805
303.726
301.691
299.697
297.745
295.834
293.964
292.134
290.343
288.592
286.879
285.205
283.569
281.97
280.409
278.885
277.397
275.946
274.531
273.151
271.806
270.497
269.222
267.982
266.775
265.602
264.463
263.357
262.283
261.242
260.233
259.256
258.31
257.395
256.511
255.658
254.835
254.042
253.278
252.544
251.839
251.162
250.514
249.894
249.302
248.738
248.201
247.691
247.207
246.751
246.32
245.916
245.538
245.186
244.859
244.557
244.28
244.029
243.802
243.6
243.423
243.27
243.142
243.038
242.958
242.903
242.871
242.864
398.204
394.62
391.044
387.484
383.946
380.436
376.958
373.518
370.119
366.764
363.457
360.198
356.991
353.836
350.735
347.687
344.693
341.753
338.866
336.032
333.252
330.523
327.846
325.219
322.643
320.116
317.637
315.206
312.823
310.486
308.195
305.949
303.747
301.59
299.477
297.406
295.378
293.392
291.448
289.545
287.683
285.861
284.079
282.337
280.634
278.97
277.345
275.758
274.209
272.698
271.224
269.787
268.386
267.022
265.694
264.402
263.145
261.923
260.735
259.582
258.463
257.378
256.327
255.308
254.322
253.368
252.447
251.558
250.7
249.873
249.077
248.311
247.576
246.87
246.195
245.548
244.931
244.342
243.782
243.25
242.746
242.27
241.821
241.4
241.005
240.637
240.296
239.982
239.693
239.431
239.195
238.984
238.799
238.64
238.506
238.397
238.314
238.256
238.223
238.215
398.189
394.576
390.969
387.377
383.804
380.257
376.74
373.257
369.811
366.407
363.046
359.731
356.464
353.246
350.079
346.962
343.898
340.885
337.923
335.014
332.156
329.348
326.592
323.886
321.229
318.621
316.062
313.551
311.088
308.671
306.3
303.976
301.696
299.462
297.272
295.126
293.023
290.964
288.947
286.972
285.04
283.149
281.299
279.49
277.722
275.994
274.305
272.657
271.047
269.477
267.945
266.451
264.996
263.578
262.197
260.853
259.546
258.275
257.041
255.842
254.678
253.549
252.456
251.396
250.37
249.379
248.42
247.495
246.602
245.742
244.914
244.117
243.352
242.618
241.915
241.242
240.6
239.987
239.405
238.851
238.327
237.831
237.364
236.925
236.515
236.132
235.777
235.45
235.149
234.876
234.63
234.411
234.219
234.053
233.913
233.8
233.714
233.653
233.619
233.611
398.172
394.525
390.884
387.256
383.646
380.059
376.5
372.971
369.478
366.023
362.608
359.236
355.91
352.63
349.398
346.214
343.08
339.996
336.962
333.978
331.044
328.161
325.327
322.543
319.808
317.122
314.484
311.895
309.353
306.858
304.41
302.008
299.652
297.342
295.077
292.857
290.681
288.55
286.461
284.417
282.415
280.456
278.54
276.665
274.832
273.041
271.291
269.581
267.912
266.283
264.695
263.145
261.635
260.164
258.731
257.337
255.981
254.662
253.381
252.136
250.928
249.757
248.621
247.521
246.457
245.427
244.432
243.471
242.544
241.651
240.791
239.964
239.17
238.407
237.677
236.979
236.311
235.675
235.07
234.495
233.95
233.436
232.951
232.495
232.069
231.671
231.302
230.962
230.65
230.367
230.111
229.883
229.683
229.511
229.366
229.249
229.159
229.096
229.06
229.051
398.154
394.47
390.79
387.123
383.473
379.844
376.241
372.666
369.123
365.616
362.147
358.719
355.333
351.991
348.695
345.445
342.243
339.089
335.984
332.927
329.92
326.962
324.053
321.192
318.381
315.618
312.904
310.238
307.619
305.048
302.524
300.047
297.617
295.233
292.894
290.601
288.354
286.151
283.993
281.88
279.81
277.784
275.802
273.863
271.967
270.113
268.302
266.533
264.805
263.119
261.474
259.87
258.306
256.782
255.299
253.855
252.45
251.084
249.756
248.467
247.215
246.002
244.825
243.685
242.582
241.515
240.484
239.488
238.527
237.601
236.71
235.853
235.029
234.239
233.482
232.758
232.067
231.407
230.78
230.184
229.619
229.085
228.582
228.11
227.668
227.256
226.873
226.521
226.197
225.903
225.638
225.402
225.195
225.016
224.865
224.744
224.65
224.585
224.548
224.539
398.134
394.41
390.69
386.981
383.288
379.615
375.965
372.342
368.75
365.19
361.666
358.181
354.736
351.333
347.973
344.659
341.39
338.167
334.992
331.864
328.785
325.754
322.771
319.836
316.951
314.113
311.324
308.582
305.889
303.243
300.645
298.095
295.591
293.134
290.724
288.36
286.042
283.77
281.543
279.362
277.226
275.134
273.088
271.085
269.127
267.212
265.34
263.512
261.727
259.984
258.284
256.626
255.009
253.434
251.9
250.407
248.954
247.541
246.168
244.835
243.541
242.285
241.068
239.889
238.747
237.644
236.577
235.546
234.552
233.594
232.672
231.785
230.933
230.115
229.332
228.583
227.867
227.184
226.535
225.918
225.334
224.781
224.261
223.772
223.314
222.887
222.492
222.126
221.792
221.487
221.213
220.968
220.754
220.569
220.413
220.287
220.19
220.122
220.084
220.074
398.113
394.346
390.583
386.831
383.093
379.374
375.676
372.004
368.36
364.747
361.169
357.626
354.122
350.658
347.236
343.857
340.522
337.232
333.989
330.791
327.641
324.539
321.484
318.477
315.518
312.607
309.744
306.93
304.163
301.445
298.774
296.151
293.576
291.048
288.567
286.133
283.746
281.406
279.112
276.865
274.663
272.507
270.397
268.332
266.312
264.337
262.407
260.521
258.679
256.881
255.126
253.415
251.746
250.12
248.537
246.995
245.495
244.036
242.619
241.242
239.905
238.608
237.351
236.133
234.954
233.814
232.712
231.648
230.621
229.631
228.678
227.762
226.881
226.037
225.227
224.453
223.714
223.008
222.337
221.7
221.096
220.525
219.987
219.482
219.009
218.568
218.159
217.781
217.435
217.121
216.837
216.584
216.362
216.171
216.01
215.879
215.779
215.709
215.67
215.66
398.09
394.279
390.471
386.674
382.889
379.122
375.376
371.653
367.957
364.29
360.656
357.057
353.494
349.97
346.485
343.043
339.643
336.287
332.976
329.71
326.491
323.318
320.193
317.115
314.084
311.102
308.168
305.281
302.443
299.653
296.912
294.218
291.572
288.975
286.425
283.923
281.468
279.061
276.701
274.389
272.123
269.904
267.731
265.605
263.525
261.491
259.503
257.56
255.662
253.809
252.001
250.237
248.518
246.842
245.209
243.62
242.073
240.57
239.108
237.688
236.309
234.972
233.676
232.42
231.204
230.028
228.891
227.793
226.734
225.713
224.73
223.785
222.876
222.005
221.17
220.371
219.608
218.88
218.187
217.53
216.907
216.317
215.762
215.241
214.753
214.298
213.876
213.486
213.129
212.804
212.511
212.25
212.021
211.824
211.658
211.523
211.42
211.347
211.306
211.296
398.067
394.21
390.355
386.51
382.678
378.862
375.065
371.291
367.542
363.822
360.132
356.475
352.854
349.269
345.724
342.218
338.754
335.333
331.956
328.623
325.336
322.095
318.9
315.752
312.652
309.6
306.595
303.639
300.73
297.871
295.059
292.296
289.582
286.916
284.299
281.73
279.209
276.736
274.312
271.935
269.606
267.325
265.092
262.906
260.766
258.674
256.629
254.63
252.678
250.771
248.91
247.095
245.325
243.6
241.919
240.283
238.691
237.142
235.637
234.175
232.756
231.378
230.043
228.75
227.497
226.286
225.115
223.984
222.893
221.841
220.828
219.854
218.918
218.021
217.16
216.337
215.551
214.801
214.087
213.41
212.767
212.16
211.588
211.051
210.548
210.079
209.644
209.242
208.874
208.539
208.238
207.969
207.732
207.529
207.358
207.219
207.112
207.038
206.995
206.984
398.043
394.138
390.236
386.342
382.461
378.594
374.747
370.92
367.118
363.343
359.598
355.884
352.204
348.56
344.953
341.386
337.858
334.373
330.931
327.532
324.178
320.869
317.607
314.391
311.222
308.101
305.028
302.003
299.026
296.098
293.218
290.388
287.606
284.873
282.19
279.555
276.969
274.432
271.944
269.505
267.114
264.772
262.479
260.234
258.037
255.888
253.786
251.732
249.726
247.767
245.854
243.988
242.169
240.395
238.667
236.985
235.348
233.756
232.208
230.704
229.244
227.828
226.454
225.124
223.835
222.589
221.385
220.221
219.099
218.016
216.974
215.972
215.009
214.085
213.2
212.353
211.544
210.772
210.038
209.34
208.679
208.055
207.466
206.913
206.395
205.912
205.464
205.051
204.672
204.328
204.017
203.74
203.497
203.287
203.111
202.968
202.858
202.781
202.737
202.726
398.019
394.065
390.113
386.17
382.238
378.321
374.421
370.543
366.687
362.857
359.056
355.285
351.547
347.843
344.176
340.547
336.957
333.409
329.902
326.438
323.019
319.644
316.315
313.033
309.797
306.608
303.468
300.375
297.331
294.336
291.39
288.493
285.645
282.847
280.098
277.399
274.75
272.15
269.6
267.099
264.648
262.246
259.894
257.591
255.337
253.132
250.976
248.868
246.808
244.797
242.834
240.918
239.05
237.229
235.455
233.727
232.046
230.41
228.82
227.276
225.776
224.321
222.91
221.543
220.219
218.939
217.701
216.506
215.352
214.24
213.169
212.139
211.15
210.2
209.29
208.42
207.588
206.795
206.04
205.323
204.643
204.001
203.396
202.827
202.295
201.799
201.338
200.914
200.524
200.17
199.85
199.566
199.316
199.1
198.919
198.771
198.658
198.579
198.534
198.523
397.994
393.99
389.988
385.994
382.012
378.043
374.091
370.159
366.249
362.364
358.507
354.679
350.883
347.121
343.394
339.704
336.053
332.442
328.872
325.344
321.86
318.421
315.027
311.678
308.377
305.122
301.916
298.757
295.648
292.587
289.575
286.613
283.701
280.839
278.026
275.264
272.552
269.891
267.28
264.719
262.208
259.748
257.338
254.978
252.668
250.408
248.198
246.037
243.926
241.864
239.85
237.886
235.97
234.102
232.282
230.51
228.785
227.107
225.476
223.891
222.353
220.86
219.412
218.009
216.65
215.336
214.066
212.839
211.655
210.513
209.414
208.357
207.341
206.366
205.432
204.538
203.684
202.87
202.095
201.359
200.661
200.002
199.38
198.796
198.25
197.74
197.267
196.831
196.431
196.067
195.739
195.447
195.19
194.968
194.782
194.631
194.515
194.433
194.387
194.375
397.969
393.914
389.861
385.816
381.782
377.761
373.756
369.771
365.807
361.867
357.954
354.069
350.215
346.395
342.608
338.858
335.146
331.473
327.841
324.251
320.704
317.201
313.742
310.33
306.964
303.645
300.373
297.15
293.976
290.851
287.776
284.75
281.774
278.849
275.975
273.151
270.378
267.656
264.985
262.365
259.796
257.278
254.812
252.396
250.031
247.717
245.454
243.241
241.079
238.967
236.905
234.892
232.929
231.016
229.151
227.335
225.567
223.848
222.176
220.552
218.975
217.444
215.96
214.522
213.129
211.782
210.479
209.221
208.007
206.837
205.71
204.625
203.584
202.584
201.626
200.709
199.834
198.999
198.204
197.449
196.733
196.057
195.419
194.82
194.26
193.737
193.252
192.804
192.394
192.021
191.684
191.384
191.12
190.893
190.702
190.547
190.428
190.344
190.296
190.284
397.943
393.837
389.733
385.636
381.55
377.476
373.419
369.379
365.361
361.366
357.397
353.456
349.545
345.666
341.821
338.012
334.239
330.506
326.812
323.16
319.551
315.985
312.464
308.988
305.559
302.176
298.842
295.556
292.318
289.13
285.992
282.904
279.866
276.879
273.944
271.059
268.227
265.445
262.716
260.038
257.412
254.838
252.316
249.846
247.427
245.06
242.745
240.482
238.269
236.108
233.998
231.938
229.929
227.97
226.062
224.203
222.393
220.633
218.921
217.258
215.643
214.075
212.556
211.083
209.657
208.277
206.943
205.654
204.41
203.212
202.057
200.946
199.879
198.855
197.874
196.935
196.037
195.182
194.367
193.594
192.861
192.168
191.514
190.901
190.326
189.79
189.293
188.835
188.414
188.031
187.686
187.379
187.109
186.876
186.68
186.521
186.398
186.313
186.264
186.251
397.917
393.759
389.603
385.455
381.316
377.19
373.079
368.986
364.913
360.863
356.839
352.841
348.873
344.937
341.034
337.165
333.334
329.54
325.786
322.074
318.403
314.776
311.193
307.655
304.163
300.719
297.322
293.974
290.674
287.425
284.225
281.076
277.978
274.931
271.935
268.991
266.1
263.261
260.474
257.739
255.057
252.428
249.852
247.328
244.857
242.438
240.072
237.758
235.497
233.287
231.13
229.024
226.97
224.967
223.015
221.114
219.263
217.462
215.712
214.01
212.358
210.755
209.2
207.693
206.234
204.822
203.457
202.138
200.866
199.639
198.457
197.321
196.228
195.18
194.176
193.215
192.296
191.42
190.587
189.795
189.044
188.335
187.666
187.038
186.45
185.901
185.392
184.923
184.492
184.1
183.747
183.432
183.156
182.917
182.716
182.553
182.428
182.34
182.29
182.277
397.891
393.682
389.473
385.272
381.081
376.902
372.738
368.591
364.464
360.359
356.279
352.226
348.202
344.208
340.247
336.321
332.43
328.578
324.765
320.992
317.261
313.573
309.929
306.331
302.779
299.273
295.815
292.406
289.046
285.736
282.476
279.267
276.109
273.003
269.949
266.948
263.999
261.102
258.259
255.469
252.733
250.049
247.42
244.843
242.32
239.851
237.435
235.072
232.763
230.506
228.302
226.151
224.053
222.006
220.012
218.069
216.178
214.338
212.549
210.81
209.121
207.483
205.893
204.353
202.861
201.418
200.022
198.674
197.373
196.119
194.911
193.749
192.632
191.56
190.533
189.55
188.611
187.715
186.863
186.053
185.285
184.56
183.876
183.233
182.632
182.071
181.55
181.07
180.629
180.228
179.867
179.545
179.262
179.018
178.812
178.645
178.517
178.427
178.376
178.362
397.865
393.603
389.343
385.089
380.845
376.613
372.396
368.195
364.014
359.855
355.72
351.611
347.531
343.481
339.463
335.479