/*--------------------------------*- C++ -*----------------------------------*\
| =========                 |                                                 |
| \\      /  F ield         | OpenFOAM: The Open Source CFD Toolbox           |
|  \\    /   O peration     | Version:  2406                                  |
|   \\  /    A nd           | Website:  www.openfoam.com                      |
|    \\/     M anipulation  |                                                 |
\*---------------------------------------------------------------------------*/
FoamFile
{
    version     2.0;
    format      ascii;
    arch        "LSB;label=32;scalar=64";
    class       volScalarField;
    location    "9";
    object      p;
}
// * * * * * * * * * * * * * * * * * * * * * * * * * * * * * * * * * * * * * //

dimensions      [0 2 -2 0 0 0 0];

internalField   nonuniform List<scalar> 
1176
(
0.79699938
0.79702225
0.79704592
0.79705358
0.79702205
0.79692736
0.79677013
0.79658396
0.79640476
0.7962376
0.79608297
0.79598736
0.79598736
0.79608297
0.79623759
0.79640474
0.79658394
0.79677012
0.79692735
0.79702205
0.79705359
0.79704593
0.79702227
0.7969994
0.77385096
0.773804
0.77375624
0.77373934
0.77380184
0.7740042
0.77436952
0.77483393
0.77526479
0.77555089
0.77567028
0.77570454
0.77570454
0.77567028
0.77555088
0.77526477
0.77483391
0.77436949
0.77400416
0.7738018
0.77373929
0.77375618
0.77380393
0.77385088
0.75676623
0.75678824
0.75680803
0.75680611
0.75674705
0.75658588
0.75631411
0.75598616
0.75567995
0.75546716
0.75535636
0.75530754
0.75530754
0.75535636
0.75546716
0.75567995
0.75598617
0.75631412
0.75658588
0.75674706
0.75680613
0.75680804
0.75678826
0.75676625
0.74009435
0.74010347
0.74011553
0.74013192
0.74015447
0.74017204
0.74013981
0.74000639
0.73977428
0.73950172
0.73927751
0.73915701
0.73915702
0.73927752
0.73950172
0.73977428
0.74000639
0.74013979
0.74017202
0.74015445
0.7401319
0.7401155
0.74010344
0.74009432
0.72367532
0.72367927
0.72368426
0.72369032
0.72370002
0.72372029
0.72375647
0.72379799
0.72381966
0.72379578
0.72373367
0.72368103
0.72368104
0.72373367
0.72379579
0.72381966
0.72379799
0.72375647
0.72372029
0.72370001
0.7236903
0.72368424
0.72367924
0.72367529
0.70721368
0.70721609
0.70721933
0.70722337
0.70722828
0.70723511
0.70724928
0.70728059
0.70733058
0.70738783
0.70743054
0.7074472
0.7074472
0.70743055
0.70738784
0.70733059
0.70728059
0.70724928
0.70723511
0.70722828
0.70722337
0.70721932
0.70721608
0.70721366
0.69080789
0.69081002
0.69081283
0.69081626
0.69082015
0.69082367
0.69082573
0.69082791
0.69083645
0.69085368
0.69087158
0.6908833
0.69088331
0.69087159
0.69085369
0.69083646
0.6908279
0.69082573
0.69082366
0.69082014
0.69081625
0.69081282
0.69081001
0.69080787
0.67442803
0.67442979
0.67443212
0.67443504
0.67443871
0.67444308
0.67444753
0.67445069
0.67445192
0.67445354
0.67445058
0.67444808
0.67444808
0.67445059
0.67445355
0.67445193
0.67445069
0.67444753
0.67444308
0.67443871
0.67443503
0.67443211
0.67442978
0.67442803
0.65807376
0.65807522
0.65807715
0.65807956
0.65808258
0.65808636
0.65809141
0.65809845
0.65810714
0.65811716
0.65812493
0.65812852
0.65812853
0.65812494
0.65811717
0.65810714
0.65809846
0.65809141
0.65808636
0.65808258
0.65807956
0.65807715
0.65807523
0.65807377
0.64173609
0.6417373
0.6417389
0.64174094
0.64174351
0.64174668
0.64175084
0.64175723
0.64176739
0.64178053
0.64179485
0.64180416
0.64180416
0.64179486
0.64178053
0.6417674
0.64175724
0.64175085
0.64174668
0.64174351
0.64174094
0.64173891
0.6417373
0.6417361
0.62541174
0.62541276
0.62541414
0.62541588
0.62541809
0.62542082
0.62542422
0.62542906
0.62543692
0.62544758
0.62546014
0.62546928
0.62546928
0.62546015
0.62544759
0.62543693
0.62542906
0.62542422
0.62542082
0.6254181
0.62541588
0.62541414
0.62541276
0.62541173
0.60909829
0.60909918
0.60910037
0.60910189
0.60910383
0.60910623
0.60910919
0.60911321
0.60911942
0.60912808
0.60913865
0.6091461
0.6091461
0.60913865
0.60912809
0.60911942
0.60911321
0.6091092
0.60910624
0.60910384
0.6091019
0.60910037
0.60909918
0.60909828
0.59279412
0.5927949
0.59279595
0.5927973
0.59279901
0.59280114
0.59280378
0.59280732
0.59281272
0.59282047
0.59283016
0.59283684
0.59283684
0.59283016
0.59282047
0.59281272
0.59280732
0.59280378
0.59280115
0.59279902
0.5927973
0.59279595
0.59279489
0.5927941
0.57649793
0.57649862
0.57649955
0.57650075
0.57650228
0.57650419
0.57650654
0.57650967
0.57651445
0.57652142
0.57653008
0.57653617
0.57653617
0.57653008
0.57652142
0.57651445
0.57650967
0.57650654
0.57650419
0.57650228
0.57650075
0.57649954
0.5764986
0.5764979
0.56020867
0.5602093
0.56021014
0.56021121
0.56021259
0.56021431
0.56021641
0.56021917
0.56022333
0.56022946
0.56023699
0.56024239
0.56024239
0.56023699
0.56022946
0.56022333
0.56021917
0.56021641
0.56021431
0.56021259
0.56021121
0.56021013
0.56020928
0.56020865
0.54392556
0.54392613
0.54392689
0.54392787
0.54392912
0.54393067
0.54393257
0.54393502
0.54393866
0.54394403
0.54395057
0.54395536
0.54395536
0.54395057
0.54394404
0.54393866
0.54393502
0.54393257
0.54393067
0.54392912
0.54392786
0.54392688
0.54392612
0.54392555
0.52764794
0.52764846
0.52764916
0.52765005
0.5276512
0.52765261
0.52765433
0.52765653
0.52765975
0.52766451
0.52767024
0.52767453
0.52767453
0.52767024
0.52766452
0.52765976
0.52765653
0.52765433
0.52765261
0.52765119
0.52765005
0.52764915
0.52764846
0.52764794
0.51137527
0.51137575
0.51137639
0.51137721
0.51137826
0.51137956
0.51138112
0.51138311
0.51138598
0.51139023
0.51139528
0.51139915
0.51139915
0.51139529
0.51139024
0.51138599
0.51138311
0.51138112
0.51137955
0.51137825
0.51137721
0.51137639
0.51137576
0.51137528
0.49510708
0.49510752
0.49510812
0.49510887
0.49510984
0.49511103
0.49511247
0.49511427
0.49511685
0.49512065
0.49512515
0.49512864
0.49512864
0.49512515
0.49512066
0.49511685
0.49511427
0.49511247
0.49511103
0.49510983
0.49510887
0.49510812
0.49510754
0.4951071
0.47884298
0.47884339
0.47884394
0.47884464
0.47884553
0.47884663
0.47884795
0.47884959
0.47885192
0.47885534
0.47885938
0.47886253
0.47886254
0.47885938
0.47885535
0.47885192
0.4788496
0.47884795
0.47884663
0.47884553
0.47884464
0.47884395
0.47884341
0.47884301
0.46258263
0.462583
0.46258351
0.46258416
0.46258498
0.462586
0.46258722
0.46258873
0.46259083
0.46259393
0.46259758
0.46260044
0.46260045
0.46259758
0.46259393
0.46259083
0.46258873
0.46258722
0.462586
0.46258498
0.46258416
0.46258352
0.46258302
0.46258266
0.44632571
0.44632606
0.44632653
0.44632712
0.44632789
0.44632883
0.44632996
0.44633135
0.44633327
0.44633608
0.4463394
0.44634201
0.44634201
0.4463394
0.44633609
0.44633327
0.44633136
0.44632997
0.44632884
0.44632789
0.44632713
0.44632654
0.44632608
0.44632573
0.43007197
0.43007229
0.43007272
0.43007327
0.43007398
0.43007486
0.43007591
0.43007719
0.43007894
0.43008152
0.43008455
0.43008694
0.43008694
0.43008455
0.43008151
0.43007894
0.4300772
0.43007591
0.43007487
0.43007399
0.43007328
0.43007273
0.4300723
0.43007198
0.41382115
0.41382145
0.41382184
0.41382236
0.41382302
0.41382383
0.41382481
0.413826
0.41382761
0.41382997
0.41383275
0.41383494
0.41383494
0.41383275
0.41382996
0.41382761
0.413826
0.41382482
0.41382384
0.41382303
0.41382237
0.41382185
0.41382146
0.41382116
0.39757305
0.39757332
0.39757369
0.39757417
0.39757478
0.39757555
0.39757646
0.39757756
0.39757905
0.39758121
0.39758378
0.39758579
0.39758579
0.39758378
0.39758121
0.39757904
0.39757757
0.39757647
0.39757556
0.39757479
0.39757418
0.3975737
0.39757333
0.39757305
0.38132747
0.38132773
0.38132807
0.38132851
0.38132908
0.3813298
0.38133065
0.38133168
0.38133305
0.38133504
0.38133742
0.38133927
0.38133927
0.38133742
0.38133504
0.38133304
0.38133168
0.38133066
0.38132981
0.3813291
0.38132852
0.38132807
0.38132773
0.38132747
0.36508424
0.36508447
0.36508479
0.3650852
0.36508574
0.36508641
0.36508721
0.36508817
0.36508943
0.36509128
0.36509349
0.36509519
0.36509519
0.36509348
0.36509127
0.36508943
0.36508817
0.36508721
0.36508642
0.36508575
0.36508521
0.3650848
0.36508447
0.36508423
0.34884319
0.34884341
0.34884371
0.3488441
0.3488446
0.34884523
0.34884598
0.34884687
0.34884804
0.34884975
0.3488518
0.34885338
0.34885338
0.3488518
0.34884975
0.34884804
0.34884687
0.34884598
0.34884523
0.34884461
0.3488441
0.34884371
0.3488434
0.34884318
0.33260418
0.33260439
0.33260467
0.33260504
0.33260551
0.3326061
0.3326068
0.33260764
0.33260873
0.33261031
0.33261223
0.33261369
0.33261369
0.33261223
0.33261031
0.33260873
0.33260764
0.3326068
0.33260611
0.33260552
0.33260505
0.33260468
0.33260439
0.33260418
0.31636708
0.31636728
0.31636755
0.3163679
0.31636835
0.3163689
0.31636955
0.31637034
0.31637135
0.31637283
0.31637461
0.31637597
0.31637597
0.31637461
0.31637283
0.31637135
0.31637034
0.31636956
0.3163689
0.31636835
0.3163679
0.31636756
0.31636729
0.31636709
0.30013178
0.30013197
0.30013223
0.30013256
0.30013298
0.3001335
0.30013411
0.30013484
0.30013579
0.30013717
0.30013884
0.30014011
0.30014011
0.30013884
0.30013717
0.3001358
0.30013484
0.30013411
0.30013349
0.30013298
0.30013256
0.30013223
0.30013198
0.30013179
0.28389815
0.28389834
0.28389858
0.2838989
0.28389929
0.28389978
0.28390036
0.28390104
0.28390193
0.28390321
0.28390478
0.28390596
0.28390596
0.28390478
0.28390321
0.28390194
0.28390105
0.28390036
0.28389978
0.28389929
0.2838989
0.28389859
0.28389835
0.28389818
0.26766611
0.26766628
0.26766652
0.26766681
0.26766719
0.26766765
0.26766819
0.26766883
0.26766967
0.26767086
0.26767233
0.26767344
0.26767344
0.26767233
0.26767087
0.26766967
0.26766884
0.26766819
0.26766765
0.26766719
0.26766682
0.26766653
0.26766631
0.26766614
0.25143555
0.25143571
0.25143593
0.25143622
0.25143657
0.251437
0.25143751
0.25143812
0.2514389
0.25144002
0.25144139
0.25144243
0.25144243
0.25144139
0.25144002
0.2514389
0.25143812
0.25143751
0.251437
0.25143657
0.25143622
0.25143595
0.25143574
0.25143558
0.23520638
0.23520654
0.23520675
0.23520701
0.23520734
0.23520775
0.23520823
0.2352088
0.23520954
0.23521059
0.23521188
0.23521285
0.23521285
0.23521188
0.23521059
0.23520954
0.23520881
0.23520824
0.23520775
0.23520735
0.23520702
0.23520676
0.23520657
0.23520642
0.21897853
0.21897868
0.21897887
0.21897912
0.21897943
0.21897982
0.21898027
0.21898081
0.2189815
0.21898248
0.2189837
0.2189846
0.2189846
0.21898369
0.21898248
0.2189815
0.21898081
0.21898028
0.21897982
0.21897944
0.21897913
0.21897889
0.21897871
0.21897857
0.20275192
0.20275205
0.20275223
0.20275246
0.20275276
0.20275312
0.20275355
0.20275406
0.20275471
0.20275563
0.20275678
0.20275763
0.20275763
0.20275677
0.20275563
0.20275471
0.20275406
0.20275356
0.20275313
0.20275276
0.20275247
0.20275225
0.20275207
0.20275194
0.18652647
0.18652659
0.18652676
0.18652697
0.18652725
0.18652759
0.186528
0.18652848
0.18652909
0.18652995
0.18653103
0.18653182
0.18653182
0.18653102
0.18652995
0.18652909
0.18652848
0.18652801
0.1865276
0.18652726
0.18652698
0.18652677
0.18652661
0.18652648
0.17030211
0.17030222
0.17030237
0.17030257
0.17030283
0.17030316
0.17030354
0.170304
0.17030457
0.17030539
0.1703064
0.17030715
0.17030715
0.17030639
0.17030538
0.17030457
0.170304
0.17030355
0.17030317
0.17030285
0.17030259
0.17030239
0.17030223
0.17030211
0.15407879
0.15407889
0.15407903
0.15407921
0.15407946
0.15407977
0.15408013
0.15408056
0.1540811
0.15408186
0.1540828
0.1540835
0.15408349
0.15408279
0.15408185
0.15408109
0.15408056
0.15408014
0.15407978
0.15407947
0.15407923
0.15407904
0.15407889
0.15407878
0.13785643
0.13785653
0.13785666
0.13785682
0.13785705
0.13785734
0.13785769
0.13785809
0.1378586
0.13785932
0.13786021
0.13786087
0.13786086
0.1378602
0.13785931
0.1378586
0.13785809
0.1378577
0.13785736
0.13785707
0.13785684
0.13785665
0.13785651
0.13785641
0.12163501
0.1216351
0.12163521
0.12163537
0.12163559
0.12163586
0.12163619
0.12163657
0.12163704
0.1216377
0.12163851
0.12163911
0.12163911
0.12163851
0.12163769
0.12163704
0.12163657
0.12163619
0.12163587
0.1216356
0.12163538
0.12163521
0.12163507
0.12163497
0.10541443
0.10541451
0.10541462
0.10541477
0.10541497
0.10541523
0.10541554
0.10541589
0.10541633
0.10541695
0.10541771
0.10541827
0.10541827
0.10541772
0.10541695
0.10541634
0.1054159
0.10541554
0.10541524
0.10541498
0.10541477
0.1054146
0.10541448
0.10541438
0.089194705
0.089194783
0.089194891
0.089195034
0.089195228
0.089195473
0.089195761
0.089196091
0.089196491
0.08919703
0.089197684
0.089198154
0.089198157
0.089197692
0.08919704
0.089196498
0.089196093
0.089195759
0.089195469
0.089195224
0.089195026
0.089194871
0.08919475
0.08919466
0.072975687
0.072975763
0.072975868
0.072976006
0.072976193
0.072976427
0.072976702
0.072977015
0.072977387
0.07297788
0.072978464
0.072978865
0.07297887
0.072978477
0.072977895
0.072977398
0.072977017
0.072976697
0.072976417
0.072976181
0.072975992
0.072975846
0.072975733
0.07297565
0.05675755
0.056757629
0.056757735
0.056757871
0.056758047
0.056758262
0.056758513
0.056758793
0.056759108
0.05675948
0.056759857
0.056760076
0.056760082
0.056759873
0.056759498
0.05675912
0.056758794
0.056758504
0.056758248
0.056758029
0.056757852
0.056757713
0.056757605
0.056757524
0.040539745
0.040539818
0.040539919
0.040540052
0.040540228
0.040540452
0.040540714
0.040541001
0.040541321
0.040541723
0.040542191
0.040542503
0.040542509
0.040542207
0.040541741
0.040541332
0.040541001
0.040540704
0.040540435
0.040540208
0.04054003
0.0405399
0.040539803
0.040539733
0.024323454
0.024323542
0.024323657
0.024323791
0.024323941
0.024324102
0.024324273
0.024324452
0.024324613
0.024324687
0.024324599
0.024324372
0.024324377
0.024324613
0.024324702
0.024324622
0.024324452
0.024324265
0.024324089
0.024323926
0.024323779
0.024323653
0.024323548
0.024323468
0.0081053591
0.0081054336
0.0081055311
0.0081056568
0.0081058188
0.0081060176
0.0081062368
0.0081064743
0.0081068498
0.0081076831
0.0081091605
0.00811053
0.0081105328
0.0081091672
0.00810769
0.0081068537
0.0081064741
0.0081062326
0.0081060096
0.0081058082
0.008105647
0.0081055279
0.0081054379
0.0081053706
)
;

boundaryField
{
    INLET
    {
        type            zeroGradient;
    }
    OUTLET
    {
        type            fixedValue;
        value           uniform 0;
    }
    WALL
    {
        type            zeroGradient;
    }
    frontAndBackPlanes
    {
        type            empty;
    }
}


// ************************************************************************* //
