/*--------------------------------*- C++ -*----------------------------------*\
| =========                 |                                                 |
| \\      /  F ield         | OpenFOAM: The Open Source CFD Toolbox           |
|  \\    /   O peration     | Version:  2406                                  |
|   \\  /    A nd           | Website:  www.openfoam.com                      |
|    \\/     M anipulation  |                                                 |
\*---------------------------------------------------------------------------*/
FoamFile
{
    version     2.0;
    format      ascii;
    arch        "LSB;label=32;scalar=64";
    class       surfaceScalarField;
    location    "9";
    object      phi;
}
// * * * * * * * * * * * * * * * * * * * * * * * * * * * * * * * * * * * * * //

dimensions      [0 3 -1 0 0 0 0];

oriented        oriented;

internalField   nonuniform List<scalar> 
2279
(
2.3621806e-08
1.0148926e-05
2.0510587e-07
4.9823748e-05
6.9332882e-07
0.00014252872
1.5784839e-06
0.00034353081
2.6788635e-06
0.00075378088
3.3473143e-06
0.0015415573
3.0435486e-06
0.0029497096
2.151712e-06
0.005249171
1.4318247e-06
0.008582269
9.8960916e-07
0.012685995
5.1268148e-07
0.016666385
1.3770394e-11
0.01918202
-5.1265455e-07
0.01918202
-9.89582e-07
0.016666385
-1.4318038e-06
0.012685995
-2.1517273e-06
0.0085822691
-3.043618e-06
0.005249171
-3.3474429e-06
0.0029497096
-2.6790371e-06
0.0015415573
-1.5786691e-06
0.0007537809
-6.9348188e-07
0.00034353082
-2.0520326e-07
0.00014252872
-2.3663532e-08
4.982375e-05
1.0148926e-05
-9.5232355e-08
1.0244174e-05
-5.3790988e-07
5.0266438e-05
-1.6229636e-06
0.00014361377
-3.5389223e-06
0.00034544676
-5.9201681e-06
0.0007561621
-7.4054905e-06
0.0015430426
-6.5847096e-06
0.0029488888
-3.9361334e-06
0.0052465224
-1.3883596e-06
0.0085797212
-6.5093065e-08
0.012684671
2.4242948e-07
0.016666078
2.1628685e-11
0.019182263
-2.4238267e-07
0.019182263
6.5147569e-08
0.016666078
1.3884195e-06
0.012684671
3.9362106e-06
0.0085797212
6.5848209e-06
0.0052465223
7.4056529e-06
0.0029488887
5.9203875e-06
0.0015430426
3.5391836e-06
0.00075616207
1.6232202e-06
0.00034544674
5.3809458e-07
0.00014361377
9.5322775e-08
5.0266435e-05
1.0244173e-05
5.0171681e-08
1.0194034e-05
2.6340465e-07
5.0053232e-05
7.491807e-07
0.00014312801
1.5315144e-06
0.0003446644
2.3366815e-06
0.00075535689
2.5476645e-06
0.0015428316
1.8390979e-06
0.0029495973
9.7569234e-07
0.0052473857
6.7698784e-07
0.0085800199
6.718158e-07
0.012684676
4.8418901e-07
0.016666265
2.2428073e-11
0.019182747
-4.8414184e-07
0.019182747
-6.7176471e-07
0.016666265
-6.7693939e-07
0.012684676
-9.7563968e-07
0.0085800199
-1.839059e-06
0.0052473858
-2.5476619e-06
0.0029495973
-2.3367281e-06
0.0015428316
-1.5315995e-06
0.00075535689
-7.492775e-07
0.0003446644
-2.634768e-07
0.00014312801
-5.0207294e-08
5.0053232e-05
1.0194034e-05
1.9633292e-08
1.0174447e-05
1.1193726e-07
4.9960968e-05
3.6139421e-07
0.00014287857
9.0513467e-07
0.00034412063
1.8717056e-06
0.00075439026
3.0948372e-06
0.0015416084
3.8987269e-06
0.0029487934
3.728564e-06
0.0052475559
2.9242339e-06
0.0085808242
1.9734032e-06
0.012685627
1.0127949e-06
0.016667226
1.918723e-11
0.019183759
-1.0127525e-06
0.019183759
-1.9733508e-06
0.016667226
-2.9241628e-06
0.012685627
-3.7284709e-06
0.0085808242
-3.8986149e-06
0.0052475559
-3.0947172e-06
0.0029487934
-1.871581e-06
0.0015416084
-9.0500849e-07
0.00075439026
-3.6127606e-07
0.00034412063
-1.1185375e-07
0.00014287857
-1.9592176e-08
4.9960968e-05
1.0174447e-05
8.1352158e-09
1.0166363e-05
4.7238939e-08
4.992191e-05
1.5506998e-07
0.00014277076
3.9856291e-07
0.00034387711
8.7984974e-07
0.00075390892
1.7015346e-06
0.0015407866
2.7512838e-06
0.0029477436
3.4623799e-06
0.0052468447
3.4708953e-06
0.0085808156
2.8007209e-06
0.012686297
1.5505428e-06
0.016668476
2.0018547e-11
0.01918531
-1.550497e-06
0.01918531
-2.8006597e-06
0.016668476
-3.4708113e-06
0.012686297
-3.4622725e-06
0.0085808156
-2.7511603e-06
0.0052468448
-1.7013937e-06
0.0029477436
-8.7966926e-07
0.0015407866
-3.9833623e-07
0.00075390891
-1.5482995e-07
0.0003438771
-4.7059234e-08
0.00014277076
-8.0437165e-09
4.992191e-05
1.0166363e-05
4.9778659e-09
1.0161427e-05
2.8779212e-08
4.9898146e-05
9.5224471e-08
0.00014270434
2.4930129e-07
0.00034372301
5.6366373e-07
0.00075359451
1.1214036e-06
0.0015402288
1.9184812e-06
0.0029469465
2.6588516e-06
0.0052461043
2.8930936e-06
0.0085805813
2.478801e-06
0.012686712
1.4344529e-06
0.01666952
1.8612148e-11
0.019186744
-1.4344075e-06
0.019186744
-2.4787331e-06
0.01666952
-2.8929962e-06
0.012686712
-2.6587359e-06
0.0085805814
-1.9183716e-06
0.0052461044
-1.121309e-06
0.0029469465
-5.6356804e-07
0.0015402289
-2.4918991e-07
0.00075359451
-9.5106022e-08
0.00034372301
-2.868931e-08
0.00014270434
-4.931174e-09
4.9898146e-05
1.0161427e-05
4.4327586e-09
1.0157015e-05
2.5565211e-08
4.9877032e-05
8.3882524e-08
0.00014264603
2.1694226e-07
0.00034358994
4.8453825e-07
0.0007533269
9.5639103e-07
0.001539757
1.6414058e-06
0.0029462614
2.324619e-06
0.0052454211
2.5939869e-06
0.0085803119
2.2393924e-06
0.012687066
1.3066955e-06
0.016670453
1.7220712e-11
0.019188051
-1.3066491e-06
0.019188051
-2.239313e-06
0.016670453
-2.5938688e-06
0.012687066
-2.324481e-06
0.008580312
-1.6412799e-06
0.0052454211
-9.5629521e-07
0.0029462614
-4.84467e-07
0.001539757
-2.1688424e-07
0.0007533269
-8.3833851e-08
0.00034358994
-2.5532109e-08
0.00014264603
-4.4165244e-09
4.9877033e-05
1.0157015e-05
3.6217763e-09
1.0153389e-05
2.1029908e-08
4.9859621e-05
6.9431771e-08
0.00014259763
1.8114151e-07
0.00034347823
4.0972481e-07
0.00075309832
8.2392626e-07
0.0015393428
1.4540249e-06
0.0029456313
2.143112e-06
0.005244732
2.4675054e-06
0.0085799875
2.1884169e-06
0.012687345
1.2866582e-06
0.016671355
1.4212909e-11
0.019189338
-1.2866149e-06
0.019189338
-2.188334e-06
0.016671355
-2.467378e-06
0.012687345
-2.1429648e-06
0.0085799875
-1.4538931e-06
0.005244732
-8.2382875e-07
0.0029456313
-4.0966133e-07
0.0015393428
-1.81105e-07
0.00075309832
-6.9414725e-08
0.00034347823
-2.1023408e-08
0.00014259763
-3.620248e-09
4.9859621e-05
1.0153389e-05
2.9655776e-09
1.0150406e-05
1.731344e-08
4.9845257e-05
5.7335465e-08
0.0001425576
1.5004216e-07
0.00034338554
3.4095948e-07
0.00075290741
6.9194055e-07
0.0015389918
1.2441324e-06
0.0029450791
1.9042171e-06
0.0052440718
2.3016301e-06
0.00857959
2.0975272e-06
0.012687549
1.2520207e-06
0.0166722
1.1525396e-11
0.01919059
-1.251981e-06
0.01919059
-2.0974453e-06
0.0166722
-2.3015071e-06
0.012687549
-1.9040857e-06
0.0085795901
-1.2440301e-06
0.0052440719
-6.9188678e-07
0.0029450791
-3.40959e-07
0.0015389918
-1.5008737e-07
0.00075290742
-5.7404663e-08
0.00034338554
-1.7371e-08
0.0001425576
-2.9963483e-09
4.9845257e-05
1.0150406e-05
2.4536091e-09
1.014794e-05
1.4339682e-08
4.9833359e-05
4.7595269e-08
0.00014252433
1.2500099e-07
0.00034330813
2.8557136e-07
0.00075274685
5.8417328e-07
0.0015386932
1.0641897e-06
0.0029445991
1.6641744e-06
0.0052434718
2.0898948e-06
0.0085791642
1.9529081e-06
0.012687686
1.1802505e-06
0.016672973
1.0330446e-11
0.01919177
-1.1802126e-06
0.01919177
-1.9528294e-06
0.016672973
-2.0897847e-06
0.012687686
-1.6640701e-06
0.0085791643
-1.0641195e-06
0.0052434719
-5.8414233e-07
0.0029445991
-2.8557714e-07
0.0015386932
-1.2503637e-07
0.00075274686
-4.7644472e-08
0.00034330813
-1.4379501e-08
0.00014252433
-2.4746165e-09
4.9833359e-05
1.014794e-05
2.1156542e-09
1.0145838e-05
1.228162e-08
4.9823203e-05
4.0714489e-08
0.0001424959
1.0700461e-07
0.00034324183
2.4507548e-07
0.00075260876
5.0383631e-07
0.0015384344
9.2621776e-07
0.0029441767
1.4715068e-06
0.0052429265
1.8909156e-06
0.0085787448
1.8050302e-06
0.012687772
1.1036936e-06
0.016673674
1.1123765e-11
0.019192873
-1.1036548e-06
0.019192873
-1.8049569e-06
0.016673674
-1.8908248e-06
0.012687772
-1.4714358e-06
0.0085787449
-9.2618091e-07
0.0052429266
-5.0381745e-07
0.0029441767
-2.4505247e-07
0.0015384344
-1.0696774e-07
0.00075260876
-4.0668254e-08
0.00034324183
-1.224418e-08
0.0001424959
-2.0957273e-09
4.9823203e-05
1.0145838e-05
1.8759116e-09
1.0144009e-05
1.0754444e-08
4.9814365e-05
3.553826e-08
0.00014247114
9.3361192e-08
0.00034318397
2.1416579e-07
0.0007524879
4.4190944e-07
0.0015382066
8.1807958e-07
0.0029438005
1.3163579e-06
0.0052424282
1.72449e-06
0.0085783366
1.6780452e-06
0.012687818
1.0378075e-06
0.016674314
1.4133999e-11
0.019193911
-1.0377642e-06
0.019193911
-1.6779753e-06
0.016674314
-1.7244181e-06
0.012687818
-1.3163196e-06
0.0085783367
-8.1807864e-07
0.0052424283
-4.4191548e-07
0.0029438005
-2.1414139e-07
0.0015382066
-9.3290842e-08
0.0007524879
-3.543732e-08
0.00034318398
-1.0669917e-08
0.00014247114
-1.8299593e-09
4.9814366e-05
1.014401e-05
1.6873979e-09
1.0142399e-05
9.5445163e-09
4.9806575e-05
3.142351e-08
0.00014244929
8.2476703e-08
0.00034313287
1.8937903e-07
0.00075238091
3.9181266e-07
0.0015380041
7.2920236e-07
0.0029434631
1.185113e-06
0.0052419723
1.5781635e-06
0.0085779436
1.5623395e-06
0.012687834
9.767033e-07
0.0166749
1.8224521e-11
0.019194888
-9.7665415e-07
0.019194888
-1.5622717e-06
0.0166749
-1.5781043e-06
0.012687834
-1.1850905e-06
0.0085779437
-7.2920924e-07
0.0052419724
-3.9180899e-07
0.0029434631
-1.8931607e-07
0.0015380041
-8.23368e-08
0.00075238092
-3.1237361e-08
0.00034313288
-9.3930257e-09
0.00014244929
-1.6063641e-09
4.9806577e-05
1.0142399e-05
1.5201334e-09
1.0140966e-05
8.5292986e-09
4.9799644e-05
2.8020513e-08
0.00014242984
7.3515662e-08
0.00034308733
1.6894678e-07
0.00075228539
3.5027081e-07
0.0015378227
6.5455181e-07
0.0029431587
1.0720277e-06
0.0052415548
1.4464177e-06
0.0085775691
1.4548737e-06
0.012687826
9.1881557e-07
0.016675436
2.1598526e-11
0.019195806
-9.187627e-07
0.019195807
-1.4548091e-06
0.016675436
-1.4463648e-06
0.012687826
-1.0720044e-06
0.0085775693
-6.5454588e-07
0.0052415549
-3.5024251e-07
0.0029431588
-1.6884402e-07
0.0015378227
-7.332062e-08
0.0007522854
-2.7774191e-08
0.00034308734
-8.3324693e-09
0.00014242984
-1.4159377e-09
4.9799645e-05
1.0140967e-05
1.3589831e-09
1.0139681e-05
7.6458928e-09
4.9793423e-05
2.5146978e-08
0.00014241237
6.6034862e-08
0.0003430464
1.5191416e-07
0.00075219944
3.1550133e-07
0.001537659
5.9148328e-07
0.0029428827
9.7476656e-07
0.0052411715
1.32969e-06
0.0085772142
1.3567835e-06
0.012687799
8.652591e-07
0.016675927
2.2790714e-11
0.019196672
-8.652067e-07
0.019196672
-1.3567235e-06
0.016675927
-1.3296382e-06
0.012687799
-9.7473144e-07
0.0085772143
-5.9145802e-07
0.0052411716
-3.1546275e-07
0.0029428827
-1.5182411e-07
0.0015376591
-6.5877152e-08
0.00075219945
-2.4951576e-08
0.00034304641
-7.4906644e-09
0.00014241238
-1.276836e-09
4.9793425e-05
1.0139682e-05
1.1994068e-09
1.013852e-05
6.8582448e-09
4.97878e-05
2.2675368e-08
0.00014239658
5.969698e-08
0.00034300937
1.3753258e-07
0.00075212156
2.8607079e-07
0.0015375105
5.3771882e-07
0.002942631
8.9070151e-07
0.0052408185
1.2263863e-06
0.0085768785
1.2674819e-06
0.012687757
8.1592995e-07
0.016676379
2.0876869e-11
0.019197488
-8.1588355e-07
0.019197488
-1.2674286e-06
0.016676379
-1.2263308e-06
0.012687758
-8.9064381e-07
0.0085768786
-5.3766114e-07
0.0052408186
-2.860125e-07
0.0029426311
-1.3745932e-07
0.0015375105
-5.9599374e-08
0.00075212158
-2.2566151e-08
0.00034300938
-6.7746921e-09
0.00014239658
-1.1559178e-09
4.9787801e-05
1.013852e-05
1.0460268e-09
1.0137464e-05
6.1532888e-09
4.9782685e-05
2.0523444e-08
0.00014238221
5.4246577e-08
0.00034297565
1.2520224e-07
0.00075205062
2.6079281e-07
0.0015373749
4.9127691e-07
0.0029424005
8.1723505e-07
0.0052404925
1.1341754e-06
0.0085765615
1.1857791e-06
0.012687706
7.7021357e-07
0.016676794
1.60448e-11
0.019198258
-7.701783e-07
0.019198258
-1.1857352e-06
0.016676794
-1.1341161e-06
0.012687706
-8.1715589e-07
0.0085765616
-4.9119065e-07
0.0052404926
-2.6072209e-07
0.0029424006
-1.251595e-07
0.0015373749
-5.4230415e-08
0.00075205064
-2.0525411e-08
0.00034297566
-6.1606577e-09
0.00014238221
-1.0512098e-09
4.9782686e-05
1.0137464e-05
9.0862433e-10
1.0136499e-05
5.5346166e-09
4.977801e-05
1.8650292e-08
0.00014236907
4.9518975e-08
0.00034294482
1.1450985e-07
0.00075198569
2.3882936e-07
0.0015372506
4.5073753e-07
0.0029421886
7.5250016e-07
0.0052401907
1.0514917e-06
0.0085762625
1.1108125e-06
0.012687646
7.2767848e-07
0.016677177
9.8130356e-12
0.019198985
-7.2765653e-07
0.019198985
-1.1107797e-06
0.016677178
-1.0514332e-06
0.012687647
-7.5241056e-07
0.0085762626
-4.5063914e-07
0.0052401908
-2.3876427e-07
0.0029421887
-1.1451552e-07
0.0015372506
-4.9601286e-08
0.00075198571
-1.8777815e-08
0.00034294483
-5.6424181e-09
0.00014236907
-9.6693639e-10
4.9778011e-05
1.0136499e-05
7.9644928e-10
1.0135613e-05
5.0093173e-09
4.9773719e-05
1.7033058e-08
0.00014235701
4.5403043e-08
0.0003429165
1.0516562e-07
0.00075192601
2.1958341e-07
0.0015371362
4.1507299e-07
0.0029419931
6.9510444e-07
0.0052399106
9.7708214e-07
0.0085759804
1.0418424e-06
0.012687582
6.879895e-07
0.016677531
4.147057e-12
0.019199673
-6.8797939e-07
0.019199673
-1.0418202e-06
0.016677531
-9.770296e-07
0.012687582
-6.9501705e-07
0.0085759805
-4.1497621e-07
0.0052399107
-2.1952658e-07
0.0029419932
-1.0520042e-07
0.0015371363
-4.5541912e-08
0.00075192603
-1.7233092e-08
0.00034291651
-5.1752839e-09
0.00014235701
-8.8578648e-10
4.9773719e-05
1.0135613e-05
7.1427051e-10
1.0134797e-05
4.578236e-09
4.9769766e-05
1.5648077e-08
0.00014234589
4.1807514e-08
0.0003428904
9.6941089e-08
0.00075187098
2.0258648e-07
0.0015370307
3.8346628e-07
0.0029418123
6.4389962e-07
0.0052396502
9.098234e-07
0.0085757145
9.7820468e-07
0.012687513
6.5084401e-07
0.016677859
6.8456473e-13
0.019200324
-6.5084136e-07
0.019200324
-9.7819097e-07
0.016677859
-9.0978233e-07
0.012687513
-6.4382981e-07
0.0085757146
-3.8339205e-07
0.0052396502
-2.0255565e-07
0.0029418123
-9.7009606e-08
0.0015370307
-4.1990083e-08
0.000751871
-1.5895373e-08
0.0003428904
-4.7797102e-09
0.00014234589
-8.2183648e-10
4.9769765e-05
1.0134797e-05
6.6155701e-10
1.0134043e-05
4.2338816e-09
4.9766111e-05
1.4466441e-08
0.00014233562
3.8652178e-08
0.00034286626
8.9651299e-08
0.00075182007
1.8746524e-07
0.0015369329
3.552613e-07
0.0029416445
5.9794329e-07
0.0052394074
8.4875802e-07
0.0085754636
9.1933201e-07
0.012687443
6.1598869e-07
0.016678162
3.6172623e-13
0.01920094
-6.1598741e-07
0.01920094
-9.1932329e-07
0.016678162
-8.4873162e-07
0.012687443
-5.9790068e-07
0.0085754637
-3.5521953e-07
0.0052394075
-1.874597e-07
0.0029416445
-8.9729969e-08
0.001536933
-3.8829488e-08
0.00075182008
-1.4698648e-08
0.00034286627
-4.4211934e-09
0.00014233562
-7.6119125e-10
4.9766111e-05
1.0134043e-05
6.3358735e-10
1.0133344e-05
3.962293e-09
4.9762724e-05
1.3455459e-08
0.00014232609
3.5866407e-08
0.00034284388
8.3147301e-08
0.00075177284
1.7392474e-07
0.0015368422
3.2993611e-07
0.0029414885
5.5647084e-07
0.0052391809
7.9308062e-07
0.008575227
8.6473177e-07
0.012687371
5.8320971e-07
0.016678443
3.2036303e-12
0.019201523
-5.8320382e-07
0.019201523
-8.6472439e-07
0.016678444
-7.9306993e-07
0.012687371
-5.5646053e-07
0.0085752271
-3.2993153e-07
0.005239181
-1.7393976e-07
0.0029414885
-8.320971e-08
0.0015368422
-3.5987425e-08
0.00075177285
-1.3609303e-08
0.00034284388
-4.0852506e-09
0.00014232609
-6.9894272e-10
4.9762723e-05
1.0133344e-05
6.2286947e-10
1.0132694e-05
3.7454166e-09
4.9759577e-05
1.2580664e-08
0.00014231724
3.3387887e-08
0.00034282308
7.7308314e-08
0.00075172894
1.6173043e-07
0.0015367578
3.0707332e-07
0.0029413431
5.188617e-07
0.0052389691
7.4212281e-07
0.0085750037
8.1397922e-07
0.012687299
5.523281e-07
0.016678705
8.3571743e-12
0.019202076
-5.5231314e-07
0.019202076
-8.1397007e-07
0.016678705
-7.42127e-07
0.012687299
-5.1888565e-07
0.0085750038
-3.0711253e-07
0.0052389692
-1.6177875e-07
0.0029413432
-7.7371859e-08
0.0015367578
-3.3470817e-08
0.00075172894
-1.2671166e-08
0.00034282308
-3.8137682e-09
0.00014231724
-6.5818406e-10
4.9759577e-05
1.0132694e-05
6.2011107e-10
1.013209e-05
3.5626215e-09
4.9756647e-05
1.1806836e-08
0.000142309
3.116095e-08
0.00034280371
7.2034904e-08
0.00075168804
1.5069357e-07
0.0015366791
2.8633583e-07
0.0029412075
4.8460831e-07
0.0052387708
6.9532578e-07
0.008574793
7.6671209e-07
0.012687228
5.2319454e-07
0.016678949
1.4454469e-11
0.019202599
-5.2316859e-07
0.019202599
-7.666989e-07
0.016678949
-6.9534077e-07
0.012687228
-4.8465801e-07
0.0085747931
-2.8640465e-07
0.0052387709
-1.507546e-07
0.0029412075
-7.2070831e-08
0.0015366791
-3.1169827e-08
0.00075168804
-1.179685e-08
0.00034280371
-3.5492384e-09
0.000142309
-6.1186495e-10
4.9756647e-05
1.013209e-05
6.15763e-10
1.0131526e-05
3.3933655e-09
4.9753914e-05
1.1100634e-08
0.00014230131
2.9136669e-08
0.00034278564
6.7244322e-08
0.00075164986
1.4065972e-07
0.0015366056
2.6744718e-07
0.0029410806
4.5329028e-07
0.005238585
6.5221759e-07
0.008574594
7.2260914e-07
0.012687157
4.9567338e-07
0.016679175
2.0053345e-11
0.019203094
-4.9563746e-07
0.019203094
-7.2259191e-07
0.016679176
-6.5223939e-07
0.012687157
-4.5335617e-07
0.0085745942
-2.6753209e-07
0.005238585
-1.4071923e-07
0.0029410807
-6.7239238e-08
0.0015366056
-2.905974e-08
0.00075164987
-1.0981465e-08
0.00034278564
-3.2928446e-09
0.00014230131
-5.6158906e-10
4.9753915e-05
1.0131526e-05
6.0143164e-10
1.0131e-05
3.2196995e-09
4.9751361e-05
1.0433241e-08
0.00014229413
2.7273568e-08
0.00034276875
6.2867633e-08
0.00075161418
1.3150113e-07
0.0015365369
2.5017854e-07
0.0029409619
4.2455724e-07
0.0052384106
6.1239791e-07
0.0085744062
6.8139981e-07
0.012687088
4.6965974e-07
0.016679387
2.4023667e-11
0.019203564
-4.6961694e-07
0.019203564
-6.8137998e-07
0.016679387
-6.1242307e-07
0.012687088
-4.2463091e-07
0.0085744063
-2.5027355e-07
0.0052384106
-1.3156889e-07
0.002940962
-6.2860181e-08
0.0015365369
-2.7178518e-08
0.00075161419
-1.0284966e-08
0.00034276876
-3.0942872e-09
0.00014229413
-5.3341931e-10
4.9751362e-05
1.0131e-05
5.715094e-10
1.0130507e-05
3.029233e-09
4.9748972e-05
9.7836963e-09
0.00014228741
2.5539161e-08
0.00034275295
5.8847857e-08
0.00075158079
1.2311035e-07
0.0015364726
2.3433732e-07
0.0029408507
3.9811395e-07
0.0052382468
5.7552576e-07
0.0085742288
6.4283215e-07
0.012687021
4.4504006e-07
0.016679585
2.5491985e-11
0.019204009
-4.449952e-07
0.019204009
-6.428121e-07
0.016679585
-5.7554988e-07
0.012687021
-3.9818128e-07
0.0085742289
-2.3442108e-07
0.0052382469
-1.2316637e-07
0.0029408507
-5.8830191e-08
0.0015364726
-2.5434643e-08
0.0007515808
-9.6261981e-09
0.00034275295
-2.8974296e-09
0.00014228741
-5.0019889e-10
4.9748974e-05
1.0130507e-05
5.2402514e-10
1.0130046e-05
2.8166664e-09
4.9746736e-05
9.1405777e-09
0.00014228111
2.3910583e-08
0.00034273814
5.513859e-08
0.00075154949
1.153961e-07
0.0015364122
2.1975948e-07
0.0029407463
3.7370835e-07
0.0052380928
5.4130563e-07
0.0085740612
6.0670381e-07
0.012686956
4.217458e-07
0.01667977
2.4097444e-11
0.019204431
-4.2170455e-07
0.019204431
-6.0668731e-07
0.01667977
-5.4132654e-07
0.012686956
-3.7375927e-07
0.0085740613
-2.1981545e-07
0.0052380929
-1.1542187e-07
0.0029407463
-5.5095954e-08
0.0015364123
-2.3789478e-08
0.0007515495
-8.9748126e-09
0.00034273815
-2.6817895e-09
0.00014228112
-4.5208705e-10
4.9746737e-05
1.0130046e-05
4.6176807e-10
1.0129613e-05
2.585895e-09
4.9744638e-05
8.5045265e-09
0.00014227521
2.2376201e-08
0.00034272426
5.1703729e-08
0.00075152013
1.0828042e-07
0.0015363556
2.0630397e-07
0.0029406482
3.5112512e-07
0.005237948
5.0948454e-07
0.0085739028
5.7280756e-07
0.012686892
3.9966968e-07
0.016679943
2.0140731e-11
0.01920483
-3.9963713e-07
0.01920483
-5.7279814e-07
0.016679943
-5.0950247e-07
0.012686892
-3.5115878e-07
0.008573903
-2.0633745e-07
0.0052379481
-1.08299e-07
0.0029406483
-5.1689578e-08
0.0015363557
-2.232264e-08
0.00075152015
-8.4271338e-09
0.00034272426
-2.5220435e-09
0.00014227521
-4.2724616e-10
4.9744639e-05
1.0129613e-05
3.916888e-10
1.0129207e-05
2.3489154e-09
4.9742669e-05
7.8869518e-09
0.00014226967
2.0934618e-08
0.00034271122
4.8516634e-08
0.00075149257
1.0169719e-07
0.0015363025
1.938488e-07
0.0029405561
3.3017647e-07
0.0052378116
4.7983822e-07
0.0085737532
5.4099605e-07
0.012686831
3.7877825e-07
0.016680105
1.4162246e-11
0.019205209
-3.7875823e-07
0.019205209
-5.4099615e-07
0.016680105
-4.798532e-07
0.012686831
-3.3019043e-07
0.0085737533
-1.9385672e-07
0.0052378117
-1.0170969e-07
0.0029405561
-4.8544679e-08
0.0015363025
-2.0977892e-08
0.00075149258
-7.9352496e-09
0.00034271123
-2.3861724e-09
0.00014226967
-4.1056294e-10
4.9742671e-05
1.0129207e-05
3.2319363e-10
1.0128826e-05
2.1225866e-09
4.974082e-05
7.305973e-09
0.00014226446
1.9591422e-08
0.00034269897
4.5558252e-08
0.00075146666
9.5590979e-08
0.0015362525
1.8228972e-07
0.0029404694
3.1070231e-07
0.0052376832
4.5217462e-07
0.0085736117
5.1108718e-07
0.012686772
3.5895625e-07
0.016680257
6.6622378e-12
0.019205568
-3.5895151e-07
0.019205568
-5.1109866e-07
0.016680258
-4.5218797e-07
0.012686772
-3.1069692e-07
0.0085736118
-1.822661e-07
0.0052376833
-9.5576084e-08
0.0029404694
-4.5584305e-08
0.0015362525
-1.9667298e-08
0.00075146667
-7.4105731e-09
0.00034269898
-2.2088629e-09
0.00014226446
-3.6935503e-10
4.974082e-05
1.0128826e-05
2.6512262e-10
1.0128467e-05
1.9228703e-09
4.9739081e-05
6.7791752e-09
0.00014225957
1.8353316e-08
0.00034268745
4.2813702e-08
0.00075144229
8.9915274e-08
0.0015362054
1.7153745e-07
0.0029403878
2.9256216e-07
0.0052375622
4.2632208e-07
0.0085734779
4.8298389e-07
0.012686715
3.4020937e-07
0.0166804
-7.1700837e-13
0.019205908
-3.4021981e-07
0.019205908
-4.8300757e-07
0.0166804
-4.263387e-07
0.012686716
-2.9255054e-07
0.0085734779
-1.7150504e-07
0.0052375622
-8.9903453e-08
0.0029403878
-4.2873053e-08
0.0015362055
-1.8498509e-08
0.00075144231
-6.9735513e-09
0.00034268746
-2.0810174e-09
0.00014225957
-3.4946643e-10
4.973908e-05
1.0128467e-05
2.2355011e-10
1.012813e-05
1.7605343e-09
4.9737444e-05
6.3179776e-09
0.00014225496
1.7223159e-08
0.00034267661
4.0268889e-08
0.00075141936
8.4630395e-08
0.0015361612
1.6151637e-07
0.0029403109
2.7563681e-07
0.005237448
4.0213055e-07
0.0085733514
4.5651033e-07
0.012686661
3.2239922e-07
0.016680534
-7.0794627e-12
0.019206231
-3.2242218e-07
0.019206231
-4.5654418e-07
0.016680534
-4.0215302e-07
0.012686661
-2.7562832e-07
0.0085733514
-1.6148942e-07
0.0052374481
-8.4636218e-08
0.0029403109
-4.0373612e-08
0.0015361612
-1.7446407e-08
0.00075141937
-6.6070145e-09
0.00034267661
-1.9931159e-09
0.00014225496
-3.4703219e-10
4.9737443e-05
1.012813e-05
2.0092899e-10
1.0127812e-05
1.639563e-09
4.9735903e-05
5.9257237e-09
0.00014225062
1.6198575e-08
0.0003426664
3.7909705e-08
0.00075139776
7.9702523e-08
0.0015361195
1.5216231e-07
0.0029402384
2.5982255e-07
0.0052373403
3.794716e-07
0.0085732317
4.3162303e-07
0.012686609
3.055799e-07
0.01668066
-1.1381627e-11
0.019206536
-3.0561117e-07
0.019206536
-4.3166428e-07
0.01668066
-3.7950178e-07
0.012686609
-2.5982287e-07
0.0085732317
-1.5214158e-07
0.0052373404
-7.9706835e-08
0.0029402385
-3.8005718e-08
0.0015361195
-1.6411087e-08
0.00075139777
-6.2065396e-09
0.0003426664
-1.8673248e-09
0.00014225062
-3.2281478e-10
4.9735902e-05
1.0127812e-05
1.961205e-10
1.0127512e-05
1.5571776e-09
4.9734451e-05
5.5973319e-09
0.00014224653
1.5270864e-08
0.00034265678
3.5720124e-08
0.0007513774
7.51011e-08
0.0015360802
1.4341893e-07
0.0029401701
2.4502696e-07
0.0052372387
3.5821857e-07
0.0085731185
4.0812929e-07
0.012686559
2.8956995e-07
0.016680779
-1.2759129e-11
0.019206826
-2.8960389e-07
0.019206826
-4.0817487e-07
0.016680779
-3.5826008e-07
0.012686559
-2.4504925e-07
0.0085731185
-1.4342568e-07
0.0052372387
-7.5127113e-08
0.0029401702
-3.5823333e-08
0.0015360802
-1.5475475e-08
0.00075137741
-5.861552e-09
0.00034265678
-1.7699516e-09
0.00014224653
-3.0976266e-10
4.9734449e-05
1.0127512e-05
2.0590634e-10
1.012723e-05
1.5069698e-09
4.9733081e-05
5.3236855e-09
0.00014224268
1.4429415e-08
0.00034264771
3.3685728e-08
0.00075135821
7.0801059e-08
0.0015360431
1.3524038e-07
0.0029401057
2.3117621e-07
0.0052371428
3.3828569e-07
0.0085730113
3.860545e-07
0.012686511
2.7449072e-07
0.01668089
-1.0677239e-11
0.0192071
-2.7452054e-07
0.0192071
-3.8609991e-07
0.016680891
-3.3833945e-07
0.012686511
-2.3122763e-07
0.0085730114
-1.3528613e-07
0.0052371428
-7.086017e-08
0.0029401057
-3.380176e-08
0.0015360431
-1.4622661e-08
0.00075135822
-5.5599687e-09
0.00034264771
-1.6939843e-09
0.00014224268
-3.0490222e-10
4.973308e-05
1.012723e-05
2.2600363e-10
1.0126964e-05
1.4804554e-09
4.973179e-05
5.0927793e-09
0.00014223904
1.3660844e-08
0.00034263916
3.1790205e-08
0.00075134011
6.6776805e-08
0.0015360081
1.2758004e-07
0.0029400449
2.1818891e-07
0.0052370521
3.19546e-07
0.00857291
3.6515612e-07
0.012686466
2.6008941e-07
0.016680996
-5.7345838e-12
0.01920736
-2.6010962e-07
0.01920736
-3.651971e-07
0.016680996
-3.1961017e-07
0.012686466
-2.1826871e-07
0.00857291
-1.2766019e-07
0.0052370521
-6.6852107e-08
0.0029400449
-3.1879364e-08
0.0015360081
-1.3778807e-08
0.00075134011
-5.2264055e-09
0.00034263915
-1.5837905e-09
0.00014223904
-2.8035765e-10
4.9731789e-05
1.0126964e-05
2.5265019e-10
1.0126713e-05
1.4704951e-09
4.9730571e-05
4.8953818e-09
0.00014223561
1.2956501e-08
0.00034263108
3.0024294e-08
0.00075132303
6.3012694e-08
0.0015359751
1.2040876e-07
0.0029399875
2.060229e-07
0.0052369665
3.0197097e-07
0.008572814
3.4556266e-07
0.012686422
2.4658699e-07
0.016681095
8.3232984e-13
0.019207607
-2.4659451e-07
0.019207607
-3.4559677e-07
0.016681095
-3.0204388e-07
0.012686422
-2.0613106e-07
0.008572814
-1.2052682e-07
0.0052369665
-6.3112085e-08
0.0029399875
-3.0095848e-08
0.0015359751
-1.3005496e-08
0.00075132302
-4.9279564e-09
0.00034263108
-1.4893429e-09
0.00014223561
-2.610991e-10
4.9730571e-05
1.0126712e-05
2.8219521e-10
1.0126475e-05
1.4697486e-09
4.9729421e-05
4.7209469e-09
0.00014223237
1.230438e-08
0.00034262346
2.8373108e-08
0.0007513069
5.9485303e-08
0.0015359439
1.136816e-07
0.0029399333
1.9458949e-07
0.0052368856
2.8539776e-07
0.0085727232
3.2693044e-07
0.01268638
2.3361791e-07
0.016681188
7.2093756e-12
0.019207841
-2.3361259e-07
0.019207841
-3.2695612e-07
0.016681188
-2.8547485e-07
0.01268638
-1.9471776e-07
0.0085727232
-1.138278e-07
0.0052368856
-5.960073e-08
0.0029399333
-2.8421976e-08
0.0015359439
-1.2281436e-08
0.00075130689
-4.6502278e-09
0.00034262346
-1.4026813e-09
0.00014223237
-2.4398921e-10
4.9729421e-05
1.0126475e-05
3.1089189e-10
1.0126251e-05
1.4716046e-09
4.9728334e-05
4.5623599e-09
0.00014222931
1.1700971e-08
0.00034261626
2.6836705e-08
0.00075129166
5.6193884e-08
0.0015359145
1.0739536e-07
0.002939882
1.8389942e-07
0.0052368091
2.6990048e-07
0.0085726372
3.0955943e-07
0.012686341
2.2155873e-07
0.016681276
1.0872595e-11
0.019208062
-2.2154503e-07
0.019208062
-3.0957766e-07
0.016681276
-2.6997558e-07
0.012686341
-1.8403248e-07
0.0085726373
-1.0754714e-07
0.0052368091
-5.6299058e-08
0.002939882
-2.6834244e-08
0.0015359145
-1.1576305e-08
0.00075129164
-4.361092e-09
0.00034261626
-1.2995768e-09
0.00014222931
-2.1682211e-10
4.9728334e-05
1.0126251e-05
3.3321323e-10
1.012604e-05
1.4647472e-09
4.9727307e-05
4.4030014e-09
0.00014222642
1.1127085e-08
0.00034260946
2.5392722e-08
0.00075127726
5.3107621e-08
0.0015358867
1.0149218e-07
0.0029398336
1.7382423e-07
0.0052367368
2.5521658e-07
0.0085725559
2.9292202e-07
0.012686303
2.0986949e-07
0.016681359
1.0320887e-11
0.019208272
-2.0985555e-07
0.019208272
-2.9293625e-07
0.016681359
-2.5528379e-07
0.012686303
-1.7394615e-07
0.0085725559
-1.0163016e-07
0.0052367368
-5.3190704e-08
0.0029398336
-2.5343407e-08
0.0015358866
-1.0922401e-08
0.00075127724
-4.1026803e-09
0.00034260945
-1.2137931e-09
0.00014222642
-1.9718682e-10
4.9727308e-05
1.012604e-05
3.4272764e-10
1.0125839e-05
1.4384277e-09
4.9726335e-05
4.2333235e-09
0.00014222369
1.0583998e-08
0.00034260302
2.405719e-08
0.00075126364
5.0255814e-08
0.0015358604
9.6024198e-08
0.0029397878
1.6448835e-07
0.0052366683
2.4163026e-07
0.0085724787
2.7761991e-07
0.012686267
1.9917825e-07
0.016681437
3.489983e-12
0.019208471
-1.9917469e-07
0.019208471
-2.7763479e-07
0.016681437
-2.4168297e-07
0.012686267
-1.6457956e-07
0.0085724787
-9.6122101e-08
0.0052366683
-5.0295355e-08
0.0029397878
-2.3956001e-08
0.0015358603
-1.0314802e-08
0.00075126362
-3.8635555e-09
0.00034260302
-1.1349387e-09
0.00014222369
-1.7955253e-10
4.9726336e-05
1.012584e-05
3.3258296e-10
1.012565e-05
1.3767716e-09
4.9725417e-05
4.0255317e-09
0.0001422211
1.0031135e-08
0.00034259693
2.2774308e-08
0.00075125075
4.7562621e-08
0.0015358354
9.0867579e-08
0.0029397444
1.5563858e-07
0.0052366035
2.2865334e-07
0.0085724057
2.6281939e-07
0.012686233
1.886902e-07
0.016681512
-1.0096259e-11
0.01920866
-1.8870895e-07
0.01920866
-2.6284056e-07
0.016681512
-2.2868581e-07
0.012686233
-1.5568142e-07
0.0085724057
-9.0902735e-08
0.0052366035
-4.7543428e-08
0.0029397444
-2.2626959e-08
0.0015358354
-9.728683e-09
0.00075125073
-3.6340683e-09
0.00034259693
-1.0611109e-09
0.0001422211
-1.6431595e-10
4.9725418e-05
1.012565e-05
3.0082077e-10
1.012547e-05
1.2808861e-09
4.9724544e-05
3.7943129e-09
0.00014221864
9.5115941e-09
0.00034259115
2.1625567e-08
0.00075123851
4.5152418e-08
0.0015358118
8.6224444e-08
0.0029397033
1.4767041e-07
0.0052365421
2.1701703e-07
0.0085723364
2.4967186e-07
0.0126862
1.79457e-07
0.016681582
-2.8775812e-11
0.019208839
-1.7950721e-07
0.019208839
-2.4970437e-07
0.016681582
-2.1702618e-07
0.0126862
-1.4765462e-07
0.0085723364
-8.6186209e-08
0.0052365421
-4.5074976e-08
0.0029397033
-2.1457759e-08
0.0015358118
-9.2309826e-09
0.00075123851
-3.4527557e-09
0.00034259115
-1.0107687e-09
0.00014221865
-1.581519e-10
4.9724545e-05
1.012547e-05
2.4734303e-10
1.0125301e-05
1.1368148e-09
4.9723725e-05
3.4849151e-09
0.00014221634
8.8937229e-09
0.0003425857
2.0377986e-08
0.00075122696
4.2693789e-08
0.0015357894
8.1652169e-08
0.0029396643
1.3992244e-07
0.0052364838
2.0569749e-07
0.0085722706
2.3672183e-07
0.012686169
1.7026336e-07
0.016681648
-5.1188128e-11
0.01920901
-1.7035181e-07
0.01920901
-2.3676963e-07
0.016681648
-2.056834e-07
0.012686169
-1.3984645e-07
0.0085722706
-8.1540971e-08
0.0052364838
-4.2565912e-08
0.0029396643
-2.0213898e-08
0.0015357894
-8.6789688e-09
0.00075122696
-3.2481964e-09
0.0003425857
-9.5601329e-10
0.00014221634
-1.5348031e-10
4.9723726e-05
1.0125301e-05
1.9040728e-10
1.0125137e-05
1.0110551e-09
4.972293e-05
3.2656305e-09
0.0001422141
8.5098993e-09
0.00034258046
1.9565624e-08