/*--------------------------------*- C++ -*----------------------------------*\
| =========                 |                                                 |
| \\      /  F ield         | OpenFOAM: The Open Source CFD Toolbox           |
|  \\    /   O peration     | Version:  2406                                  |
|   \\  /    A nd           | Website:  www.openfoam.com                      |
|    \\/     M anipulation  |                                                 |
\*---------------------------------------------------------------------------*/
FoamFile
{
    version     2.0;
    format      ascii;
    arch        "LSB;label=32;scalar=64";
    class       volVectorField;
    location    "9";
    object      U;
}
// * * * * * * * * * * * * * * * * * * * * * * * * * * * * * * * * * * * * * //

dimensions      [0 1 -1 0 0 0 0];

internalField   nonuniform List<vector> 
1176
(
(0.019493789 7.0807784e-07 0)
(0.066677317 8.1703062e-06 0)
(0.13357994 3.9504152e-05 0)
(0.227247 0.00010873694 0)
(0.35591522 0.00021176163 0)
(0.52772023 0.00030396472 0)
(0.74780387 0.00031818272 0)
(1.0136216 0.00024904862 0)
(1.3093323 0.00016667225 0)
(1.6017081 0.00011264853 0)
(1.8421723 7.0215483e-05 0)
(1.9793239 2.3942029e-05 0)
(1.9793239 -2.3939448e-05 0)
(1.8421723 -7.021288e-05 0)
(1.6017081 -0.00011264608 0)
(1.3093323 -0.00016667163 0)
(1.0136216 -0.00024905235 0)
(0.74780386 -0.00031819215 0)
(0.52772023 -0.00030397965 0)
(0.35591522 -0.00021177975 0)
(0.227247 -0.00010875407 0)
(0.13357994 -3.9516757e-05 0)
(0.066677317 -8.1772718e-06 0)
(0.019493789 -7.1017114e-07 0)
(0.020187016 -3.7411152e-06 0)
(0.068813529 -2.4636219e-05 0)
(0.13732106 -9.6545019e-05 0)
(0.2324739 -0.00024839107 0)
(0.36204616 -0.00047268543 0)
(0.53373556 -0.00067421056 0)
(0.75267407 -0.00069486815 0)
(1.0170176 -0.00049687147 0)
(1.3116385 -0.00023345645 0)
(1.6034438 -4.9821868e-05 0)
(1.8436588 1.9766847e-05 0)
(1.9807026 1.3429706e-05 0)
(1.9807026 -1.342559e-05 0)
(1.8436588 -1.9762169e-05 0)
(1.6034438 4.9827593e-05 0)
(1.3116385 0.00023346316 0)
(1.0170177 0.00049688005 0)
(0.75267408 0.00069488061 0)
(0.53373556 0.00067422869 0)
(0.36204616 0.0004727095 0)
(0.2324739 0.00024841766 0)
(0.13732107 9.656766e-05 0)
(0.068813529 2.4650335e-05 0)
(0.020187016 3.7456203e-06 0)
(0.02001844 2.0934249e-06 0)
(0.0683274 1.2725561e-05 0)
(0.13655404 4.6884229e-05 0)
(0.23159543 0.00011390422 0)
(0.36138707 0.00019769682 0)
(0.53366967 0.0002390333 0)
(0.75344342 0.00020559754 0)
(1.0184881 0.00011361225 0)
(1.3134639 7.4315981e-05 0)
(1.6053464 7.9535751e-05 0)
(1.8455118 7.0518981e-05 0)
(1.9825245 2.7827787e-05 0)
(1.9825245 -2.7823398e-05 0)
(1.8455118 -7.0514163e-05 0)
(1.6053464 -7.9530769e-05 0)
(1.3134639 -7.4311157e-05 0)
(1.0184881 -0.00011360781 0)
(0.7534434 -0.00020559452 0)
(0.53366965 -0.00023903558 0)
(0.36138705 -0.00019770347 0)
(0.23159542 -0.00011391365 0)
(0.13655403 -4.6892964e-05 0)
(0.068327395 -1.2731136e-05 0)
(0.020018439 -2.0952126e-06 0)
(0.019966545 7.0308327e-07 0)
(0.068159225 4.694068e-06 0)
(0.13624019 1.9365774e-05 0)
(0.23111938 5.6466496e-05 0)
(0.3607809 0.00013445227 0)
(0.5330629 0.00025829558 0)
(0.75295634 0.00035344784 0)
(1.0181104 0.00036912002 0)
(1.313184 0.00030759002 0)
(1.6051632 0.00022777527 0)
(1.8453995 0.00014556196 0)
(1.9824491 4.9999274e-05 0)
(1.9824491 -4.9995416e-05 0)
(1.8453995 -0.0001455573 0)
(1.6051632 -0.00022776952 0)
(1.313184 -0.0003075821 0)
(1.0181104 -0.00036910994 0)
(0.75295635 -0.00035343723 0)
(0.53306291 -0.00025828352 0)
(0.36078091 -0.00013443985 0)
(0.23111938 -5.6454077e-05 0)
(0.1362402 -1.9355484e-05 0)
(0.068159226 -4.6876836e-06 0)
(0.019966546 -7.0104387e-07 0)
(0.019942201 2.9332159e-07 0)
(0.068078694 1.9949539e-06 0)
(0.13608627 8.2476152e-06 0)
(0.23087697 2.3711016e-05 0)
(0.36044741 5.6889418e-05 0)
(0.53266445 0.00012307189 0)
(0.75256874 0.00022681877 0)
(1.0178079 0.000322723 0)
(1.3129044 0.00034572722 0)
(1.604912 0.0003073031 0)
(1.8452028 0.00021095614 0)
(1.9822897 7.4616831e-05 0)
(1.9822897 -7.4612762e-05 0)
(1.8452028 -0.00021095102 0)
(1.604912 -0.00030729615 0)
(1.3129044 -0.00034571832 0)
(1.0178079 -0.00032271209 0)
(0.75256874 -0.00022680658 0)
(0.53266444 -0.00012305666 0)
(0.36044741 -5.6869085e-05 0)
(0.23087697 -2.3686956e-05 0)
(0.13608627 -8.2259843e-06 0)
(0.068078694 -1.9809513e-06 0)
(0.019942201 -2.8877622e-07 0)
(0.019933129 1.7390244e-07 0)
(0.068047746 1.2004348e-06 0)
(0.13602487 5.0747301e-06 0)
(0.23077532 1.4978796e-05 0)
(0.36029895 3.6226665e-05 0)
(0.53247916 7.6947856e-05 0)
(0.75239423 0.00014713962 0)
(1.0177221 0.00023749263 0)
(1.3129292 0.00028525909 0)
(1.6049746 0.00027441844 0)
(1.8452865 0.00019644926 0)
(1.9823834 7.1179209e-05 0)
(1.9823834 -7.1175302e-05 0)
(1.8452865 -0.00019644387 0)
(1.6049746 -0.00027441054 0)
(1.3129292 -0.00028524878 0)
(1.0177221 -0.00023748178 0)
(0.75239423 -0.00014713007 0)
(0.53247916 -7.6938954e-05 0)
(0.36029895 -3.6216359e-05 0)
(0.23077532 -1.4966935e-05 0)
(0.13602487 -5.0639829e-06 0)
(0.068047746 -1.1933723e-06 0)
(0.019933129 -1.7159117e-07 0)
(0.019923397 1.5688717e-07 0)
(0.068015497 1.0731769e-06 0)
(0.13596284 4.4982133e-06 0)
(0.23067604 1.320068e-05 0)
(0.36015769 3.1861412e-05 0)
(0.53230173 6.6961335e-05 0)
(0.75221424 0.0001241216 0)
(1.0176105 0.00019917362 0)
(1.3129357 0.00025491204 0)
(1.6050903 0.00024595474 0)
(1.8454578 0.00018128165 0)
(1.9825798 6.655047e-05 0)
(1.9825798 -6.654673e-05 0)
(1.8454578 -0.00018127577 0)
(1.6050903 -0.00024594524 0)
(1.3129357 -0.00025489947 0)
(1.0176105 -0.00019916054 0)
(0.75221424 -0.00012411086 0)
(0.53230173 -6.6953339e-05 0)
(0.36015769 -3.1855087e-05 0)
(0.23067604 -1.3195322e-05 0)
(0.13596284 -4.4940869e-06 0)
(0.068015497 -1.0706707e-06 0)
(0.019923397 -1.5608926e-07 0)
(0.019915694 1.2739516e-07 0)
(0.067989782 8.7745664e-07 0)
(0.13591291 3.6952853e-06 0)
(0.23059499 1.0901217e-05 0)
(0.36003983 2.6613845e-05 0)
(0.53214748 5.7238744e-05 0)
(0.75204127 0.00010911315 0)
(1.0174722 0.00017936959 0)
(1.3128926 0.00023802824 0)
(1.6051413 0.00023747017 0)
(1.8455876 0.00017750882 0)
(1.9827513 6.5540835e-05 0)
(1.9827513 -6.553765e-05 0)
(1.8455876 -0.00017750298 0)
(1.6051413 -0.00023746007 0)
(1.3128926 -0.00023801462 0)
(1.0174722 -0.00017935564 0)
(0.75204127 -0.00010910182 0)
(0.53214748 -5.7230877e-05 0)
(0.36003983 -2.6609016e-05 0)
(0.23059499 -1.0898702e-05 0)
(0.13591291 -3.6942247e-06 0)
(0.067989782 -8.771231e-07 0)
(0.019915694 -1.2732756e-07 0)
(0.019909214 1.0378236e-07 0)
(0.06796813 7.2047264e-07 0)
(0.13587081 3.0481657e-06 0)
(0.23052651 9.0079469e-06 0)
(0.3599398 2.1997652e-05 0)
(0.53201536 4.7473417e-05 0)
(0.75188895 9.2015782e-05 0)
(1.0173341 0.00015618459 0)
(1.3128277 0.00021699972 0)
(1.6051595 0.00022709867 0)
(1.8456699 0.00017232774 0)
(1.9828679 6.414866e-05 0)
(1.9828679 -6.4145992e-05 0)
(1.8456699 -0.00017232215 0)
(1.6051595 -0.00022708869 0)
(1.3128277 -0.00021698692 0)
(1.0173341 -0.00015617269 0)
(0.75188895 -9.2007781e-05 0)
(0.53201536 -4.7470577e-05 0)
(0.3599398 -2.2000094e-05 0)
(0.23052651 -9.0141108e-06 0)
(0.13587081 -3.0548486e-06 0)
(0.06796813 -7.2510688e-07 0)
(0.019909213 -1.0532006e-07 0)
(0.019903968 8.5539475e-08 0)
(0.067950541 5.9514467e-07 0)
(0.13583647 2.5245591e-06 0)
(0.23047027 7.4885446e-06 0)
(0.35985687 1.8373986e-05 0)
(0.5319043 3.9834575e-05 0)
(0.75175829 7.7712184e-05 0)
(1.0172121 0.00013432545 0)
(1.3127613 0.00019323558 0)
(1.6051771 0.00021058522 0)
(1.8457532 0.00016273061 0)
(1.9829862 6.1084884e-05 0)
(1.9829862 -6.1082469e-05 0)
(1.8457532 -0.00016272523 0)
(1.6051771 -0.00021057584 0)
(1.3127613 -0.00019322461 0)
(1.0172121 -0.00013431653 0)
(0.7517583 -7.7707021e-05 0)
(0.5319043 -3.9833301e-05 0)
(0.35985688 -1.8376242e-05 0)
(0.23047027 -7.4930789e-06 0)
(0.13583647 -2.529228e-06 0)
(0.067950542 -5.9831954e-07 0)
(0.019903968 -8.6586299e-08 0)
(0.019899539 7.4017241e-08 0)
(0.067935676 5.1091026e-07 0)
(0.1358074 2.1595453e-06 0)
(0.23042255 6.4049672e-06 0)
(0.35978621 1.5748168e-05 0)
(0.53180883 3.4276663e-05 0)
(0.75164401 6.7202712e-05 0)
(1.017102 0.00011722878 0)
(1.3126976 0.00017262489 0)
(1.6051928 0.00019308992 0)
(1.845837 0.0001521992 0)
(1.983106 5.7545327e-05 0)
(1.983106 -5.75428e-05 0)
(1.845837 -0.00015219389 0)
(1.6051928 -0.00019308165 0)
(1.3126976 -0.0001726165 0)
(1.017102 -0.00011722344 0)
(0.75164402 -6.7200289e-05 0)
(0.53180884 -3.4274953e-05 0)
(0.35978621 -1.5745283e-05 0)
(0.23042255 -6.400649e-06 0)
(0.1358074 -2.1551773e-06 0)
(0.067935677 -5.0791245e-07 0)
(0.019899539 -7.3023481e-08 0)
(0.019895717 6.610415e-08 0)
(0.067922837 4.496756e-07 0)
(0.13578226 1.8870777e-06 0)
(0.23038121 5.5864016e-06 0)
(0.35972478 1.3744016e-05 0)
(0.53172528 2.9997915e-05 0)
(0.75154256 5.9108346e-05 0)
(1.017001 0.00010388506 0)
(1.3126344 0.00015540153 0)
(1.6052014 0.00017849557 0)
(1.8459124 0.00014271578 0)
(1.9832184 5.433125e-05 0)
(1.9832184 -5.4328185e-05 0)
(1.8459124 -0.0001427103 0)
(1.6052015 -0.00017848814 0)
(1.3126344 -0.00015539577 0)
(1.017001 -0.00010388337 0)
(0.75154257 -5.9109321e-05 0)
(0.53172529 -2.9997663e-05 0)
(0.35972478 -1.3739298e-05 0)
(0.23038121 -5.5773217e-06 0)
(0.13578226 -1.877326e-06 0)
(0.067922838 -4.4282649e-07 0)
(0.019895718 -6.3814683e-08 0)
(0.019892366 5.9920669e-08 0)
(0.067911573 4.0135862e-07 0)
(0.13576018 1.6710757e-06 0)
(0.23034486 4.9354266e-06 0)
(0.35967063 1.2141918e-05 0)
(0.53165129 2.6544034e-05 0)
(0.75145182 5.2495332e-05 0)
(1.0169085 9.2871612e-05 0)
(1.3125727 0.00014061266 0)
(1.6052049 0.00016529605 0)
(1.8459797 0.00013398954 0)
(1.9833221 5.1388408e-05 0)
(1.9833221 -5.1384608e-05 0)
(1.8459797 -0.00013398378 0)
(1.6052049 -0.00016528924 0)
(1.3125727 -0.00014060841 0)
(1.0169085 -9.2871352e-05 0)
(0.75145183 -5.2496643e-05 0)
(0.5316513 -2.6541728e-05 0)
(0.35967064 -1.2131718e-05 0)
(0.23034487 -4.918223e-06 0)
(0.13576019 -1.6534018e-06 0)
(0.067911575 -3.891989e-07 0)
(0.019892367 -5.5885953e-08 0)
(0.019889399 5.421975e-08 0)
(0.067901592 3.5986504e-07 0)
(0.13574061 1.4913012e-06 0)
(0.2303126 4.3989285e-06 0)
(0.35962247 1.0824564e-05 0)
(0.53158524 2.369454e-05 0)
(0.7513702 4.6981595e-05 0)
(1.0168239 8.3542548e-05 0)
(1.3125138 0.00012773502 0)
(1.605205 0.00015293291 0)
(1.8460414 0.00012582056 0)
(1.9834195 4.8617709e-05 0)
(1.9834195 -4.8613328e-05 0)
(1.8460414 -0.00012581469 0)
(1.605205 -0.00015292667 0)
(1.3125138 -0.0001277312 0)
(1.0168239 -8.3541815e-05 0)
(0.75137021 -4.6981298e-05 0)
(0.53158524 -2.3689211e-05 0)
(0.35962248 -1.0809556e-05 0)
(0.2303126 -4.3757366e-06 0)
(0.13574062 -1.4681798e-06 0)
(0.067901595 -3.4416752e-07 0)
(0.0198894 -4.9035565e-08 0)
(0.019886747 4.8377676e-08 0)
(0.06789267 3.2212262e-07 0)
(0.1357231 1.3374333e-06 0)
(0.23028371 3.9491266e-06 0)
(0.35957929 9.727066e-06 0)
(0.53152585 2.1319443e-05 0)
(0.75129639 4.2359427e-05 0)
(1.0167464 7.5617625e-05 0)
(1.312458 0.00011654042 0)
(1.6052026 0.00014169794 0)
(1.8460982 0.00011827127 0)
(1.9835116 4.6032923e-05 0)
(1.9835116 -4.6028378e-05 0)
(1.8460982 -0.00011826561 0)
(1.6052026 -0.00014169215 0)
(1.312458 -0.00011653619 0)
(1.0167465 -7.5615259e-05 0)
(0.7512964 -4.23574e-05 0)
(0.53152585 -2.1313989e-05 0)
(0.3595793 -9.7145717e-06 0)
(0.23028372 -3.9305947e-06 0)
(0.13572311 -1.3191632e-06 0)
(0.067892672 -3.097554e-07 0)
(0.019886748 -4.4295189e-08 0)
(0.019884358 4.2267963e-08 0)
(0.067884629 2.8679098e-07 0)
(0.13570732 1.2028609e-06 0)
(0.23025765 3.5657207e-06 0)
(0.35954028 8.7996772e-06 0)
(0.53147208 1.9313457e-05 0)
(0.75122924 3.8441252e-05 0)
(1.0166752 6.8838734e-05 0)
(1.3124052 0.00010678252 0)
(1.6051982 0.00013155128 0)
(1.8461503 0.0001113278 0)
(1.9835984 4.3632248e-05 0)
(1.9835984 -4.3628126e-05 0)
(1.8461503 -0.00011132282 0)
(1.6051982 -0.00013154586 0)
(1.3124052 -0.00010677707 0)
(1.0166752 -6.88334e-05 0)
(0.75122925 -3.8436124e-05 0)
(0.53147208 -1.9307425e-05 0)
(0.35954029 -8.7911018e-06 0)
(0.23025765 -3.5549691e-06 0)
(0.13570733 -1.1928885e-06 0)
(0.067884631 -2.8020775e-07 0)
(0.019884359 -4.0112135e-08 0)
(0.019882191 3.6200849e-08 0)
(0.067877334 2.5404902e-07 0)
(0.135693 1.0841466e-06 0)
(0.23023398 3.2343228e-06 0)
(0.35950483 8.0039182e-06 0)
(0.53142312 1.7592919e-05 0)
(0.75116786 3.5069842e-05 0)
(1.0166095 6.2965838e-05 0)
(1.3123552 9.8203064e-05 0)
(1.6051922 0.00012233233 0)
(1.8461981 0.00010491255 0)
(1.9836803 4.1391116e-05 0)
(1.9836803 -4.1387968e-05 0)
(1.8461982 -0.00010490869 0)
(1.6051922 -0.0001223274 0)
(1.3123553 -9.819642e-05 0)
(1.0166095 -6.2957693e-05 0)
(0.75116788 -3.5062017e-05 0)
(0.53142313 -1.7587238e-05 0)
(0.35950484 -8.0010367e-06 0)
(0.23023399 -3.2337783e-06 0)
(0.135693 -1.0847683e-06 0)
(0.067877335 -2.547694e-07 0)
(0.019882191 -3.6469151e-08 0)
(0.019880215 3.0718939e-08 0)
(0.067870681 2.2502209e-07 0)
(0.13567993 9.8041293e-07 0)
(0.23021238 2.9464888e-06 0)
(0.35947245 7.3140408e-06 0)
(0.53137833 1.6100154e-05 0)
(0.75111154 3.2136328e-05 0)
(1.0165487 5.7826192e-05 0)
(1.3123081 9.0602736e-05 0)
(1.6051851 0.00011395172 0)
(1.8462422 9.8954375e-05 0)
(1.9837575 3.9288863e-05 0)
(1.9837575 -3.9286943e-05 0)
(1.8462423 -9.8951833e-05 0)
(1.6051851 -0.00011394752 0)
(1.3123081 -9.0595577e-05 0)
(1.0165487 -5.7816555e-05 0)
(0.75111155 -3.2127483e-05 0)
(0.53137834 -1.6096591e-05 0)
(0.35947246 -7.3186059e-06 0)
(0.23021239 -2.9577395e-06 0)
(0.13567993 -9.9283224e-07 0)
(0.067870682 -2.3375159e-07 0)
(0.019880215 -3.3631585e-08 0)
(0.019878405 2.6321723e-08 0)
(0.067864586 2.0086257e-07 0)
(0.13566796 8.9159144e-07 0)
(0.23019259 2.6968467e-06 0)
(0.35944275 6.7121918e-06 0)
(0.53133719 1.4794093e-05 0)
(0.75105966 2.9562749e-05 0)
(1.0164924 5.329534e-05 0)
(1.3122637 8.3831631e-05 0)
(1.6051771 0.00010632173 0)
(1.8462829 9.3401144e-05 0)
(1.9838306 3.7311785e-05 0)
(1.9838306 -3.7310974e-05 0)
(1.846283 -9.3399794e-05 0)
(1.6051771 -0.00010631843 0)
(1.3122637 -8.3824807e-05 0)
(1.0164924 -5.3285649e-05 0)
(0.75105967 -2.9553954e-05 0)
(0.53133721 -1.4792039e-05 0)
(0.35944276 -6.7211071e-06 0)
(0.23019259 -2.7149028e-06 0)
(0.13566796 -9.1083338e-07 0)
(0.067864586 -2.1424758e-07 0)
(0.019878405 -3.0776242e-08 0)
(0.019876741 2.3276924e-08 0)
(0.067858979 1.8209803e-07 0)
(0.13565694 8.1707823e-07 0)
(0.23017436 2.4806585e-06 0)
(0.3594154 6.1840893e-06 0)
(0.53129927 1.3642388e-05 0)
(0.75101172 2.7287208e-05 0)
(1.01644 4.9273408e-05 0)
(1.3122218 7.7766884e-05 0)
(1.6051686 9.9353386e-05 0)
(1.8463206 8.8210594e-05 0)
(1.9838997 3.5448346e-05 0)
(1.9838997 -3.5448218e-05 0)
(1.8463206 -8.821006e-05 0)
(1.6051687 -9.9351051e-05 0)
(1.3122218 -7.7761407e-05 0)
(1.01644 -4.9265569e-05 0)
(0.75101174 -2.7280587e-05 0)
(0.53129928 -1.3643111e-05 0)
(0.35941541 -6.1968986e-06 0)
(0.23017437 -2.5034312e-06 0)
(0.13565694 -8.4059146e-07 0)
(0.067858979 -1.9826102e-07 0)
(0.019876741 -2.8635659e-08 0)
(0.019875204 2.1581952e-08 0)
(0.067853804 1.6849583e-07 0)
(0.13564677 7.5543747e-07 0)
(0.23015754 2.2932227e-06 0)
(0.35939013 5.7178503e-06 0)
(0.5312642 1.261928e-05 0)
(0.75096731 2.5260375e-05 0)
(1.0163913 4.5679207e-05 0)
(1.3121823 7.2305884e-05 0)
(1.6051598 9.2969814e-05 0)
(1.8463554 8.3347447e-05 0)
(1.9839651 3.3688383e-05 0)
(1.9839651 -3.3688329e-05 0)
(1.8463554 -8.3347202e-05 0)
(1.6051598 -9.2968328e-05 0)
(1.3121823 -7.2302403e-05 0)
(1.0163913 -4.5674355e-05 0)
(0.75096732 -2.5256711e-05 0)
(0.53126422 -1.2621854e-05 0)
(0.35939014 -5.7308816e-06 0)
(0.23015754 -2.3148527e-06 0)
(0.13564677 -7.7737476e-07 0)
(0.067853804 -1.8348172e-07 0)
(0.019875204 -2.6541439e-08 0)
(0.019873782 2.1020178e-08 0)
(0.067849014 1.5922582e-07 0)
(0.13563735 7.0459686e-07 0)
(0.23014196 2.1299189e-06 0)
(0.35936672 5.3035825e-06 0)
(0.53123169 1.1704395e-05 0)
(0.75092605 2.3443395e-05 0)
(1.0163458 4.2447742e-05 0)
(1.312145 6.7363902e-05 0)
(1.6051508 8.7103822e-05 0)
(1.8463877 7.8782045e-05 0)
(1.984027 3.2022899e-05 0)
(1.984027 -3.2022313e-05 0)
(1.8463877 -7.8781555e-05 0)
(1.6051508 -8.7103029e-05 0)
(1.312145 -6.7362758e-05 0)
(1.0163459 -4.2446542e-05 0)
(0.75092607 -2.344302e-05 0)
(0.5312317 -1.1707535e-05 0)
(0.35936673 -5.3129056e-06 0)
(0.23014196 -2.1444049e-06 0)
(0.13563735 -7.1904467e-07 0)
(0.067849013 -1.6904992e-07 0)
(0.019873782 -2.4268803e-08 0)
(0.019872463 2.1232928e-08 0)
(0.067844567 1.5306763e-07 0)
(0.13562861 6.6209973e-07 0)
(0.23012749 1.9862982e-06 0)
(0.35934498 4.9329888e-06 0)
(0.53120147 1.0881474e-05 0)
(0.75088765 2.180543e-05 0)
(1.0163034 3.9526935e-05 0)
(1.3121099 6.2871336e-05 0)
(1.6051417 8.1697879e-05 0)
(1.8464177 7.4489595e-05 0)
(1.9840856 3.0444151e-05 0)
(1.9840856 -3.0442585e-05 0)
(1.8464177 -7.4488438e-05 0)
(1.6051417 -8.1697564e-05 0)
(1.3121099 -6.2872577e-05 0)
(1.0163034 -3.9529814e-05 0)
(0.75088766 -2.1809322e-05 0)
(0.53120148 -1.0886681e-05 0)
(0.35934498 -4.9403738e-06 0)
(0.23012749 -1.9953065e-06 0)
(0.13562861 -6.7030557e-07 0)
(0.067844567 -1.5843156e-07 0)
(0.019872463 -2.2983168e-08 0)
(0.019871235 2.1769076e-08 0)
(0.067840432 1.4854937e-07 0)
(0.13562048 6.2525746e-07 0)
(0.23011403 1.8580922e-06 0)
(0.35932475 4.5989997e-06 0)
(0.53117333 1.0137366e-05 0)
(0.75085184 2.0321693e-05 0)
(1.0162637 3.6874622e-05 0)
(1.3120767 5.8770783e-05 0)
(1.6051326 7.6702893e-05 0)
(1.8464456 7.0449294e-05 0)
(1.9841411 2.8945458e-05 0)
(1.9841411 -2.8942729e-05 0)
(1.8464457 -7.0447265e-05 0)
(1.6051326 -7.6702749e-05 0)
(1.3120767 -5.8773829e-05 0)
(1.0162637 -3.6880531e-05 0)
(0.75085185 -2.0328265e-05 0)
(0.53117334 -1.0142315e-05 0)
(0.35932475 -4.6012072e-06 0)
(0.23011403 -1.8578546e-06 0)
(0.13562048 -6.2391753e-07 0)
(0.067840432 -1.4736128e-07 0)
(0.019871236 -2.1348877e-08 0)
(0.019870092 2.2162935e-08 0)
(0.067836577 1.4417442e-07 0)
(0.1356129 5.9144195e-07 0)
(0.23010149 1.7413893e-06 0)
(0.35930588 4.2955869e-06 0)
(0.53114707 9.4612709e-06 0)
(0.75081838 1.8971924e-05 0)
(1.0162265 3.4456131e-05 0)
(1.3120454 5.5014238e-05 0)
(1.6051236 7.2076837e-05 0)
(1.8464716 6.6641848e-05 0)
(1.9841937 2.7520764e-05 0)
(1.9841937 -2.7516972e-05 0)
(1.8464717 -6.6639019e-05 0)
(1.6051236 -7.2076729e-05 0)
(1.3120454 -5.5018476e-05 0)
(1.0162265 -3.4463953e-05 0)
(0.75081839 -1.8979811e-05 0)
(0.53114708 -9.4645781e-06 0)
(0.35930588 -4.2913473e-06 0)
(0.23010149 -1.730884e-06 0)
(0.13561291 -5.7985627e-07 0)
(0.067836579 -1.3605165e-07 0)
(0.019870092 -1.9456788e-08 0)
(0.019869024 2.2005063e-08 0)
(0.067832979 1.3863011e-07 0)
(0.13560583 5.5836506e-07 0)
(0.23008977 1.6328344e-06 0)
(0.35928825 4.0176845e-06 0)
(0.53112253 8.8442346e-06 0)
(0.75078708 1.7739398e-05 0)
(1.0161916 3.2242793e-05 0)
(1.3120158 5.1561639e-05 0)
(1.6051148 6.7782989e-05 0)
(1.8464959 6.3052248e-05 0)
(1.9842435 2.6165373e-05 0)
(1.9842435 -2.6160831e-05 0)
(1.8464959 -6.3048856e-05 0)
(1.6051148 -6.7782886e-05 0)
(1.3120158 -5.1566459e-05 0)
(1.0161916 -3.2251633e-05 0)
(0.75078709 -1.774844e-05 0)
(0.53112254 -8.8480092e-06 0)
(0.35928825 -4.0123636e-06 0)
(0.23008977 -1.6197765e-06 0)
(0.13560583 -5.4392876e-07 0)
(0.067832981 -1.2846932e-07 0)
(0.019869025 -1.8612387e-08 0)
(0.019868026 2.1023608e-08 0)
(0.067829616 1.3103032e-07 0)
(0.13559921 5.2441613e-07 0)
(0.23007881 1.5299041e-06 0)
(0.35927176 3.7611988e-06 0)
(0.53109957 8.2787546e-06 0)
(0.75075776 1.6610023e-05 0)
(1.0161588 3.021044e-05 0)
(1.3119879 4.8378827e-05 0)
(1.6051061 6.3790474e-05 0)
(1.8465185 5.9663751e-05 0)
(1.9842908 2.4874345e-05 0)
(1.9842908 -2.4869539e-05 0)
(1.8465185 -5.9660219e-05 0)
(1.6051062 -6.3790325e-05 0)
(1.3119879 -4.8383335e-05 0)
(1.0161588 -3.0218451e-05 0)
(0.75075777 -1.6617979e-05 0)
(0.53109957 -8.2814814e-06 0)
(0.35927177 -3.7548902e-06 0)
(0.23007882 -1.5158816e-06 0)
(0.13559922 -5.0918508e-07 0)
(0.067829618 -1.2037062e-07 0)
(0.019868027 -1.746936e-08 0)
(0.019867092 1.9126606e-08 0)
(0.067826467 1.2104136e-07 0)
(0.13559302 4.8883502e-07 0)
(0.23006855 1.4310415e-06 0)
(0.35925632 3.5229887e-06 0)
(0.53107805 7.7585184e-06 0)
(0.75073027 1.5571783e-05 0)
(1.016128 2.8338633e-05 0)
(1.3119615 4.5437048e-05 0)
(1.6050977 6.0070751e-05 0)
(1.8465397 5.6466331e-05 0)
(1.9843355 2.3644804e-05 0)
(1.9843355 -2.3640292e-05 0)
(1.8465397 -5.6463179e-05 0)
(1.6050977 -6.0070736e-05 0)
(1.3119615 -4.5440693e-05 0)
(1.016128 -2.8344464e-05 0)
(0.75073028 -1.5576811e-05 0)
(0.53107806 -7.7584536e-06 0)
(0.35925633 -3.514609e-06 0)
(0.23006856 -1.4158256e-06 0)
(0.13559302 -4.7308796e-07 0)
(0.067826469 -1.1022827e-07 0)
(0.019867093 -1.5544083e-08 0)
(0.019866217 1.6457962e-08 0)
(0.067823516 1.0905096e-07 0)
(0.13558721 4.5195675e-07 0)
(0.23005893 1.3358817e-06 0)
(0.35924184 3.3009477e-06 0)
(0.53105787 7.2782581e-06 0)
(0.75070446 1.4614302e-05 0)
(1.0160991 2.6609689e-05 0)
(1.3119366 4.2711127e-05 0)
(1.6050896 5.660108e-05 0)
(1.8465595 5.3443743e-05 0)
(1.9843779 2.2472254e-05 0)
(1.9843779 -2.2468524e-05 0)
(1.8465595 -5.344143e-05 0)
(1.6050896 -5.6601423e-05 0)
(1.3119366 -4.2713824e-05 0)
(1.0160991 -2.6613339e-05 0)
(0.75070447 -1.4617393e-05 0)
(0.53105787 -7.2788462e-06 0)
(0.35924185 -3.2974264e-06 0)
(0.23005894 -1.3288873e-06 0)
(0.13558722 -4.4454344e-07 0)
(0.067823518 -1.0389702e-07 0)
(0.019866217 -1.474116e-08 0)
(0.019865395 1.3367629e-08 0)
(0.067820748 9.6079555e-08 0)
(0.13558177 4.1508668e-07 0)
(0.23004991 1.2451348e-06 0)
(0.35922825 3.0939223e-06 0)
(0.53103891 6.8336537e-06 0)
(0.75068021 1.3728625e-05 0)
(1.0160718 2.5008492e-05 0)
(1.3119131 4.0179932e-05 0)
(1.6050817 5.3358325e-05 0)
(1.846578 5.0591023e-05 0)
(1.9844181 2.135556e-05 0)
(1.9844181 -2.1353011e-05 0)
(1.846578 -5.0589883e-05 0)
(1.6050817 -5.3359158e-05 0)
(1.3119131 -4.0181505e-05 0)
(1.0160718 -2.5009558e-05 0)
(0.75068022 -1.3729468e-05 0)
(0.53103893 -6.8354827e-06 0)
(0.35922826 -3.0974659e-06 0)
(0.23004992 -1.2498718e-06 0)
(0.13558177 -4.1952594e-07 0)
(0.067820749 -9.8984884e-08 0)
(0.019865396 -1.4310803e-08 0)
(0.019864624 1.0327012e-08 0)
(0.067818148 8.3523189e-08 0)
(0.13557665 3.8012009e-07 0)
(0.23004143 1.1602031e-06 0)
(0.35921549 2.9014602e-06 0)
(0.5310211 6.4212234e-06 0)
(0.7506574 1.2907097e-05 0)
(1.0160462 2.3521823e-05 0)
(1.3118908 3.7824331e-05 0)
(1.6050741 5.0325934e-05 0)
(1.8465954 4.7890533e-05 0)
(1.9844562 2.0289861e-05 0)
(1.9844562 -2.0288769e-05 0)
(1.8465954 -4.7890852e-05 0)
(1.6050741 -5.032739e-05 0)
(1.3118908 -3.7824914e-05 0)
(1.0160462 -2.3520156e-05 0)
(0.75065742 -1.2904559e-05 0)
(0.53102112 -6.4212335e-06 0)
(0.3592155 -2.906617e-06 0)
(0.23004144 -1.1697617e-06 0)
(0.13557666 -3.9014062e-07 0)
(0.067818149 -9.0456269e-08 0)
(0.019864625 -1.2629502e-08 0)
(0.019863899 7.7789849e-09 0)
(0.067815704 7.2697373e-08 0)
(0.13557185 3.4886513e-07 0)
(0.23003346 1.082496e-06 0)
(0.35920348 2.7233452e-06 0)
(0.53100435 6.0380903e-06 0)
(0.75063594 1.2143226e-05 0)
(1.016022 2.2138604e-05 0)
(1.3118697 3.5628837e-05 0)
(1.6050668 4.7484509e-05 0)
(1.8466117 4.5343126e-05 0)
(1.9844922 1.9275947e-05 0)
(1.9844922 -1.927632e-05 0)
(1.8466117 -4.5344884e-05 0)
(1.6050668 -4.7486866e-05 0)
(1.3118698 -3.5629262e-05 0)
(1.016022 -2.2135941e-05 0)
(0.75063596 -1.2139892e-05 0)
(0.53100437 -6.039472e-06 0)
(0.35920349 -2.7336917e-06 0)
(0.23003347 -1.1004406e-06 0)
(0.13557185 -3.6732896e-07 0)
(0.067815704 -8.5381072e-08 0)
(0.019863899 -1.198347e-08 0)
(0.019863218 6.0289065e-09 0)
(0.067813405 6.4501619e-08 0)
(0.13556732 3.225289e-07 0)
(0.23002597 1.0128766e-06 0)
(0.35919219 2.5591813e-06 0)
(0.53098859 5.6817615e-06 0)
(0.75061574 1.1431504e-05 0)
(1.0159992 2.0848995e-05 0)
(1.3118498 3.3578458e-05 0)
(1.6050598 4.4822145e-05 0)
(1.846627 4.2927692e-05 0)
(1.9845265 1.8307775e-05 0)
(1.9845265 -1.8309383e-05 0)
(1.846627 -4.2930635e-05 0)
(1.6050598 -4.4825313e-05 0)
(1.3118499 -3.3579245e-05 0)
(1.0159992 -2.0846501e-05 0)
(0.75061575 -1.1428839e-05 0)
(0.5309886 -5.685877e-06 0)
(0.3591922 -2.5757627e-06 0)
(0.23002597 -1.0398642e-06 0)
(0.13556732 -3.497903e-07 0)
(0.067813404 -8.3099211e-08 0)
(0.019863217 -1.2180882e-08 0)
(0.019862576 5.2016084e-09 0)
(0.067811241 5.9290925e-08 0)
(0.13556306 3.0153474e-07 0)
(0.23001891 9.5148944e-07 0)
(0.35918156 2.4082791e-06 0)
(0.53097375 5.3500249e-06 0)
(0.7505967 1.0767317e-05 0)
(1.0159777 1.9645118e-05 0)
(1.311831 3.1662263e-05 0)
(1.605053 4.2322351e-05 0)
(1.8466414 4.06523e-05 0)
(1.9845589 1.7388437e-05 0)
(1.9845589 -1.7390881e-05 0)
(1.8466414 -4.0656056e-05 0)
(1.605053 -4.2326234e-05 0)
(1.311831 -3.1663836e-05 0)
(1.0159777 -1.9643347e-05 0)
(0.75059671 -1.076484e-05 0)
(0.53097376 -5.3536011e-06 0)
(0.35918156 -2.4238913e-06 0)
(0.23001891 -9.7753329e-07 0)
(0.13556306 -3.281459e-07 0)
(0.06781124 -7.757848e-08 0)
(0.019862575 -1.1270926e-08 0)
(0.019861971 5.2424236e-09 0)
(0.067809202 5.6877915e-08 0)
(0.13555905 2.8551005e-07 0)
(0.23001226 8.9769434e-07 0)
(0.35917154 2.2695191e-06 0)
(0.53095976 5.0407736e-06 0)
(0.75057875 1.0146602e-05 0)
(1.0159574 1.8519366e-05 0)
(1.3118132 2.9867638e-05 0)
(1.6050466 3.9976208e-05 0)
(1.8466549 3.8489691e-05 0)
(1.9845896 1.6509618e-05 0)
(1.9845897 -1.6512336e-05 0)
(1.8466549 -3.849377e-05 0)
(1.6050466 -3.9980782e-05 0)
(1.3118132 -2.9870817e-05 0)
(1.0159574 -1.8520089e-05 0)
(0.75057876 -1.0146664e-05 0)
(0.53095977 -5.0458564e-06 0)
(0.35917154 -2.2850522e-06 0)
(0.23001226 -9.2239016e-07 0)
(0.13555905 -3.104345e-07 0)
(0.067809201 -7.3936185e-08 0)
(0.01986197 -1.0897594e-08 0)
(0.019861401 5.9918543e-09 0)
(0.067807281 5.6769413e-08 0)
(0.13555527 2.7367236e-07 0)
(0.230006 8.505207e-07 0)
(0.3591621 2.1417372e-06 0)
(0.53094657 4.7522138e-06 0)
(0.75056183 9.5660883e-06 0)
(1.0159383 1.7466369e-05 0)
(1.3117964 2.8187781e-05 0)
(1.6050404 3.7770344e-05 0)
(1.8466676 3.6457702e-05 0)
(1.9846187 1.5677677e-05 0)
(1.9846187 -1.5679994e-05 0)
(1.8466676 -3.646148e-05 0)
(1.6050404 -3.7775372e-05 0)
(1.3117964 -2.8192921e-05 0)
(1.0159383 -1.747055e-05 0)
(0.75056183 -9.5699542e-06 0)
(0.53094658 -4.7597725e-06 0)
(0.3591621 -2.157295e-06 0)
(0.23000599 -8.7302613e-07 0)
(0.13555527 -2.9571686e-07 0)
(0.067807279 -7.1674303e-08 0)
(0.019861401 -1.0912802e-08 0)
(0.019860864 7.2373922e-09 0)
(0.067805469 5.8309047e-08 0)
(0.13555171 2.6498293e-07 0)
(0.23000009 8.0870318e-07 0)
(0.35915319 2.0235398e-06 0)
(0.53093413 4.4824866e-06 0)
(0.75054585 9.0224645e-06 0)
(1.0159202 1.647948e-05 0)
(1.3117804 2.6610415e-05 0)
(1.6050345 3.5696416e-05 0)
(1.8466796 3.4519203e-05 0)
(1.9846464 1.4880485e-05 0)
(1.9846464 -1.4881845e-05 0)
(1.8466796 -3.4522184e-05 0)
(1.6050345 -3.5701564e-05 0)
(1.3117804 -2.6617434e-05 0)
(1.0159202 -1.6487028e-05 0)
(0.75054586 -9.0294012e-06 0)
(0.53093414 -4.489998e-06 0)
(0.35915319 -2.0339071e-06 0)
(0.23000008 -8.2178897e-07 0)
(0.1355517 -2.7726234e-07 0)
(0.067805467 -6.6497552e-08 0)
(0.019860863 -9.9315391e-09 0)
(0.019860357 8.7917803e-09 0)
(0.06780376 6.0930274e-08 0)
(0.13554834 2.5860002e-07 0)
(0.22999451 7.7133761e-07 0)
(0.35914479 1.9140845e-06 0)
(0.5309224 4.2304697e-06 0)
(0.75053078 8.5136756e-06 0)
(1.0159031 1.5555776e-05 0)
(1.3117654 2.5133604e-05 0)
(1.6050288 3.3746195e-05 0)
(1.8466908 3.2706016e-05 0)
(1.9846724 1.4129285e-05 0)
(1.9846724 -1.4129368e-05 0)
(1.8466909 -3.27079e-05 0)
(1.6050288 -3.375127e-05 0)
(1.3117654 -2.5142425e-05 0)
(1.0159031 -1.5566893e-05 0)
(0.75053078 -8.5243121e-06 0)
(0.5309224 -4.2388316e-06 0)
(0.35914479 -1.9200269e-06 0)
(0.22999451 -7.7535861e-07 0)
(0.13554834 -2.6111805e-07 0)
(0.067803759 -6.2273502e-08 0)
(0.019860357 -9.199109e-09 0)
(0.019859878 1.0474909e-08 0)
(0.067802145 6.4071604e-08 0)
(0.13554517 2.5361876e-07 0)
(0.22998925 7.3730011e-07 0)
(0.35913686 1.8121161e-06 0)
(0.53091131 3.9944969e-06 0)
(0.75051654 8.0366406e-06 0)
(1.015887 1.4688283e-05 0)
(1.3117511 2.3742702e-05 0)
(1.6050235 3.1907828e-05 0)
(1.8467016 3.0965822e-05 0)
(1.9846974 1.3405996e-05 0)
(1.9846974 -1.3404809e-05 0)
(1.8467016 -3.0966518e-05 0)
(1.6050235 -3.1912539e-05 0)
(1.3117511 -2.3752688e-05 0)
(1.015887 -1.4702083e-05 0)
(0.75051653 -8.0501209e-06 0)
(0.53091131 -4.0030905e-06 0)
(0.35913685 -1.813248e-06 0)
(0.22998924 -7.3199451e-07 0)
(0.13554517 -2.4619112e-07 0)
(0.067802145 -5.845958e-08 0)
(0.019859878 -8.5602152e-09 0)
(0.019859426 1.2099767e-08 0)
(0.067800623 6.7184804e-08 0)
(0.13554217 2.4930965e-07 0)
(0.22998428 7.0602099e-07 0)
(0.35912938 1.7174711e-06 0)
(0.53090086 3.7745611e-06 0)
(0.7505031 7.5911791e-06 0)
(1.0158717 1.3877945e-05 0)
(1.3117376 2.2443846e-05 0)
(1.6050183 3.0183757e-05 0)
(1.8467115 2.9351403e-05 0)
(1.9847207 1.27297e-05 0)
(1.9847207 -1.2727723e-05 0)
(1.8467115 -2.9351225e-05 0)
(1.6050183 -3.0187887e-05 0)
(1.3117376 -2.2453987e-05 0)
(1.0158717 -1.3892607e-05 0)
(0.7505031 -7.6051534e-06 0)
(0.53090085 -3.7807183e-06 0)
(0.35912937 -1.7108738e-06 0)
(0.22998428 -6.8848561e-07 0)
(0.13554217 -2.2957907e-07 0)
(0.067800623 -5.3178812e-08 0)
(0.019859427 -7.4072776e-09 0)
(0.019858999 1.3394523e-08 0)
(0.067799181 6.9413267e-08 0)
(0.13553933 2.4425963e-07 0)
(0.22997958 6.7570431e-07 0)
(0.35912229 1.6281797e-06 0)
(0.53089095 3.5683459e-06 0)
(0.75049037 7.1733742e-06 0)
(1.0158573 1.3115272e-05 0)
(1.3117247 2.1215304e-05 0)
(1.6050134 2.8551108e-05 0)
(1.8467211 2.7787549e-05 0)
(1.9847432 1.207316e-05 0)
(1.9847432 -1.2071269e-05 0)
(1.8467211 -2.7787109e-05 0)
(1.6050134 -2.8554616e-05 0)
(1.3117247 -2.1224552e-05 0)
(1.0158573 -1.3128979e-05 0)
(0.75049036 -7.1861266e-06 0)
(0.53089094 -3.5715468e-06 0)
(0.35912228 -1.6151842e-06 0)
(0.22997957 -6.4876803e-07 0)
(0.13553933 -2.1525048e-07 0)
(0.067799181 -4.9108295e-08 0)
(0.019858999 -6.6195374e-09 0)
(0.019858596 1.4035946e-08 0)
(0.067797823 6.9831069e-08 0)
(0.13553666 2.3734692e-07 0)
(0.22997515 6.4581265e-07 0)
(0.35911561 1.5450162e-06 0)
(0.53088163 3.3779747e-06 0)
(0.75047839 6.78701e-06 0)
(1.0158437 1.2409401e-05 0)
(1.3117127 2.00795e-05 0)
(1.6050088 2.7035329e-05 0)
(1.8467299 2.6359523e-05 0)
(1.984764 1.146845e-05 0)
(1.984764 -1.1467782e-05 0)
(1.8467299 -2.6359645e-05 0)
(1.6050088 -2.7038198e-05 0)
(1.3117127 -2.008659e-05 0)
(1.0158437 -1.2419783e-05 0)