/*--------------------------------*- C++ -*----------------------------------*\
| =========                 |                                                 |
| \\      /  F ield         | OpenFOAM: The Open Source CFD Toolbox           |
|  \\    /   O peration     | Version:  2406                                  |
|   \\  /    A nd           | Website:  www.openfoam.com                      |
|    \\/     M anipulation  |                                                 |
\*---------------------------------------------------------------------------*/
FoamFile
{
    version     2.0;
    format      ascii;
    arch        "LSB;label=32;scalar=64";
    class       volScalarField;
    location    "3.25";
    object      p;
}
// * * * * * * * * * * * * * * * * * * * * * * * * * * * * * * * * * * * * * //

dimensions      [0 2 -2 0 0 0 0];

internalField   nonuniform List<scalar> 
34560
(
-40.893019
-40.881728
-40.867744
-40.852122
-40.835382
-40.820272
-40.809617
-40.804162
-40.802802
-40.963969
-40.950834
-40.933998
-40.91415
-40.891927
-40.870828
-40.854432
-40.844127
-40.839495
-41.024512
-41.010036
-40.991408
-40.969169
-40.943673
-40.918468
-40.897425
-40.882323
-40.873246
-41.081555
-41.065873
-41.045525
-41.020911
-40.992285
-40.963258
-40.937743
-40.917665
-40.903561
-41.134284
-41.117554
-41.095712
-41.06897
-41.03746
-41.004801
-40.97489
-40.949925
-40.930844
-41.180205
-41.162881
-41.140093
-41.11182
-41.078001
-41.042178
-41.008262
-40.978762
-40.95506
-41.220462
-41.202607
-41.178977
-41.149354
-41.113505
-41.074883
-41.037428
-41.0039
-40.976047
-41.254305
-41.236059
-41.211789
-41.181075
-41.14351
-41.102482
-41.062023
-41.0251
-40.993674
-41.281536
-41.263017
-41.238266
-41.206688
-41.167717
-41.124693
-41.0818
-41.042158
-41.007829
-41.301825
-41.28316
-41.258108
-41.225917
-41.185893
-41.141341
-41.096602
-41.054927
-41.018415
-41.315286
-41.296524
-41.271276
-41.238686
-41.197963
-41.152386
-41.106399
-41.06337
-41.025406
-41.32215
-41.303326
-41.277954
-41.245124
-41.204004
-41.157867
-41.111213
-41.067481
-41.028777
-41.322152
-41.303327
-41.277955
-41.245125
-41.204004
-41.157867
-41.111213
-41.067481
-41.028777
-41.315288
-41.296526
-41.271278
-41.238688
-41.197964
-41.152387
-41.106399
-41.063369
-41.025406
-41.301826
-41.283162
-41.25811
-41.225919
-41.185895
-41.141342
-41.096603
-41.054927
-41.018415
-41.281538
-41.263019
-41.238268
-41.20669
-41.167719
-41.124695
-41.081801
-41.042159
-41.00783
-41.254307
-41.236062
-41.211791
-41.181077
-41.143513
-41.102486
-41.062026
-41.025103
-40.993676
-41.220464
-41.202609
-41.17898
-41.149358
-41.11351
-41.074888
-41.037433
-41.003904
-40.97605
-41.180209
-41.162885
-41.140097
-41.111824
-41.078005
-41.042183
-41.008267
-40.978767
-40.955064
-41.134287
-41.117557
-41.095715
-41.068973
-41.037464
-41.004805
-40.974895
-40.949931
-40.930849
-41.08156
-41.065877
-41.045529
-41.020916
-40.992289
-40.963262
-40.937748
-40.917671
-40.903568
-41.024517
-41.010041
-40.991412
-40.969173
-40.943677
-40.918472
-40.897431
-40.882329
-40.873254
-40.963975
-40.950839
-40.934003
-40.914155
-40.891931
-40.870831
-40.854437
-40.844133
-40.839504
-40.893025
-40.881734
-40.867749
-40.852127
-40.835386
-40.820275
-40.809621
-40.804168
-40.802813
-38.076333
-38.076018
-38.075631
-38.075271
-38.074803
-38.073936
-38.072371
-38.069727
-38.065943
-38.081803
-38.081449
-38.080974
-38.080424
-38.079578
-38.078059
-38.075476
-38.071401
-38.06574
-38.086229
-38.085869
-38.085378
-38.084782
-38.083757
-38.081762
-38.078265
-38.072787
-38.065296
-38.090332
-38.089985
-38.089479
-38.088807
-38.087562
-38.085049
-38.080592
-38.073644
-38.064392
-38.093898
-38.093577
-38.093074
-38.092345
-38.090884
-38.087838
-38.082386
-38.073956
-38.063132
-38.096748
-38.096479
-38.096015
-38.095266
-38.09362
-38.090061
-38.083624
-38.073812
-38.061673
-38.099011
-38.098785
-38.098352
-38.097582
-38.09577
-38.091738
-38.084378
-38.073316
-38.060123
-38.100697
-38.100511
-38.10011
-38.099328
-38.097388
-38.092941
-38.084734
-38.072602
-38.058603
-38.101902
-38.101754
-38.101385
-38.100597
-38.098544
-38.093743
-38.084825
-38.071832
-38.057231
-38.1027
-38.102585
-38.102243
-38.101454
-38.09931
-38.094227
-38.084753
-38.071132
-38.056113
-38.103166
-38.103068
-38.102746
-38.101962
-38.099763
-38.094487
-38.084644
-38.07062
-38.055338
-38.103419
-38.103328
-38.103014
-38.102233
-38.100012
-38.094643
-38.084616
-38.07039
-38.054974
-38.10342
-38.103329
-38.103014
-38.102234
-38.100012
-38.094643
-38.084617
-38.070391
-38.054974
-38.103167
-38.103069
-38.102747
-38.101963
-38.099764
-38.094488
-38.084645
-38.070621
-38.055339
-38.102701
-38.102586
-38.102244
-38.101456
-38.099311
-38.094229
-38.084754
-38.071133
-38.056114
-38.101903
-38.101755
-38.101387
-38.100599
-38.098546
-38.093745
-38.084827
-38.071834
-38.057233
-38.100699
-38.100513
-38.100112
-38.09933
-38.09739
-38.092943
-38.084737
-38.072605
-38.058605
-38.099014
-38.098787
-38.098354
-38.097585
-38.095773
-38.091742
-38.084382
-38.073319
-38.060126
-38.096752
-38.096483
-38.096019
-38.09527
-38.093624
-38.090065
-38.083628
-38.073816
-38.061676
-38.093902
-38.093581
-38.093078
-38.092349
-38.090889
-38.087843
-38.082391
-38.07396
-38.063136
-38.090338
-38.08999
-38.089484
-38.088812
-38.087566
-38.085054
-38.080597
-38.073649
-38.064396
-38.086234
-38.085875
-38.085383
-38.084787
-38.083762
-38.081768
-38.078271
-38.072793
-38.065302
-38.081809
-38.081456
-38.08098
-38.08043
-38.079585
-38.078065
-38.075482
-38.071408
-38.065747
-38.076339
-38.076024
-38.075637
-38.075277
-38.074809
-38.073942
-38.072377
-38.069734
-38.06595
-36.955015
-36.954828
-36.954578
-36.95423
-36.953951
-36.954108
-36.955046
-36.956727
-36.958305
-36.961143
-36.960915
-36.96054
-36.959922
-36.959243
-36.958923
-36.959331
-36.96047
-36.961837
-36.966614
-36.966372
-36.965951
-36.96522
-36.964356
-36.963801
-36.963935
-36.964805
-36.966158
-36.97171
-36.971451
-36.970987
-36.970163
-36.969155
-36.96843
-36.968373
-36.969046
-36.970313
-36.976379
-36.976111
-36.975616
-36.974714
-36.973582
-36.972702
-36.972475
-36.972989
-36.974123
-36.98052
-36.980265
-36.979768
-36.978819
-36.977595
-36.976581
-36.976208
-36.976617
-36.97759
-36.984177
-36.983933
-36.983434
-36.982447
-36.981151
-36.980024
-36.979517
-36.979849
-36.980668
-36.987296
-36.987067
-36.986572
-36.98556
-36.984203
-36.982991
-36.982384
-36.982637
-36.983308
-36.98984
-36.989625
-36.989138
-36.988109
-36.986712
-36.985437
-36.984758
-36.984935
-36.985474
-36.991768
-36.991568
-36.991092
-36.990056
-36.988633
-36.98732
-36.986603
-36.986704
-36.987132
-36.993069
-36.99288
-36.992411
-36.99137
-36.989931
-36.988594
-36.987856
-36.987902
-36.988251
-36.993724
-36.99354
-36.993074
-36.99203
-36.990581
-36.989232
-36.988482
-36.9885
-36.98881
-36.993724
-36.99354
-36.993075
-36.992031
-36.990581
-36.989232
-36.988483
-36.988501
-36.988811
-36.993069
-36.99288
-36.992412
-36.991371
-36.989932
-36.988595
-36.987857
-36.987903
-36.988252
-36.991769
-36.991569
-36.991093
-36.990057
-36.988635
-36.987321
-36.986605
-36.986705
-36.987133
-36.989842
-36.989627
-36.98914
-36.988111
-36.986714
-36.985439
-36.98476
-36.984937
-36.985475
-36.987299
-36.987069
-36.986575
-36.985562
-36.984206
-36.982993
-36.982386
-36.982639
-36.98331
-36.984179
-36.983936
-36.983437
-36.98245
-36.981153
-36.980027
-36.979519
-36.979852
-36.98067
-36.980523
-36.980268
-36.979771
-36.978823
-36.977598
-36.976584
-36.976211
-36.97662
-36.977593
-36.976382
-36.976114
-36.97562
-36.974717
-36.973585
-36.972706
-36.972478
-36.972993
-36.974126
-36.971713
-36.971455
-36.970991
-36.970166
-36.969159
-36.968434
-36.968377
-36.969049
-36.970315
-36.966618
-36.966376
-36.965954
-36.965224
-36.96436
-36.963805
-36.963939
-36.964809
-36.966161
-36.961147
-36.960919
-36.960544
-36.959926
-36.959248
-36.958927
-36.959335
-36.960473
-36.961838
-36.955019
-36.954832
-36.954581
-36.954234
-36.953955
-36.954112
-36.955049
-36.956728
-36.958306
-34.93779
-34.937731
-34.937693
-34.937738
-34.937847
-34.937894
-34.937716
-34.937151
-34.936019
-34.93926
-34.93917
-34.93908
-34.939041
-34.938999
-34.938794
-34.938231
-34.937141
-34.935521
-34.940902
-34.940776
-34.940643
-34.940555
-34.94044
-34.940101
-34.939316
-34.93792
-34.936005
-34.942545
-34.942384
-34.942206
-34.942069
-34.941888
-34.941448
-34.940484
-34.938813
-34.93655
-34.944103
-34.943912
-34.943695
-34.943511
-34.943263
-34.942717
-34.941574
-34.939623
-34.937011
-34.945508
-34.945299
-34.945056
-34.944837
-34.944529
-34.943884
-34.942567
-34.940358
-34.937428
-34.946739
-34.946515
-34.94625
-34.946001
-34.945647
-34.944929
-34.943455
-34.941004
-34.937799
-34.947781
-34.947547
-34.947265
-34.946996
-34.94662
-34.945837
-34.944226
-34.94157
-34.938129
-34.948625
-34.948384
-34.948092
-34.94782
-34.947427
-34.946587
-34.944869
-34.942049
-34.938409
-34.949274
-34.949028
-34.948732
-34.94845
-34.948036
-34.947163
-34.945374
-34.942427
-34.938631
-34.949707
-34.949458
-34.94916
-34.948872
-34.948444
-34.947553
-34.945721
-34.942688
-34.938783
-34.949926
-34.949677
-34.949377
-34.949084
-34.94865
-34.947751
-34.9459
-34.942825
-34.938865
-34.949926
-34.949677
-34.949377
-34.949084
-34.94865
-34.947751
-34.9459
-34.942825
-34.938865
-34.949707
-34.949458
-34.94916
-34.948873
-34.948445
-34.947553
-34.945722
-34.942688
-34.938784
-34.949275
-34.949029
-34.948732
-34.948451
-34.948037
-34.947164
-34.945374
-34.942427
-34.938631
-34.948626
-34.948384
-34.948093
-34.94782
-34.947427
-34.946588
-34.944869
-34.942049
-34.93841
-34.947782
-34.947548
-34.947266
-34.946997
-34.946621
-34.945838
-34.944227
-34.941571
-34.93813
-34.94674
-34.946516
-34.946251
-34.946002
-34.945648
-34.94493
-34.943456
-34.941005
-34.9378
-34.945509
-34.9453
-34.945057
-34.944838
-34.94453
-34.943885
-34.942568
-34.940359
-34.937429
-34.944104
-34.943913
-34.943696
-34.943512
-34.943264
-34.942718
-34.941575
-34.939624
-34.937012
-34.942546
-34.942384
-34.942207
-34.94207
-34.941889
-34.941449
-34.940485
-34.938815
-34.936551
-34.940903
-34.940777
-34.940644
-34.940556
-34.94044
-34.940102
-34.939317
-34.937921
-34.936006
-34.93926
-34.93917
-34.939081
-34.939041
-34.938999
-34.938794
-34.938231
-34.937142
-34.935522
-34.93779
-34.937731
-34.937693
-34.937739
-34.937847
-34.937894
-34.937716
-34.937151
-34.936019
-33.354702
-33.354767
-33.354846
-33.354922
-33.35503
-33.355239
-33.355616
-33.356183
-33.356628
-33.355576
-33.355635
-33.355687
-33.355706
-33.355726
-33.355822
-33.356055
-33.356418
-33.35674
-33.356459
-33.356508
-33.356543
-33.35653
-33.356508
-33.356561
-33.356756
-33.357088
-33.357479
-33.35722
-33.357258
-33.357276
-33.357241
-33.357198
-33.357238
-33.357431
-33.357761
-33.358173
-33.357875
-33.357905
-33.35791
-33.357853
-33.357789
-33.357818
-33.358002
-33.358328
-33.358752
-33.358456
-33.358477
-33.358469
-33.358395
-33.358314
-33.358334
-33.358509
-33.358817
-33.359242
-33.358944
-33.358959
-33.358941
-33.358855
-33.35876
-33.358761
-33.358927
-33.359232
-33.359646
-33.359349
-33.359358
-33.359332
-33.359234
-33.359112
-33.359095
-33.359259
-33.35956
-33.35996
-33.359664
-33.35967
-33.359637
-33.359517
-33.359374
-33.359352
-33.359513
-33.359807
-33.360194
-33.359886
-33.359888
-33.359849
-33.35972
-33.359571
-33.359544
-33.359698
-33.359985
-33.36036
-33.360036
-33.360035
-33.359988
-33.359853
-33.359702
-33.359672
-33.359819
-33.360099
-33.360464
-33.360103
-33.360102
-33.360054
-33.359917
-33.359765
-33.359733
-33.359876
-33.360153
-33.360513
-33.360103
-33.360102
-33.360054
-33.359917
-33.359765
-33.359732
-33.359876
-33.360153
-33.360513
-33.360036
-33.360035
-33.359988
-33.359853
-33.359702
-33.359672
-33.359819
-33.360099
-33.360464
-33.359886
-33.359888
-33.359848
-33.359719
-33.35957
-33.359544
-33.359698
-33.359985
-33.360359
-33.359664
-33.359669
-33.359636
-33.359516
-33.359373
-33.359352
-33.359513
-33.359807
-33.360194
-33.359348
-33.359357
-33.359331
-33.359233
-33.359111
-33.359094
-33.359258
-33.359559
-33.359959
-33.358943
-33.358957
-33.358939
-33.358853
-33.358759
-33.35876
-33.358925
-33.359231
-33.359644
-33.358454
-33.358475
-33.358467
-33.358394
-33.358313
-33.358333
-33.358508
-33.358816
-33.359241
-33.357873
-33.357903
-33.357908
-33.357851
-33.357787
-33.357816
-33.358
-33.358327
-33.35875
-33.357217
-33.357255
-33.357274
-33.357239
-33.357196
-33.357236
-33.357429
-33.357759
-33.358171
-33.356456
-33.356506
-33.35654
-33.356527
-33.356506
-33.356558
-33.356754
-33.357086
-33.357477
-33.355573
-33.355631
-33.355684
-33.355702
-33.355723
-33.355819
-33.356052
-33.356415
-33.356738
-33.354698
-33.354764
-33.354842
-33.354918
-33.355026
-33.355235
-33.355613
-33.35618
-33.356625
-31.592022
-31.592045
-31.592089
-31.592168
-31.592273
-31.592376
-31.592437
-31.592424
-31.592232
-31.592511
-31.592529
-31.59256
-31.592613
-31.592669
-31.592687
-31.592614
-31.592415
-31.592077
-31.593125
-31.593135
-31.593156
-31.593193
-31.593224
-31.5932
-31.593065
-31.592794
-31.592428
-31.593734
-31.593734
-31.593743
-31.593768
-31.593784
-31.593736
-31.593566
-31.593248
-31.592828
-31.594319
-31.59431
-31.594306
-31.594316
-31.594313
-31.594243
-31.594038
-31.59367
-31.593191
-31.59486
-31.594844
-31.59483
-31.594828
-31.59481
-31.594717
-31.594479
-31.594064
-31.593527
-31.595343
-31.59532
-31.595299
-31.595286
-31.595254
-31.595142
-31.594877
-31.594423
-31.593832
-31.595758
-31.59573
-31.595703
-31.595682
-31.595638
-31.595513
-31.595227
-31.594739
-31.5941
-31.596095
-31.596065
-31.596033
-31.596006
-31.595955
-31.595821
-31.595518
-31.595002
-31.594322
-31.596354
-31.596321
-31.596286
-31.596255
-31.5962
-31.596058
-31.595742
-31.595205
-31.594493
-31.596529
-31.596495
-31.596458
-31.596425
-31.596367
-31.596219
-31.595894
-31.595342
-31.594608
-31.596616
-31.596582
-31.596543
-31.596509
-31.59645
-31.596299
-31.59597
-31.595411
-31.594666
-31.596616
-31.596581
-31.596543
-31.596509
-31.596449
-31.596299
-31.595969
-31.595411
-31.594666
-31.596528
-31.596494
-31.596457
-31.596424
-31.596366
-31.596218
-31.595893
-31.595341
-31.594607
-31.596352
-31.596319
-31.596284
-31.596253
-31.596198
-31.596056
-31.595741
-31.595203
-31.594491
-31.596093
-31.596062
-31.596031
-31.596004
-31.595953
-31.595819
-31.595516
-31.595
-31.59432
-31.595755
-31.595728
-31.5957
-31.595679
-31.595635
-31.59551
-31.595225
-31.594736
-31.594097
-31.595339
-31.595316
-31.595295
-31.595283
-31.595251
-31.595139
-31.594874
-31.59442
-31.593829
-31.594856
-31.59484
-31.594826
-31.594824
-31.594805
-31.594713
-31.594475
-31.59406
-31.593523
-31.594314
-31.594305
-31.594302
-31.594311
-31.594308
-31.594238
-31.594033
-31.593666
-31.593187
-31.593729
-31.593729
-31.593738
-31.593763
-31.593778
-31.593731
-31.593561
-31.593243
-31.592823
-31.593119
-31.593129
-31.593149
-31.593187
-31.593218
-31.593194
-31.593059
-31.592788
-31.592423
-31.592504
-31.592522
-31.592553
-31.592606
-31.592662
-31.59268
-31.592607
-31.592408
-31.59207
-31.592014
-31.592038
-31.592082
-31.59216
-31.592265
-31.592368
-31.592429
-31.592417
-31.592225
-29.893947
-29.893972
-29.894005
-29.894042
-29.894085
-29.894134
-29.894194
-29.894268
-29.894284
-29.894189
-29.894213
-29.894238
-29.894258
-29.894271
-29.894274
-29.894268
-29.894252
-29.894205
-29.894459
-29.89448
-29.894499
-29.894509
-29.894507
-29.894492
-29.894465
-29.894432
-29.894404
-29.894704
-29.894719
-29.894732
-29.894735
-29.894725
-29.894704
-29.894672
-29.894637
-29.894614
-29.894927
-29.894938
-29.894945
-29.89494
-29.894923
-29.894892
-29.894852
-29.894813
-29.894787
-29.895132
-29.895139
-29.895141
-29.895129
-29.895103
-29.89506
-29.895012
-29.894967
-29.894936
-29.895305
-29.895309
-29.895306
-29.895288
-29.895252
-29.895202
-29.895149
-29.895098
-29.895061
-29.895445
-29.895446
-29.895439
-29.895415
-29.895373
-29.895318
-29.895261
-29.895206
-29.895162
-29.895556
-29.895554
-29.895543
-29.895515
-29.895468
-29.895411
-29.895351
-29.895291
-29.895241
-29.895641
-29.895637
-29.895623
-29.895591
-29.895541
-29.895481
-29.895418
-29.895355
-29.895298
-29.895699
-29.895694
-29.895678
-29.895643
-29.895591
-29.895528
-29.895462
-29.895396
-29.895336
-29.895727
-29.895721
-29.895704
-29.895668
-29.895615
-29.895551
-29.895484
-29.895416
-29.895354
-29.895727
-29.895721
-29.895704
-29.895668
-29.895614
-29.895551
-29.895484
-29.895416
-29.895353
-29.895698
-29.895692
-29.895676
-29.895641
-29.895589
-29.895527
-29.895461
-29.895395
-29.895334
-29.895639
-29.895635
-29.895621
-29.895588
-29.895539
-29.895479
-29.895415
-29.895352
-29.895296
-29.895553
-29.895551
-29.89554
-29.895511
-29.895465
-29.895407
-29.895347
-29.895288
-29.895238
-29.895441
-29.895442
-29.895434
-29.89541
-29.895368
-29.895314
-29.895257
-29.895202
-29.895158
-29.895299
-29.895303
-29.895301
-29.895282
-29.895246
-29.895196
-29.895143
-29.895093
-29.895056
-29.895125
-29.895132
-29.895134
-29.895123
-29.895096
-29.895053
-29.895005
-29.894961
-29.89493
-29.894919
-29.89493
-29.894937
-29.894932
-29.894915
-29.894884
-29.894844
-29.894805
-29.89478
-29.894694
-29.89471
-29.894723
-29.894725
-29.894716
-29.894695
-29.894663
-29.894628
-29.894605
-29.894449
-29.894469
-29.894488
-29.894498
-29.894496
-29.894482
-29.894455
-29.894422
-29.894394
-29.894178
-29.894201
-29.894226
-29.894246
-29.894259
-29.894263
-29.894257
-29.89424
-29.894193
-29.893934
-29.893959
-29.893992
-29.894029
-29.894072
-29.894121
-29.894181
-29.894255
-29.894272
-28.183032
-28.183041
-28.183056
-28.183078
-28.183108
-28.183142
-28.183178
-28.183214
-28.183209
-28.1832
-28.183208
-28.183218
-28.183232
-28.183245
-28.183253
-28.183251
-28.183232
-28.183186
-28.183393
-28.183399
-28.183406
-28.183415
-28.18342
-28.183418
-28.183402
-28.183369
-28.183328
-28.183579
-28.183582
-28.183586
-28.18359
-28.183592
-28.183586
-28.183565
-28.183529
-28.183484
-28.183756
-28.183756
-28.183756
-28.183756
-28.183753
-28.183743
-28.183718
-28.183676
-28.183624
-28.183919
-28.183917
-28.183914
-28.18391
-28.183902
-28.183888
-28.183859
-28.183811
-28.183751
-28.184065
-28.18406
-28.184055
-28.184047
-28.184037
-28.18402
-28.183987
-28.183933
-28.183864
-28.184195
-28.184188
-28.184181
-28.184171
-28.184158
-28.184136
-28.184098
-28.184039
-28.183962
-28.184305
-28.184297
-28.184288
-28.184276
-28.18426
-28.184233
-28.184191
-28.184126
-28.184041
-28.184388
-28.184379
-28.184369
-28.184356
-28.184336
-28.184307
-28.184262
-28.184193
-28.184102
-28.184443
-28.184434
-28.184423
-28.184409
-28.184387
-28.184356
-28.184309
-28.184237
-28.184142
-28.184471
-28.184461
-28.18445
-28.184435
-28.184412
-28.184381
-28.184333
-28.18426
-28.184162
-28.18447
-28.184461
-28.184449
-28.184434
-28.184412
-28.18438
-28.184332
-28.184259
-28.184162
-28.184441
-28.184432
-28.184421
-28.184407
-28.184385
-28.184354
-28.184307
-28.184236
-28.18414
-28.184385
-28.184376
-28.184366
-28.184352
-28.184333
-28.184304
-28.184258
-28.184189
-28.184099
-28.1843
-28.184292
-28.184283
-28.184272
-28.184255
-28.184228
-28.184186
-28.184121
-28.184037
-28.184189
-28.184182
-28.184175
-28.184165
-28.184152
-28.18413
-28.184092
-28.184033
-28.183956
-28.184057
-28.184053
-28.184047
-28.18404
-28.184029
-28.184012
-28.183979
-28.183926
-28.183858
-28.18391
-28.183908
-28.183905
-28.183901
-28.183893
-28.183879
-28.18385
-28.183803
-28.183743
-28.183745
-28.183745
-28.183745
-28.183745
-28.183742
-28.183732
-28.183707
-28.183665
-28.183614
-28.183567
-28.18357
-28.183574
-28.183578
-28.183579
-28.183573
-28.183553
-28.183517
-28.183473
-28.183379
-28.183385
-28.183392
-28.1834
-28.183406
-28.183403
-28.183388
-28.183356
-28.183316
-28.183184
-28.183192
-28.183202
-28.183216
-28.183229
-28.183237
-28.183235
-28.183217
-28.183172
-28.183014
-28.183023
-28.183038
-28.183061
-28.18309
-28.183125
-28.183161
-28.183197
-28.183193
-26.473216
-26.47322
-26.473227
-26.473236
-26.473248
-26.473261
-26.473274
-26.473286
-26.473278
-26.473305
-26.473309
-26.473313
-26.473317
-26.47332
-26.473319
-26.47331
-26.473292
-26.473261
-26.473402
-26.473404
-26.473407
-26.473409
-26.473408
-26.473401
-26.473385
-26.47336
-26.473332
-26.473495
-26.473496
-26.473497
-26.473497
-26.473494
-26.473483
-26.473464
-26.473438
-26.473409
-26.47358
-26.47358
-26.473579
-26.473577
-26.473571
-26.473558
-26.473537
-26.473508
-26.473476
-26.473655
-26.473654
-26.473652
-26.473648
-26.47364
-26.473626
-26.473603
-26.473573
-26.473538
-26.47372
-26.473718
-26.473715
-26.47371
-26.473701
-26.473685
-26.473662
-26.473629
-26.473591
-26.473775
-26.473772
-26.473768
-26.473761
-26.473751
-26.473735
-26.473712
-26.473678
-26.473637
-26.473819
-26.473815
-26.47381
-26.473802
-26.473791
-26.473776
-26.473752
-26.473717
-26.473673
-26.473852
-26.473848
-26.473842
-26.473833
-26.473822
-26.473807
-26.473783
-26.473747
-26.473701
-26.473874
-26.47387
-26.473863
-26.473855
-26.473843
-26.473828
-26.473804
-26.473767
-26.473719
-26.473885
-26.47388
-26.473874
-26.473865
-26.473853
-26.473838
-26.473814
-26.473777
-26.473728
-26.473884
-26.47388
-26.473873
-26.473864
-26.473853
-26.473837
-26.473813
-26.473776
-26.473728
-26.473872
-26.473868
-26.473861
-26.473852
-26.473841
-26.473826
-26.473802
-26.473765
-26.473717
-26.473848
-26.473844
-26.473838
-26.473829
-26.473818
-26.473803
-26.473779
-26.473744
-26.473697
-26.473813
-26.47381
-26.473804
-26.473796
-26.473786
-26.47377
-26.473747
-26.473712
-26.473668
-26.473768
-26.473765
-26.47376
-26.473754
-26.473743
-26.473728
-26.473704
-26.473671
-26.47363
-26.473712
-26.473709
-26.473706
-26.4737
-26.473691
-26.473676
-26.473653
-26.473621
-26.473583
-26.473645
-26.473643
-26.473641
-26.473637
-26.473629
-26.473615
-26.473593
-26.473562
-26.473528
-26.473567
-26.473567
-26.473566
-26.473564
-26.473558
-26.473545
-26.473524
-26.473496
-26.473465
-26.47348
-26.473481
-26.473482
-26.473482
-26.473479
-26.473468
-26.47345
-26.473424
-26.473396
-26.473385
-26.473387
-26.47339
-26.473392
-26.473391
-26.473384
-26.473368
-26.473344
-26.473317
-26.473286
-26.47329
-26.473294
-26.473298
-26.473301
-26.4733
-26.473292
-26.473274
-26.473244
-26.473195
-26.473199
-26.473206
-26.473215
-26.473228
-26.473241
-26.473254
-26.473266
-26.473259
-24.765986
-24.765988
-24.765992
-24.765997
-24.766003
-24.766011
-24.766021
-24.766034
-24.766038
-24.766034
-24.766035
-24.766038
-24.76604
-24.766042
-24.766043
-24.766043
-24.766041
-24.766032
-24.766083
-24.766085
-24.766086
-24.766087
-24.766087
-24.766086
-24.766083
-24.766078
-24.766072
-24.766131
-24.766131
-24.766132
-24.766132
-24.766131
-24.766129
-24.766126
-24.766121
-24.766115
-24.766175
-24.766175
-24.766175
-24.766174
-24.766172
-24.766169
-24.766165
-24.76616
-24.766154
-24.766216
-24.766215
-24.766214
-24.766212
-24.766209
-24.766206
-24.766202
-24.766196
-24.766188
-24.766252
-24.766251
-24.766249
-24.766247
-24.766243
-24.766239
-24.766235
-24.766228
-24.766219
-24.766285
-24.766283
-24.766281
-24.766277
-24.766273
-24.766269
-24.766263
-24.766256
-24.766245
-24.766312
-24.76631
-24.766307
-24.766303
-24.766298
-24.766293
-24.766287
-24.766278
-24.766266
-24.766332
-24.76633
-24.766327
-24.766322
-24.766317
-24.766311
-24.766305
-24.766295
-24.766282
-24.766345
-24.766343
-24.76634
-24.766335
-24.766329
-24.766323
-24.766316
-24.766307
-24.766293
-24.766351
-24.766349
-24.766346
-24.766341
-24.766335
-24.766328
-24.766322
-24.766312
-24.766298
-24.766351
-24.766348
-24.766345
-24.76634
-24.766334
-24.766327
-24.766321
-24.766311
-24.766297
-24.766343
-24.76634
-24.766337
-24.766332
-24.766326
-24.76632
-24.766314
-24.766304
-24.76629
-24.766328
-24.766326
-24.766322
-24.766318
-24.766312
-24.766306
-24.7663
-24.766291
-24.766278
-24.766306
-24.766304
-24.766301
-24.766297
-24.766292
-24.766287
-24.766281
-24.766273
-24.766261
-24.766277
-24.766276
-24.766273
-24.76627
-24.766265
-24.766261
-24.766255
-24.766248
-24.766238
-24.766243
-24.766242
-24.76624
-24.766237
-24.766233
-24.766229
-24.766225
-24.766219
-24.766211
-24.766205
-24.766204
-24.766203
-24.7662
-24.766197
-24.766194
-24.76619
-24.766185
-24.766178
-24.766162
-24.766162
-24.766161
-24.76616
-24.766158
-24.766155
-24.766152
-24.766147
-24.766142
-24.766115
-24.766116
-24.766116
-24.766116
-24.766115
-24.766113
-24.76611
-24.766106
-24.766101
-24.766065
-24.766066
-24.766068
-24.766069
-24.766068
-24.766067
-24.766065
-24.766061
-24.766056
-24.766013
-24.766015
-24.766017
-24.766019
-24.766021
-24.766022
-24.766022
-24.766021
-24.766014
-24.765963
-24.765966
-24.765969
-24.765974
-24.76598
-24.765989
-24.765999
-24.766012
-24.766017
-23.05724
-23.057241
-23.057242
-23.057245
-23.057248
-23.057251
-23.057254
-23.057257
-23.057254
-23.057267
-23.057267
-23.057268
-23.057269
-23.057269
-23.057269
-23.057266
-23.057261
-23.057252
-23.057294
-23.057294
-23.057295
-23.057295
-23.057295
-23.057293
-23.057288
-23.057281
-23.057272
-23.05732
-23.05732
-23.05732
-23.05732
-23.057319
-23.057317
-23.057312
-23.057304
-23.057295
-23.057345
-23.057344
-23.057344
-23.057343
-23.057342
-23.057339
-23.057333
-23.057325
-23.057315
-23.057367
-23.057366
-23.057365
-23.057364
-23.057362
-23.057359
-23.057353
-23.057344
-23.057333
-23.057386
-23.057385
-23.057384
-23.057382
-23.05738
-23.057377
-23.057371
-23.057362
-23.057349
-23.057402
-23.057401
-23.057399
-23.057398
-23.057395
-23.057392
-23.057386
-23.057376
-23.057363
-23.057415
-23.057413
-23.057412
-23.05741
-23.057408
-23.057404
-23.057398
-23.057388
-23.057375
-23.057424
-23.057423
-23.057421
-23.057419
-23.057417
-23.057414
-23.057407
-23.057397
-23.057383
-23.057431
-23.057429
-23.057427
-23.057425
-23.057423
-23.05742
-23.057414
-23.057403
-23.057388
-23.057433
-23.057432
-23.05743
-23.057428
-23.057426
-23.057422
-23.057416
-23.057406
-23.057391
-23.057433
-23.057431
-23.057429
-23.057427
-23.057425
-23.057421
-23.057415
-23.057405
-23.05739
-23.057428
-23.057427
-23.057425
-23.057423
-23.05742
-23.057417
-23.057411
-23.057401
-23.057386
-23.05742
-23.057419
-23.057417
-23.057415
-23.057413
-23.057409
-23.057403
-23.057393
-23.057379
-23.057409
-23.057408
-23.057406
-23.057404
-23.057402
-23.057398
-23.057392
-23.057383
-23.05737
-23.057394
-23.057393
-23.057392
-23.05739
-23.057388
-23.057384
-23.057378
-23.057369
-23.057357
-23.057377
-23.057376
-23.057374
-23.057373
-23.057371
-23.057367
-23.057361
-23.057353
-23.057341
-23.057356
-23.057355
-23.057354
-23.057353
-23.057351
-23.057347
-23.057342
-23.057334
-23.057323
-23.057332
-23.057331
-23.05733
-23.05733
-23.057328
-23.057325
-23.05732
-23.057313
-23.057303
-23.057305
-23.057305
-23.057305
-23.057304
-23.057303
-23.057301
-23.057296
-23.057289
-23.057281
-23.057276
-23.057276
-23.057277
-23.057277
-23.057276
-23.057275
-23.057271
-23.057264
-23.057257
-23.057246
-23.057247
-23.057248
-23.057248
-23.057249
-23.057249
-23.057246
-23.057242
-23.057234
-23.057218
-23.057219
-23.05722
-23.057222
-23.057225
-23.057228
-23.057232
-23.057235
-23.057234
-21.349485
-21.349485
-21.349486
-21.349487
-21.349488
-21.34949
-21.349492
-21.349495
-21.349495
-21.349497
-21.349498
-21.349498
-21.349498
-21.349499
-21.349499
-21.349498
-21.349497
-21.349495
-21.349509
-21.34951
-21.34951
-21.34951
-21.34951
-21.349509
-21.349508
-21.349507
-21.349505
-21.349521
-21.349521
-21.349521
-21.349521
-21.349521
-21.34952
-21.349519
-21.349518
-21.349516
-21.349532
-21.349532
-21.349532
-21.349531
-21.349531
-21.34953
-21.349529
-21.349527
-21.349525
-21.349541
-21.349541
-21.349541
-21.349541
-21.34954
-21.349539
-21.349538
-21.349536
-21.349534
-21.34955
-21.34955
-21.34955
-21.349549
-21.349548
-21.349547
-21.349546
-21.349544
-21.349542
-21.349558
-21.349557
-21.349557
-21.349556
-21.349555
-21.349554
-21.349553
-21.349551
-21.349548
-21.349563
-21.349563
-21.349563
-21.349562
-21.349561
-21.34956
-21.349558
-21.349556
-21.349553
-21.349568
-21.349567
-21.349567
-21.349566
-21.349565
-21.349564
-21.349562
-21.34956
-21.349557
-21.349571
-21.34957
-21.349569
-21.349568
-21.349567
-21.349566
-21.349565
-21.349563
-21.349559
-21.349572
-21.349571
-21.34957
-21.349569
-21.349568
-21.349567
-21.349566
-21.349564
-21.34956
-21.349571
-21.34957
-21.34957
-21.349569
-21.349567
-21.349566
-21.349565
-21.349563
-21.34956
-21.349568
-21.349568
-21.349567
-21.349566
-21.349565
-21.349564
-21.349563
-21.349561
-21.349557
-21.349564
-21.349564
-21.349563
-21.349562
-21.349561
-21.34956
-21.349559
-21.349557
-21.349554
-21.349559
-21.349558
-21.349557
-21.349557
-21.349555
-21.349554
-21.349553
-21.349552
-21.349549
-21.349551
-21.349551
-21.34955
-21.349549
-21.349548
-21.349547
-21.349546
-21.349545
-21.349542
-21.349542
-21.349542
-21.349541
-21.34954
-21.349539
-21.349539
-21.349538
-21.349536
-21.349535
-21.349532
-21.349531
-21.349531
-21.34953
-21.34953
-21.349529
-21.349528
-21.349527
-21.349525
-21.34952
-21.34952
-21.34952
-21.349519
-21.349519
-21.349518
-21.349517
-21.349516
-21.349515
-21.349507
-21.349507
-21.349507
-21.349507
-21.349507
-21.349506
-21.349506
-21.349505
-21.349504
-21.349494
-21.349494
-21.349494
-21.349494
-21.349494
-21.349493
-21.349493
-21.349492
-21.349491
-21.349479
-21.34948
-21.34948
-21.34948
-21.349481
-21.349481
-21.349481
-21.34948
-21.349479
-21.349465
-21.349466
-21.349466
-21.349467
-21.349469
-21.34947
-21.349473
-21.349476
-21.349478
-19.641357
-19.641357
-19.641357
-19.641358
-19.641358
-19.641359
-19.64136
-19.641361
-19.64136
-19.641363
-19.641363
-19.641363
-19.641363
-19.641364
-19.641363
-19.641363
-19.641361
-19.641359
-19.641369
-19.641369
-19.641369
-19.641369
-19.641369
-19.641369
-19.641368
-19.641366
-19.641363
-19.641375
-19.641375
-19.641375
-19.641375
-19.641375
-19.641374
-19.641373
-19.641371
-19.641368
-19.64138
-19.64138
-19.64138
-19.64138
-19.64138
-19.641379
-19.641378
-19.641376
-19.641373
-19.641385
-19.641385
-19.641385
-19.641385
-19.641384
-19.641384
-19.641382
-19.64138
-19.641378
-19.641389
-19.641389
-19.641389
-19.641389
-19.641388
-19.641388
-19.641386
-19.641384
-19.641381
-19.641393
-19.641393
-19.641393
-19.641392
-19.641392
-19.641391
-19.64139
-19.641388
-19.641385
-19.641396
-19.641396
-19.641395
-19.641395
-19.641395
-19.641394
-19.641393