/*--------------------------------*- C++ -*----------------------------------*\
| =========                 |                                                 |
| \\      /  F ield         | OpenFOAM: The Open Source CFD Toolbox           |
|  \\    /   O peration     | Version:  2406                                  |
|   \\  /    A nd           | Website:  www.openfoam.com                      |
|    \\/     M anipulation  |                                                 |
\*---------------------------------------------------------------------------*/
FoamFile
{
    version     2.0;
    format      ascii;
    arch        "LSB;label=32;scalar=64";
    class       surfaceScalarField;
    location    "3.25";
    object      phi;
}
// * * * * * * * * * * * * * * * * * * * * * * * * * * * * * * * * * * * * * //

dimensions      [0 3 -1 0 0 0 0];

oriented        oriented;

internalField   nonuniform List<scalar> 
101088
(
-8.2976999e-05
2.4579417e-05
-1.4971273e-05
-2.1368966e-05
-0.00016535001
0.00010697917
-6.3517949e-05
-9.3663537e-05
-0.00022787729
0.00025851089
-0.00014910509
-0.0002271952
-0.00024985097
0.00049053274
-0.00027154649
-0.00043260177
-0.00022687156
0.00078367117
-0.00040448607
-0.0006935549
-0.00018795682
0.0010849084
-0.00049817017
-0.00096133165
-0.00018421411
0.0013282367
-0.00051231904
-0.0011744057
-0.00025061924
0.0014594515
-0.00045020587
-0.0012833253
0.0014510117
-0.00035069215
-0.0012707139
-0.00037665253
-0.00010074124
2.7132671e-05
-1.8027355e-05
-0.00019770052
0.00011734501
-7.5822514e-05
-0.00026493455
0.0002815645
-0.00017643507
-0.00027483347
0.00053038573
-0.00031796091
-0.00022291902
0.00084337577
-0.00046802556
-0.00014611002
0.0011663682
-0.00057010019
-0.00010426235
0.0014305212
-0.00058243686
-0.00013310907
0.001575171
-0.00051281945
0.0015658848
-0.00040477621
-0.00022098258
-0.00011855672
2.8770854e-05
-2.0973214e-05
-0.00022971941
0.00012368925
-8.7570031e-05
-0.00030188307
0.00029505484
-0.00020214533
-0.0003029685
0.0005521785
-0.00036052231
-0.0002287362
0.00087320117
-0.00052393853
-0.00012233414
0.001204639
-0.00062971801
-4.9924191e-05
0.0014775197
-0.0006366237
-4.8015907e-05
0.0016264645
-0.00055831694
0.0016149204
-0.00044300576
-0.00010578051
-0.0001359382
2.9332808e-05
-2.3672458e-05
-0.00026103074
0.00012544934
-9.8190426e-05
-0.00033839026
0.00029772358
-0.00022498038
-0.00033241915
0.0005540474
-0.00039732163
-0.00024080462
0.00087195809
-0.00057045512
-0.00011326323
0.0012001171
-0.00067657454
-2.0218095e-05
0.0014708323
-0.00067624527
3.2597759e-06
0.001616352
-0.00059013278
0.0016021505
-0.00046903821
-3.2452447e-05
-0.00015234401
2.8569949e-05
-2.6013792e-05
-0.00029059061
0.00012194094
-0.00010731611
-0.00037340551
0.00028862973
-0.00024432544
-0.00036278553
0.00053528803
-0.00042777057
-0.00025911522
0.00083986776
-0.00060743501
-0.00011783887
0.0011541468
-0.00071159719
-1.226891e-05
0.001412856
-0.0007031004
2.5154348e-05
0.0015493324
-0.00061086632
0.0015328159
-0.00048564006
5.0500679e-06
-0.00016797773
2.6828017e-05
-2.8007476e-05
-0.00031977816
0.0001142085
-0.00011499765
-0.00041022413
0.00026952841
-0.00026033418
-0.00039922725
0.00049816461
-0.00045225969
-0.00028935827
0.00077932444
-0.00063579483
-0.00014067081
0.0010692647
-0.00073642216
-2.760795e-05
0.0013069301
-0.00072078152
1.9205345e-05
0.0014294713
-0.00062299227
0.0014114435
-0.00049518622
1.126441e-05
-0.00018182828
2.4019254e-05
-2.9624887e-05
-0.00034567945
0.00010209815
-0.00012114138
-0.00044337106
0.00024049101
-0.0002728776
-0.0004335872
0.00044346992
-0.00047080847
-0.00032128974
0.00069238082
-0.00065600829
-0.00017025759
0.00094900611
-0.0007521315
-5.4740358e-05
0.0011581834
-0.00073018097
-3.318704e-06
0.0012635999
-0.00062856919
0.0012453492
-0.00049939606
-3.5476125e-06
-0.00019383927
2.0281247e-05
-3.0883096e-05
-0.00036846844
8.6154656e-05
-0.0001258745
-0.00047335235
0.00020274792
-0.00028238578
-0.00046631266
0.00037338262
-0.00048445722
-0.0003544073
0.00058229874
-0.00066988816
-0.00020433287
0.00079778597
-0.00076117182
-8.9390826e-05
0.0009723914
-0.0007339896
-3.6292313e-05
0.0010587274
-0.00062992401
0.0010417201
-0.00050017279
-3.1741553e-05
-0.00020379456
1.5798778e-05
-3.1821887e-05
-0.00038766966
6.7132781e-05
-0.00012938022
-0.00049930048
0.00015796314
-0.00028933702
-0.00049590176
0.00029075474
-0.00049414173
-0.00038613753
0.00045322497
-0.00067906701
-0.00023885859
0.00062089241
-0.00076569259
-0.00012610714
0.00075613535
-0.00073444465
-7.3103417e-05
0.00082208694
-0.00062868808
0.00080785235
-0.00049906077
-6.5705486e-05
-0.00021153651
1.0825603e-05
-3.2482575e-05
-0.00040292317
4.599516e-05
-0.00013183523
-0.00052052772
0.00010816681
-0.00029415284
-0.00052106755
0.00019894795
-0.00050067872
-0.00041426956
0.00030994839
-0.00068484747
-0.00027028124
0.00042450861
-0.00076776897
-0.00016021093
0.00051672211
-0.00073339573
-0.00010798935
0.00056128254
-0.00062649548
0.00055108682
-0.00049726942
-9.8838754e-05
-0.00021672248
5.5010416e-06
-3.2913208e-05
-0.00041315347
2.33565e-05
-0.00013339123
-0.00053492411
5.4912688e-05
-0.00029711274
-0.00053858507
0.00010096797
-0.00050452468
-0.00043456607
0.00015724198
-0.00068793922
-0.00029349129
0.00021530644
-0.0007685509
-0.00018595737
0.00026196221
-0.00073190593
-0.00013473057
0.00028439463
-0.00062438069
0.00027909442
-0.00049559662
-0.00012467471
-0.0002193735
8.9982442e-11
-3.3100333e-05
-0.00041847195
2.1822431e-10
-0.00013409669
-0.00054252317
3.1075159e-10
-0.00029851576
-0.00054789374
3.5970068e-10
-0.00050645507
-0.00044532732
-2.7807172e-10
-0.00068965764
-0.00030573896
-9.0369175e-10
-0.00076926388
-0.00019959373
-1.5448409e-09
-0.00073153964
-0.0001490559
-1.7661867e-09
-0.00062367227
-1.0198474e-09
-0.00049502857
-0.00013877673
-0.0002193736
-5.5009786e-06
-3.3100328e-05
-0.000418472
-2.335631e-05
-0.00013409667
-0.00054252313
-5.491232e-05
-0.00029851574
-0.00054789429
-0.00010096747
-0.00050645503
-0.00044532732
-0.00015724249
-0.00068965757
-0.00030573905
-0.00021530799
-0.00076926382
-0.00019959385
-0.00026196489
-0.0007315396
-0.00014905597
-0.00028439767
-0.00062367224
-0.00027909621
-0.00049502861
-0.00013877705
-0.00021672236
-1.0825682e-05
-3.2913208e-05
-0.00041315306
-4.5995312e-05
-0.00013339123
-0.00053492397
-0.00010816694
-0.00029711277
-0.00053858677
-0.00019894811
-0.00050452473
-0.00043456621
-0.00030994904
-0.00068793921
-0.00029349162
-0.00042450971
-0.00076855095
-0.00018595775
-0.00051672388
-0.00073190596
-0.00013473073
-0.00056128445
-0.0006243807
-0.00055108806
-0.00049559672
-0.00012467552
-0.00021153586
-1.5798765e-05
-3.2482572e-05
-0.00040292206
-6.7132848e-05
-0.00013183522
-0.00052052728
-0.00015796345
-0.00029415284
-0.00052106944
-0.00029075525
-0.00050067867
-0.00041426937
-0.0004532253
-0.00068484732
-0.00027028166
-0.00062089279
-0.00076776894
-0.00016021145
-0.00075613606
-0.0007333957
-0.0001079896
-0.00082208754
-0.00062649545
-0.00080785304
-0.00049726953
-9.8839912e-05
-0.00020379467
-2.0281246e-05
-3.1821891e-05
-0.00038766991
-8.6154868e-05
-0.00012938024
-0.00049930018
-0.00020274839
-0.00028933703
-0.00049590247
-0.00037338295
-0.00049414168
-0.0003861366
-0.00058229832
-0.00067906692
-0.00023885896
-0.00079778586
-0.00076569265
-0.00012610762
-0.00097239143
-0.00073444468
-7.3103787e-05
-0.001058727
-0.00062868809
-0.0010417204
-0.00049906087
-6.5706915e-05
-0.00019384017
-2.4019334e-05
-3.0883099e-05
-0.00036846938
-0.00010209823
-0.00012587451
-0.00047335096
-0.00024049086
-0.00028238579
-0.00046631149
-0.00044346957
-0.00048445725
-0.00035440622
-0.00069238023
-0.0006698882
-0.00020433327
-0.00094900651
-0.00076117195
-8.9391198e-05
-0.0011581837
-0.0007339897
-3.629302e-05
-0.0012635993
-0.00062992407
-0.0012453491
-0.00050017286
-3.1743113e-05
-0.00018182834
-2.6827829e-05
-2.962489e-05
-0.00034567922
-0.0001142079
-0.0001211414
-0.00044336967
-0.00026952805
-0.00027287767
-0.00043358665
-0.0004981655
-0.00047080863
-0.0003212898
-0.0007793261
-0.00065600841
-0.00017025766
-0.0010692671
-0.00075213161
-5.4740337e-05
-0.0013069318
-0.0007301811
-3.3197325e-06
-0.0014294715
-0.00062856928
-0.0014114432
-0.0004993961
-3.548941e-06
-0.00016797811
-2.8569958e-05
-2.8007487e-05
-0.00031977948
-0.00012194102
-0.00011499769
-0.00041022492
-0.00028863019
-0.00026033428
-0.00039922706
-0.00053528914
-0.00045225986
-0.00028935793
-0.00083986946
-0.00063579495
-0.00014066958
-0.0011541494
-0.00073642228
-2.760725e-05
-0.001412859
-0.0007207817
1.9204627e-05
-0.0015493339
-0.00062299237
-0.0015328152
-0.00049518625
1.1262962e-05
-0.00015234429
-2.9332725e-05
-2.6013789e-05
-0.00029059068
-0.00012544903
-0.00010731609
-0.00037340433
-0.00029772302
-0.00024432541
-0.00036278415
-0.00055404719
-0.00042777062
-0.00025911479
-0.00087195912
-0.00060743517
-0.0001178372
-0.0012001187
-0.00071159728
-1.2267382e-05
-0.0014708345
-0.00070310051
2.5155479e-05
-0.0016163531
-0.00061086633
-0.0016021495
-0.00048564008
5.0481739e-06
-0.0001359382
-2.8770859e-05
-2.3672453e-05
-0.00026103061
-0.00012368931
-9.8190403e-05
-0.00033838998
-0.00029505508
-0.00022498036
-0.00033241932
-0.00055217934
-0.00039732167
-0.00024080463
-0.00087320319
-0.0005704552
-0.00011326167
-0.0012046414
-0.00067657453
-2.0216499e-05
-0.0014775213
-0.00067624529
3.2621603e-06
-0.0016264656
-0.00059013274
-0.0016149206
-0.00046903817
-3.2453814e-05
-0.00011855662
-2.7132655e-05
-2.0973208e-05
-0.00022971919
-0.00011734502
-8.7570004e-05
-0.00030188298
-0.00028156463
-0.00020214527
-0.00030296902
-0.00053038622
-0.00036052224
-0.00022873573
-0.00084337728
-0.0005239385
-0.00012233185
-0.0011663709
-0.000629718
-4.9922914e-05
-0.0014305239
-0.0006366235
-4.8013782e-05
-0.0015751728
-0.00055831678
-0.0015658822
-0.00044300576
-0.00010577963
-0.00010074115
-2.4579442e-05
-1.8027352e-05
-0.00019770058
-0.00010697929
-7.5822497e-05
-0.00026493501
-0.00025851114
-0.00017643503
-0.00027483466
-0.00049053322
-0.00031796083
-0.0002229192
-0.00078367204
-0.00046802547
-0.00014610816
-0.0010849096
-0.00057010015
-0.00010426132
-0.0013282386
-0.00058243673
-0.00013310586
-0.0014594532
-0.00051281928
-0.0014510114
-0.00040477625
-0.00022098203
-8.2976967e-05
-1.4971275e-05
-2.1368984e-05
-0.00016535009
-6.3517955e-05
-9.3663662e-05
-0.00022787747
-0.0001491051
-0.0002271956
-0.00024985138
-0.00027154653
-0.00043260277
-0.0002268712
-0.00040448612
-0.00069355651
-0.00018795477
-0.00049817024
-0.00096133296
-0.00018421283
-0.00051231913
-0.0011744064
-0.00025061714
-0.00045020594
-0.0012833255
-0.00035069215
-0.0012707154
-0.00037665251
-2.4490222e-07
2.4578437e-06
-1.5239488e-05
-1.944727e-06
-1.8886763e-07
1.0899921e-05
-6.5759802e-05
-8.7141598e-06
7.8908253e-07
2.661458e-05
-0.00015524752
-2.1450251e-05
2.3983632e-06
5.0173941e-05
-0.00028252503
-4.080473e-05
4.7600342e-06
7.6979532e-05
-0.00042058978
-6.3237369e-05
8.5169223e-06
9.6971419e-05
-0.00051876389
-8.0135266e-05
1.3580863e-05
0.00010118072
-0.00053556234
-8.3002569e-05
1.9046847e-05
8.9699047e-05
-0.00047376472
-7.1605579e-05
6.9839787e-05
-0.00037157553
-5.378415e-05
2.3874875e-05
-2.7031603e-07
2.8447852e-06
-1.8143963e-05
1.3000363e-08
1.2572305e-05
-7.7777972e-05
1.9113488e-06
3.046758e-05
-0.00018218575
5.5175043e-06
5.6724955e-05
-0.00032811689
1.1058734e-05
8.5762256e-05
-0.00048234858
1.8349462e-05
0.00010668075
-0.00058710042
2.5990472e-05
0.00011078379
-0.00059968028
3.2295885e-05
9.9482904e-05
-0.00052890916
8.0396456e-05
-0.00041894609
3.5908839e-05
-2.797281e-07
3.0579556e-06
-2.0906713e-05
3.5265041e-07
1.3491073e-05
-8.9121211e-05
3.3739392e-06
3.2565114e-05
-0.00020726414
8.9950087e-06
6.0116631e-05
-0.00036953515
1.7256477e-05
8.9757997e-05
-0.00053619641
2.7004106e-05
0.0001101897
-0.0006429752
3.5487478e-05
0.0001136136
-0.00064793632
4.0453637e-05
0.00010326397
-0.00056706427
8.6818954e-05
-0.00044983575
4.0860952e-05
-2.9921078e-07
3.1030232e-06
-2.3418193e-05
6.2962521e-07
1.3681936e-05
-9.9309699e-05
4.6874605e-06
3.2940018e-05
-0.00022941244
1.2226005e-05
6.0428691e-05
-0.00040517154
2.2833201e-05
8.937681e-05
-0.00058068097
3.4211982e-05
0.00010865005
-0.00068641351
4.2431355e-05
0.00011151455
-0.00068236602
4.4876604e-05
0.00010287755
-0.0005921921
8.9433241e-05
-0.00046876753
4.1991582e-05
-3.1720106e-07
2.9759011e-06
-2.5569386e-05
8.6559394e-07
1.315766e-05
-0.00010797463
5.7945506e-06
3.1690253e-05
-0.00024800523
1.4876075e-05
5.796487e-05
-0.00043438891
2.7260435e-05
8.5269684e-05
-0.00061571203
3.9556598e-05
0.00010308671
-0.00071833022
4.7234586e-05
0.00010592857
-0.00070519225
4.6669224e-05
9.9109636e-05
-0.00060653267
8.8328108e-05
-0.00047915698
4.1291893e-05
-3.7484867e-07
2.72832e-06
-2.7384899e-05
8.9587548e-07
1.2096755e-05
-0.00011520701
6.3467334e-06
2.9161512e-05
-0.00026325635
1.6450306e-05
5.3252732e-05
-0.00045765167
2.9999346e-05
7.8118549e-05
-0.00064219254
4.2796342e-05
9.4189597e-05
-0.0007403226
4.9685276e-05
9.7009115e-05
-0.00071875051
4.6406763e-05
9.2064315e-05
-0.00061266758
8.3597649e-05
-0.000483375
3.9326834e-05
-4.1897468e-07
2.3767077e-06
-2.8854245e-05
9.2628766e-07
1.0580371e-05
-0.0001209705
6.7794435e-06
2.5567252e-05
-0.0002751372
1.7586725e-05
4.6723416e-05
-0.0004750862
3.176731e-05
6.8521786e-05
-0.00066059088
4.4691176e-05
8.267004e-05
-0.00075353543
5.0603342e-05
8.5768487e-05
-0.00072485221
4.4882014e-05
8.2230996e-05
-0.00061301401
7.561793e-05
-0.00048308299
3.6549433e-05
-4.731654e-07
1.9557364e-06
-2.9988672e-05
8.6127945e-07
8.7457821e-06
-0.00012537442
6.8860164e-06
2.1201605e-05
-0.00028404586
1.8010666e-05
3.8815829e-05
-0.00048767447
3.2475821e-05
5.6987101e-05
-0.0006728183
4.5466648e-05
6.8955202e-05
-0.00076044707
5.0089701e-05
7.2193723e-05
-0.00072503773
4.2366979e-05
6.9736183e-05
-0.00060970631
6.472601e-05
-0.00048011065
3.3197552e-05
-5.3133701e-07
1.4924657e-06
-3.0827391e-05
7.3354386e-07
6.7035671e-06
-0.00012860304
6.7592261e-06
1.6304872e-05
-0.00029046608
1.7917995e-05
2.9922015e-05
-0.00049640611
3.228161e-05
4.4053428e-05
-0.00068049729
4.5197406e-05
5.3602823e-05
-0.00076325539
4.8537564e-05
5.6721511e-05
-0.0007223124
3.9277061e-05
5.4964091e-05
-0.00060465553
5.1305288e-05
-0.00047593818
2.9575948e-05
-5.8636665e-07
1.0080999e-06
-3.1412189e-05
5.8141882e-07
4.5410661e-06
-0.00013084095
6.5106932e-06
1.1069961e-05
-0.00029484701
1.7527588e-05
2.0361613e-05
-0.00050213413
3.1615491e-05
3.0082335e-05
-0.00068496463
4.4313976e-05
3.6856688e-05
-0.00076372094
4.637449e-05
3.9261277e-05
-0.00071799578
3.6076806e-05
3.8171043e-05
-0.00059940502
3.5744631e-05
-0.0004717218
2.6090318e-05
-6.1130886e-07
5.1350725e-07
-3.1807348e-05
5.1955415e-07
2.3105916e-06
-0.0001322918
6.3984057e-06
5.6323397e-06
-0.00029755392
1.7273183e-05
1.0369062e-05
-0.00050540629
3.1055371e-05
1.5358863e-05
-0.00068699831
4.3311726e-05
1.8905641e-05
-0.0007628562
4.4395445e-05
2.0242022e-05
-0.00071397031
3.3404739e-05
1.9728791e-05
-0.00059494825
1.8484338e-05
-0.00046822103
2.3289489e-05
-6.2013746e-07
4.2462844e-11
-3.1966591e-05
5.0280422e-07
1.1111514e-10
-0.0001329091
6.3719935e-06
1.6011486e-10
-0.0002987528
1.7175347e-05
2.0776209e-10
-0.00050688964
3.0762158e-05
-9.8613633e-11
-0.00068788587
4.2708356e-05
-4.4216464e-10
-0.00076230436
4.3264556e-05
-8.0986963e-10
-0.00071185312
3.1897369e-05
-7.9958261e-10
-0.00059257609
-5.4974547e-11
-0.00046635813
2.1711082e-05
-6.2021445e-07
-5.1346994e-07
-3.1966587e-05
5.0273715e-07
-2.3104827e-06
-0.00013290908
6.3720627e-06
-5.6321445e-06
-0.00029875277
1.7175147e-05
-1.0368774e-05
-0.00050688961
3.0762191e-05
-1.5359131e-05
-0.00068788582
4.2708293e-05
-1.8906566e-05
-0.00076230432
4.3264462e-05
-2.0243631e-05
-0.0007118531
3.1897426e-05
-1.9730257e-05
-0.00059257608
-1.8484247e-05
-0.00046635814
2.1710937e-05
-6.113376e-07
-1.008114e-06
-3.1807349e-05
5.1967557e-07
-4.5410762e-06
-0.0001322918
6.3987643e-06
-1.1069917e-05
-0.00029755394
1.72727e-05
-2.0361566e-05
-0.00050540634
3.105552e-05
-3.0082744e-05
-0.00068699835
4.3311611e-05
-3.6857697e-05
-0.00076285629
4.4395269e-05
-3.926283e-05
-0.00071397038
3.3404955e-05
-3.8172159e-05
-0.0005949483
-3.5744127e-05
-0.00046822109
2.3289165e-05
-5.8618563e-07
-1.4924475e-06
-3.1412183e-05
5.8188318e-07
-6.703527e-06
-0.00013084092
6.5113105e-06
-1.6304862e-05
-0.00029484698
1.7527033e-05
-2.9922168e-05
-0.00050213408
3.1615758e-05
-4.4053874e-05
-0.00068496456
4.4313848e-05
-5.3603845e-05
-0.00076372095
4.6374369e-05
-5.6722903e-05
-0.00071799581
3.6077221e-05
-5.4964792e-05
-0.00059940507
-5.1304519e-05
-0.00047172189
2.6089994e-05
-5.3131513e-07
-1.9557002e-06
-3.0827387e-05
7.3371337e-07
-8.7457366e-06
-0.00012860302
6.759877e-06
-2.1201591e-05
-0.00029046605
1.7917848e-05
-3.8815911e-05
-0.00049640607
3.2282069e-05
-5.6987331e-05
-0.00068049728
4.5197373e-05
-6.8956184e-05
-0.00076325545
4.8537643e-05
-7.2194911e-05
-0.0007223125
3.9277602e-05
-6.9736593e-05
-0.00060465565
-6.4725356e-05
-0.0004759383
2.957564e-05
-4.7345296e-07
-2.3766886e-06
-2.9988672e-05
8.6109055e-07
-1.0580308e-05
-0.00012537442
6.886885e-06
-2.5567028e-05
-0.00028404585
1.8011219e-05
-4.6723183e-05
-0.00048767448
3.2476296e-05
-6.8521955e-05
-0.00067281837
4.5466797e-05
-8.2671214e-05
-0.0007604472
5.0090003e-05
-8.5769681e-05
-0.00072503791
4.2367408e-05
-8.2231492e-05
-0.0006097065
-7.5617721e-05
-0.00048011078
3.3197149e-05
-4.190799e-07
-2.728264e-06
-2.8854249e-05
9.2630737e-07
-1.2096587e-05
-0.00012097051
6.7801918e-06
-2.9161282e-05
-0.00027513723
1.7587291e-05
-5.325283e-05
-0.00047508627
3.1767483e-05
-7.8119339e-05
-0.00066059103
4.4691635e-05
-9.4191125e-05
-0.00075353563
5.0603778e-05
-9.7010592e-05
-0.00072485248
4.4882113e-05
-9.2065257e-05
-0.00061301424
-8.359772e-05
-0.0004830831
3.6548885e-05
-3.7498518e-07
-2.975891e-06
-2.7384909e-05
8.9536971e-07
-1.3157674e-05
-0.00011520705
6.346498e-06
-3.169038e-05
-0.00026325644
1.6450583e-05
-5.7965197e-05
-0.00045765181
2.999961e-05
-8.5270492e-05
-0.00064219277
4.2797201e-05
-0.00010308807
-0.00074032289
4.9685674e-05
-0.00010593041
-0.00071875082
4.6406621e-05
-9.9111056e-05
-0.0006126678
-8.8327945e-05
-0.00048337508
3.9326042e-05
-3.1735013e-07
-3.1029742e-06
-2.5569388e-05
8.652937e-07
-1.3681816e-05
-0.00010797463
5.7946249e-06
-3.2939865e-05
-0.00024800525
1.4876526e-05
-6.0428673e-05
-0.00043438894
2.7260874e-05
-8.9377484e-05
-0.00061571215
3.955736e-05
-0.00010865134
-0.00071833037
4.7234859e-05
-0.00011151644
-0.0007051924
4.6669388e-05
-0.00010287895
-0.00060653277
-8.9432928e-05
-0.00047915704
4.1290677e-05
-2.9926494e-07
-3.057981e-06
-2.3418193e-05
6.294581e-07
-1.3491204e-05
-9.9309698e-05
4.6872462e-06
-3.2565411e-05
-0.00022941244
1.2225868e-05
-6.0117112e-05
-0.00040517156
2.2833639e-05
-8.9758845e-05
-0.00058068101
3.4212598e-05
-0.00011019105
-0.00068641355
4.2431693e-05
-0.00011361505
-0.00068236607
4.4877291e-05
-0.00010326495
-0.00059219213
-8.6819021e-05
-0.00046876756
4.199077e-05
-2.7965742e-07
-2.8447836e-06
-2.090671e-05
3.5280308e-07
-1.2572344e-05
-8.9121197e-05
3.3741057e-06
-3.0467707e-05
-0.00020726411
8.9949808e-06
-5.6725221e-05
-0.00036953509
1.725681e-05
-8.5762933e-05
-0.00053619634
2.7004896e-05
-0.00010668228
-0.0006429752
3.5487803e-05
-0.00011078562
-0.00064793632
4.0454213e-05
-9.9483758e-05
-0.00056706427
-8.0394787e-05
-0.00044983573
4.0860851e-05
-2.7025736e-07
-2.4578689e-06
-1.8143964e-05
1.3107817e-08
-1.0900051e-05
-7.7777973e-05
1.9114024e-06
-2.6614911e-05
-0.00018218575
5.517016e-06
-5.017461e-05
-0.0003281169
1.1058216e-05
-7.6980647e-05
-0.00048234858
1.8350196e-05
-9.6972881e-05
-0.00058710045
2.5991356e-05
-0.0001011825
-0.00059968028
3.2297691e-05
-8.970073e-05
-0.00052890915
-6.9839153e-05
-0.00041894605
3.5909171e-05
-2.4492199e-07
-1.5239492e-05
-1.9447616e-06
-1.8891806e-07
-6.5759815e-05
-8.7143047e-06
7.8914554e-07
-0.00015524755
-2.1450608e-05
2.3983771e-06
-0.00028252509
-4.080548e-05
4.7601168e-06
-0.00042058985
-6.3238617e-05
8.51807e-06
-0.00051876398
-8.0136803e-05
1.3581749e-05
-0.00053556244
-8.3003594e-05
1.9048417e-05
-0.00047376484
-7.1606169e-05
-0.00037157554
-5.3784429e-05
2.3875213e-05
9.5267088e-08
1.5882208e-06
-1.5337916e-05
-1.5850596e-06
1.5852335e-07
6.5964741e-06
-6.5750256e-05
-6.6692782e-06
6.1562359e-07
1.4889328e-05
-0.00015526626
-1.5327709e-05
3.4781267e-06
2.5087394e-05
-0.00028376457
-2.6710366e-05
1.1410779e-05
3.210368e-05
-0.00042399381
-3.6632258e-05
2.5517138e-05
2.8259815e-05
-0.00052314319
-3.7986852e-05
4.3420782e-05
9.2846953e-06
-0.0005372761
-2.5474571e-05
5.9887292e-05
-1.8028245e-05
-0.00046956613
-2.6370031e-06
-3.8952901e-05
-0.0003622927
2.0859604e-05
6.869783e-05
1.688119e-07
1.5891884e-06
-1.8313745e-05
5.1305771e-07
6.4511575e-06
-7.7976868e-05
1.9238254e-06
1.4124589e-05
-0.0001828317
7.3498617e-06
2.2660153e-05
-0.00033111558
1.9971807e-05
2.6396106e-05
-0.0004892628
3.9983203e-05
1.7656278e-05
-0.0005965081
6.2732753e-05
-6.4294276e-06
-0.00060671574
8.0948991e-05
-3.6498996e-05
-0.00052865483
-5.6301564e-05
-0.00041076837
9.0119814e-05
2.8114894e-07
1.5578506e-06
-2.1156513e-05
1.0004629e-06
6.1783721e-06
-8.9567639e-05
3.4066118e-06
1.310244e-05
-0.00020864792
1.117422e-05
1.989133e-05
-0.00037453363
2.7885004e-05
2.0538386e-05
-0.00054704912
5.2828422e-05
7.8163901e-06
-0.00065807849
7.9034492e-05
-1.9641518e-05
-0.00066093022
9.7284784e-05
-5.0582611e-05
-0.00057123097
-6.8552493e-05
-0.00044410751
0.00010380748
4.0533037e-07
1.4822646e-06
-2.3747917e-05
1.5402342e-06
5.7520408e-06
-0.00010001821
5.000025e-06
1.1824762e-05
-0.00023159447
1.5078032e-05
1.6944814e-05
-0.00041230283
3.5539757e-05
1.5061032e-05
-0.00059566496
6.4688603e-05
-3.9744699e-07
-0.00070734848
9.3385689e-05
-2.938948e-05
-0.00070131489
0.00011057796
-5.9612405e-05
-0.00060035446
-7.5024448e-05
-0.0004654854
0.0001137677
5.2648268e-07
1.3618305e-06
-2.5975365e-05
2.0602481e-06
5.1870855e-06
-0.00010894323
6.5087193e-06
1.0364401e-05
-0.00025099306
1.8708067e-05
1.4019105e-05
-0.00044366222
4.2514245e-05
1.0316632e-05
-0.00063477345
7.5245974e-05
-6.4750065e-06
-0.0007449841
0.0001056453
-3.5206905e-05
-0.00072977402
0.00012168965
-6.35012e-05
-0.00061868809
-7.6139353e-05
-0.00047808403
0.00012173157
6.2402484e-07
1.2143255e-06
-2.7861388e-05
2.4856528e-06
4.5414791e-06
-0.00011642293
7.7886021e-06
8.8260274e-06
-0.00026702067
2.1882773e-05
1.1255813e-05
-0.00046898204
4.8703083e-05
6.4486156e-06
-0.00066514454
8.4628017e-05
-1.0385255e-05
-0.0007723368
0.00011612244
-3.7219155e-05
-0.00074823249
0.00013143446
-6.2229999e-05
-0.00062925063
-7.2531096e-05
-0.00048412986
0.00012858109
7.0995183e-07
1.0397472e-06
-2.9389567e-05
2.853858e-06
3.8280853e-06
-0.00012240091
8.8855139e-06
7.2550812e-06
-0.00027959776
2.46075e-05
8.7236487e-06
-0.00048827568
5.4091909e-05
3.515357e-06
-0.00068714188
9.2760901e-05
-1.2265246e-05
-0.00079032392
0.00012496998
-3.6196142e-05
-0.00075808404
0.00013965758
-5.7107711e-05
-0.00063282368
-6.5199517e-05
-0.00048523064
0.00013447372
7.7802443e-07
8.451702e-07
-3.0572103e-05
3.1450818e-06
3.0711223e-06
-0.0001269844
9.7632884e-06
5.6939793e-06
-0.0002891027
2.6818083e-05
6.4652845e-06
-0.00050247053
5.8495915e-05
1.4864901e-06
-0.00070246707
9.9334049e-05
-1.2256363e-05
-0.00080129366
0.00013236094
-3.2296638e-05
-0.00076196379
0.00014650795
-4.8962291e-05
-0.00063199848
-5.5058326e-05
-0.00048326111
0.00013951733
8.2795007e-07
6.3845472e-07
-3.1448623e-05
3.3568503e-06
2.2956777e-06
-0.00013035645
1.0415101e-05
4.1783531e-06
-0.00029600856
2.8490551e-05
4.5080904e-06
-0.00051252409
6.186243e-05
2.8909337e-07
-0.00071267149
0.00010441053
-1.0666922e-05
-0.0008073926
0.00013823114
-2.6246917e-05
-0.00076218238
0.00015201913
-3.8576108e-05
-0.00062882943
-4.2893889e-05
-0.00047978048
0.0001436971
8.599451e-07
4.2796752e-07
-3.206161e-05
3.4913523e-06
1.5257224e-06
-0.00013270235
1.0846037e-05
2.7355336e-06
-0.00030075882
2.9655467e-05
2.8258003e-06
-0.00051926113
6.4269506e-05
-2.3359198e-07
-0.00071905566
0.00010805035
-7.8279398e-06
-0.00081034049
0.00014267705
-1.8382234e-05
-0.00076048687
0.00015621451
-2.6577437e-05
-0.00062494092
-2.9334147e-05
-0.00047602388
0.00014695693
8.8055709e-07
2.1384811e-07
-3.2473757e-05
3.5804004e-06
7.5735471e-07
-0.00013422324
1.113447e-05
1.3426187e-06
-0.00030371504
3.0426052e-05
1.3406101e-06
-0.0005232126
6.5871257e-05
-2.6866959e-07
-0.00072240815
0.00011046103
-4.161063e-06
-0.00081111263
0.0001456122
-9.5109636e-06
-0.00075799256
0.00015902408
-1.3564982e-05
-0.00062137244
-1.4894288e-05
-0.00047281424
0.00014917746
8.8943341e-07
1.0252865e-11
-3.2642197e-05
3.6142839e-06
2.919429e-11
-0.00013487663
1.1244792e-05
4.5117602e-11
-0.00030504068
3.0742457e-05
9.6120758e-12
-0.00052504661
6.6573906e-05
-1.8312009e-10
-0.00072398559
0.00011154936
-5.8438626e-10
-0.00081144013
0.0001470177
-8.3793375e-10
-0.0007568315
0.00016040159
-5.2157704e-10
-0.00061952437
3.8745341e-10
-0.00047115447
0.00015030328
8.8941115e-07
-2.1382543e-07
-3.2642193e-05
3.6142491e-06
-7.5729061e-07
-0.00013487662
1.124479e-05
-1.3425229e-06
-0.00030504065
3.0742496e-05
-1.3405969e-06
-0.00052504656
6.6573909e-05
2.6826431e-07
-0.00072398553
0.00011154935
4.1598398e-06
-0.00081144009
0.0001470177
9.5092377e-06
-0.00075683148
0.00016040159
1.3563927e-05
-0.00061952437
1.4895095e-05
-0.00047115448
0.00015030328
8.8050555e-07
-4.2794215e-07
-3.247376e-05
3.5803293e-06
-1.5256527e-06
-0.00013422325
1.1134492e-05
-2.7354316e-06
-0.00030371506
3.042617e-05
-2.8257961e-06
-0.00052321263
6.5871293e-05
2.3310601e-07
-0.0007224082
0.00011046106
7.8265958e-06
-0.00081111271
0.00014561223
1.8380397e-05
-0.00075799265
0.00015902413
2.657636e-05
-0.00062137254
2.933503e-05
-0.00047281429
0.0001491775
8.5990812e-07
-6.3842814e-07
-3.2061606e-05
3.4913288e-06
-2.2956073e-06
-0.00013270233
1.0846116e-05
-4.1782432e-06
-0.00030075878
2.9655608e-05
-4.5080884e-06
-0.00051926107
6.4269565e-05
-2.8967249e-07
-0.00071905562
0.00010805042
1.0665436e-05
-0.00081034048
0.00014267712
2.6244941e-05
-0.00076048692
0.0001562146
3.857499e-05
-0.00062494102
4.2894798e-05
-0.00047602396
0.00014695701
8.2796366e-07
-8.4513981e-07
-3.144862e-05
3.3569089e-06
-3.0710431e-06
-0.00013035644
1.0415197e-05
-5.6938586e-06
-0.00029600853
2.8490633e-05
-6.4653029e-06
-0.00051252408
6.1862541e-05
-1.4871689e-06
-0.00071267152
0.00010441066
1.2254751e-05
-0.00080739264
0.00013823129
3.2294553e-05
-0.0007621825
0.00015201925
4.8961142e-05
-0.00062882959
5.505919e-05
-0.00047978059
0.00014369715
7.780414e-07
-1.0397173e-06
-3.0572106e-05
3.1451032e-06
-3.8280157e-06
-0.0001269844
9.7633013e-06
-7.2550083e-06
-0.00028910272
2.6818065e-05
-8.7237684e-06
-0.00050247056
5.8496095e-05
-3.5161599e-06
-0.00070246717
9.9334235e-05
1.2263502e-05
-0.00080129378
0.00013236116
3.6193984e-05
-0.00076196399
0.00014650802
5.7106582e-05
-0.00063199869
6.5200339e-05
-0.00048326124
0.00013951723
7.0994749e-07
-1.2143067e-06
-2.9389573e-05
2.85388e-06
-4.5414368e-06
-0.00012240093
8.8855889e-06
-8.8260017e-06
-0.0002795978
2.4607506e-05
-1.1256016e-05
-0.00048827575
5.4092171e-05
-6.4495294e-06
-0.00068714206
9.2761148e-05
1.0383347e-05
-0.00079032416
0.00012497025
3.7216967e-05
-0.00075808433
0.00013965751
6.2228989e-05
-0.00063282392
7.2531993e-05
-0.00048523076
0.00013447337
6.2403867e-07
-1.3618279e-06
-2.78614e-05
2.4857137e-06
-5.1870987e-06
-0.00011642298
7.7886694e-06
-1.0364499e-05
-0.00026702077
2.1882769e-05
-1.4019512e-05
-0.00046898221
4.870337e-05
-1.0317721e-05
-0.00066514484
8.4628327e-05
6.4729785e-06
-0.00077233717
0.0001161227
3.5204797e-05
-0.00074823286
0.00013143425
6.350044e-05
-0.00062925088
7.6140481e-05
-0.00048412997
0.00012858048
5.2645838e-07
-1.4822885e-06
-2.5975371e-05
2.0601714e-06
-5.7521389e-06
-0.00010894325
6.5086486e-06
-1.1825011e-05
-0.0002509931
1.8708102e-05
-1.6945387e-05
-0.00044366228
4.2514442e-05
-1.5062243e-05
-0.00063477356
7.5246227e-05
3.954193e-07
-0.00074498428
0.00010564542
2.9387555e-05
-0.0007297742
0.00012168925
5.9611992e-05
-0.00061868824
7.5025886e-05
-0.0004780841
0.00012173057
4.0531632e-07
-1.5578682e-06
-2.3747918e-05
1.540205e-06
-6.1784524e-06
-0.00010001821
5.0000413e-06
-1.3102676e-05
-0.00023159447
1.5078106e-05
-1.9891919e-05
-0.00041230282
3.553979e-05
-2.0539636e-05
-0.00059566495
6.4688687e-05
-7.8183028e-06
-0.00070734854
9.3385447e-05
1.9639711e-05
-0.00070131497
0.00011057726
5.0582423e-05
-0.00060035453
6.855414e-05
-0.00046548543
0.00011376642
2.8115323e-07
-1.5892082e-06
-2.1156511e-05
1.0004553e-06
-6.4512518e-06
-8.9567628e-05
3.4066075e-06
-1.4124862e-05
-0.00020864789
1.1174265e-05
-2.2660798e-05
-0.00037453357
2.788497e-05
-2.6397387e-05
-0.00054704904
5.2828165e-05
-1.7658198e-05
-0.00065807847
7.9033959e-05
6.4277546e-06
-0.00066093027
9.7284024e-05
3.6498869e-05
-0.000571231
5.6303141e-05
-0.00044410744
0.00010380644
1.6882382e-07
-1.5882403e-06
-1.8313746e-05
5.1306808e-07
-6.5965646e-06
-7.7976872e-05
1.9238238e-06
-1.4889586e-05
-0.0001828317
7.3498387e-06
-2.508801e-05
-0.00033111559
1.9971635e-05
-3.2104916e-05
-0.00048926283
3.998275e-05
-2.8261661e-05
-0.00059650815
6.273215e-05
-9.2862078e-06
-0.00060671578
8.0948658e-05
1.8028013e-05
-0.00052865484
3.895407e-05
-0.00041076826
9.0119636e-05
9.5258892e-08
-1.533792e-05
-1.5850617e-06
1.5847913e-07
-6.5750269e-05
-6.6693067e-06
6.1550415e-07
-0.00015526629
-1.5327833e-05
3.4778542e-06
-0.00028376463
-2.6710753e-05
1.1410208e-05
-0.00042399389
-3.6633155e-05
2.5516154e-05
-0.00052314326
-3.7988323e-05
4.3419479e-05
-0.00053727614
-2.5476169e-05
5.9886885e-05
-0.00046956613
-2.6382296e-06
-0.00036229263
2.0859474e-05
6.8698567e-05
-6.0387699e-08
4.1637982e-07
-1.5372129e-05
-3.2177903e-07
-7.8681177e-08
1.6653706e-06
-6.6096209e-05
-1.3011152e-06
-2.7370187e-08
3.4037817e-06
-0.00015600875
-2.7125721e-06
-1.1190891e-07
4.2516637e-06
-0.00028435085
-3.5808171e-06
1.7415465e-07
6.377563e-07
-0.0004236787
-1.2388674e-06
3.0973296e-06
-1.2501765e-05
-0.00052187587
8.3113989e-06
1.1930219e-05
-3.7310202e-05
-0.00053609558
2.729683e-05
2.793207e-05
-6.7587413e-05
-0.00046986739
5.1886567e-05
-9.1197178e-05
-0.00036419572
7.336215e-05
4.7670166e-05