/*--------------------------------*- C++ -*----------------------------------*\
| =========                 |                                                 |
| \\      /  F ield         | OpenFOAM: The Open Source CFD Toolbox           |
|  \\    /   O peration     | Version:  2406                                  |
|   \\  /    A nd           | Website:  www.openfoam.com                      |
|    \\/     M anipulation  |                                                 |
\*---------------------------------------------------------------------------*/
FoamFile
{
    version     2.0;
    format      ascii;
    arch        "LSB;label=32;scalar=64";
    class       volVectorField;
    location    "3.25";
    object      U;
}
// * * * * * * * * * * * * * * * * * * * * * * * * * * * * * * * * * * * * * //

dimensions      [0 1 -1 0 0 0 0];

internalField   nonuniform List<vector> 
34560
(
(-0.064505648 0.010958526 0.018485341)
(-0.20122869 0.034769907 0.05727409)
(-0.35670281 0.065782661 0.097580744)
(-0.51139867 0.10405944 0.13135939)
(-0.63696219 0.14751878 0.15085982)
(-0.70805111 0.19351085 0.15214967)
(-0.71758416 0.23833692 0.1390603)
(-0.68306491 0.2776204 0.12045415)
(-0.63319321 0.30698531 0.10545642)
(-0.069905071 0.012482659 0.019914542)
(-0.21576601 0.038799791 0.061166553)
(-0.37737477 0.071986435 0.1023846)
(-0.53138552 0.11160062 0.1343858)
(-0.64736858 0.15531307 0.14967079)
(-0.70158326 0.20054769 0.1458946)
(-0.69261372 0.2437628 0.12901303)
(-0.64415334 0.28060748 0.10908464)
(-0.58717199 0.30673316 0.094240944)
(-0.074784564 0.013165237 0.020276533)
(-0.2289924 0.040628446 0.062129351)
(-0.39616097 0.074786581 0.10272779)
(-0.54914708 0.11470935 0.13232936)
(-0.65534567 0.15781789 0.14384405)
(-0.6928322 0.20150018 0.13615407)
(-0.66665178 0.24225255 0.1167837)
(-0.60628857 0.27578086 0.096292748)
(-0.54418694 0.29835954 0.082081733)
(-0.078885736 0.013639663 0.020474549)
(-0.2399836 0.041704659 0.062498711)
(-0.41135504 0.075976817 0.10194738)
(-0.56251371 0.11510202 0.12870321)
(-0.65917013 0.15636982 0.13635319)
(-0.6814681 0.19740808 0.1252527)
(-0.64057499 0.23475047 0.10427476)
(-0.5710669 0.26423528 0.083974316)
(-0.50561696 0.28314231 0.071037966)
(-0.082036857 0.013495973 0.020316949)
(-0.2483569 0.041091014 0.061904156)
(-0.42252435 0.07444233 0.09979914)
(-0.57116099 0.11187656 0.12367672)
(-0.65868448 0.15054557 0.12790911)
(-0.66751171 0.18825234 0.11407445)
(-0.61441203 0.22165441 0.092190366)
(-0.53845994 0.24685829 0.072651394)
(-0.47116233 0.26233321 0.061327017)
(-0.084388832 0.012926046 0.019851018)
(-0.25450226 0.039246885 0.060437327)
(-0.43024801 0.070720469 0.096461907)
(-0.57574677 0.10547761 0.11758862)
(-0.65455998 0.14071038 0.11892074)
(-0.65155912 0.17443734 0.1030826)
(-0.58864884 0.20349225 0.080873753)
(-0.50832017 0.22448218 0.06250841)
(-0.44049162 0.23683907 0.052940263)
(-0.086046025 0.011906418 0.019292316)
(-0.25869234 0.03605509 0.058680243)
(-0.43498532 0.064662089 0.092736841)
(-0.57698556 0.095820764 0.11126208)
(-0.64773448 0.12690079 0.11009926)
(-0.63454189 0.15617017 0.092791887)
(-0.56390951 0.18071127 0.070684853)
(-0.48087921 0.19767212 0.053687418)
(-0.41347348 0.20727936 0.045832187)
(-0.087105958 0.010400449 0.018665621)
(-0.26128107 0.031459887 0.056756565)
(-0.43744093 0.056257808 0.088927081)
(-0.5759822 0.08299201 0.10516104)
(-0.6395866 0.10932624 0.10196349)
(-0.61784584 0.13379665 0.083638209)
(-0.54130366 0.15378384 0.061898273)
(-0.45668197 0.16703954 0.046305077)
(-0.39022703 0.17428211 0.040002177)
(-0.087723797 0.0084790229 0.0180544)
(-0.26272069 0.02564797 0.054903868)
(-0.43839052 0.045802139 0.085403175)
(-0.57381237 0.067385267 0.099738297)
(-0.63142518 0.088455692 0.094957622)
(-0.60278328 0.10783705 0.075963056)
(-0.52186707 0.12330748 0.054712058)
(-0.43629203 0.13322567 0.040439242)
(-0.37100238 0.13846012 0.035448497)
(-0.088047898 0.0062666613 0.017525306)
(-0.26341792 0.018964116 0.053312184)
(-0.43848261 0.033832626 0.082465659)
(-0.57133711 0.049673786 0.095354477)
(-0.62427313 0.065035723 0.089434852)
(-0.59042613 0.079054986 0.070027346)
(-0.50638375 0.090059517 0.049271495)
(-0.42028046 0.096931876 0.036118817)
(-0.35611526 0.10045237 0.032152253)
(-0.088235628 0.0038690606 0.017161118)
(-0.26373598 0.011696423 0.052203921)
(-0.43822314 0.020819941 0.080418635)
(-0.56918227 0.030484185 0.092325606)
(-0.61887555 0.039801668 0.085674466)
(-0.58158022 0.04825583 0.066037203)
(-0.49551234 0.054828267 0.045679263)
(-0.40917201 0.058859497 0.033340944)
(-0.34589869 0.060881401 0.030076762)
(-0.08826064 0.0012766246 0.016975976)
(-0.26376221 0.0038640321 0.051653854)
(-0.43795482 0.0069077722 0.079423469)
(-0.56798951 0.010157823 0.090864858)
(-0.61607402 0.013303819 0.083860816)
(-0.5770485 0.016162496 0.06410686)
(-0.48994792 0.018378927 0.043942682)
(-0.40348716 0.019732344 0.032012983)
(-0.3406787 0.020409686 0.029094668)
(-0.088260628 -0.0012765589 0.016975973)
(-0.26376219 -0.0038639182 0.051653868)
(-0.43795483 -0.0069076407 0.079423479)
(-0.56798954 -0.010157684 0.090864905)
(-0.61607402 -0.013303921 0.083860874)
(-0.57704852 -0.01616276 0.06410688)
(-0.48994795 -0.01837934 0.043942714)
(-0.40348719 -0.019732795 0.032013011)
(-0.34067879 -0.020409946 0.029094722)
(-0.088235612 -0.0038690583 0.017161115)
(-0.26373595 -0.011696412 0.052203875)
(-0.4382232 -0.020819889 0.080418581)
(-0.56918234 -0.0304841 0.092325703)
(-0.61887552 -0.039801732 0.085674617)
(-0.58158029 -0.048256018 0.06603726)
(-0.49551241 -0.054828582 0.045679353)
(-0.40917208 -0.058859843 0.033341015)
(-0.34589892 -0.060881609 0.030076887)
(-0.088047912 -0.0062666705 0.017525307)
(-0.26341798 -0.018964152 0.053312071)
(-0.43848275 -0.033832676 0.082465529)
(-0.57133716 -0.049673814 0.095354566)
(-0.62427305 -0.065035754 0.089434989)
(-0.59042624 -0.079055078 0.07002739)
(-0.50638385 -0.090059687 0.049271608)
(-0.42028054 -0.096932049 0.036118907)
(-0.35611554 -0.10045249 0.032152406)
(-0.087723836 -0.0084790159 0.0180544)
(-0.26272081 -0.02564798 0.054903923)
(-0.43839065 -0.045802246 0.085403178)
(-0.57381237 -0.067385373 0.099738342)
(-0.6314251 -0.088455688 0.094957611)
(-0.60278342 -0.10783708 0.075963037)
(-0.52186718 -0.12330753 0.054712157)
(-0.43629209 -0.13322568 0.040439332)
(-0.37100261 -0.13846014 0.03544867)
(-0.087105967 -0.010400458 0.018665613)
(-0.26128109 -0.031459874 0.056756703)
(-0.43744096 -0.05625786 0.088927077)
(-0.57598228 -0.082992088 0.10516088)
(-0.63958661 -0.10932623 0.1019633)
(-0.61784596 -0.13379672 0.083638166)
(-0.54130374 -0.15378387 0.061898348)
(-0.456682 -0.16703946 0.046305169)
(-0.39022717 -0.17428204 0.040002373)
(-0.086046033 -0.011906407 0.019292311)
(-0.25869238 -0.036055079 0.058680204)
(-0.43498546 -0.064662123 0.092736705)
(-0.57698582 -0.095820913 0.11126194)
(-0.64773446 -0.12690093 0.11009922)
(-0.63454183 -0.15617041 0.092791946)
(-0.5639095 -0.18071141 0.070684901)
(-0.48087917 -0.19767205 0.053687515)
(-0.41347353 -0.2072792 0.045832369)
(-0.084388837 -0.012926026 0.019851012)
(-0.25450228 -0.039246834 0.060437418)
(-0.43024806 -0.070720487 0.096462042)
(-0.57574686 -0.10547781 0.11758871)
(-0.65455985 -0.14071068 0.11892076)
(-0.65155894 -0.17443775 0.10308258)
(-0.5886488 -0.20349261 0.080873715)
(-0.50832008 -0.22448222 0.062508488)
(-0.44049161 -0.23683885 0.052940394)
(-0.08203683 -0.013495939 0.020316928)
(-0.24835681 -0.041090923 0.061904165)
(-0.42252425 -0.074442309 0.099799064)
(-0.57116114 -0.11187672 0.12367657)
(-0.6586848 -0.15054589 0.12790909)
(-0.66751183 -0.18825277 0.11407445)
(-0.61441217 -0.2216549 0.092190307)
(-0.53845988 -0.24685845 0.072651365)
(-0.47116228 -0.26233295 0.061327108)
(-0.078885721 -0.013639629 0.020474526)
(-0.23998355 -0.041704589 0.062498652)
(-0.41135505 -0.075976759 0.10194733)
(-0.56251392 -0.11510211 0.12870322)
(-0.65917043 -0.15637012 0.13635335)
(-0.68146823 -0.19740848 0.12525276)
(-0.64057513 -0.23475087 0.10427468)
(-0.57106683 -0.2642355 0.083974216)
(-0.50561681 -0.28314224 0.071038109)
(-0.074784559 -0.013165242 0.020276538)
(-0.22899239 -0.04062848 0.062129356)
(-0.39616097 -0.074786649 0.10272784)
(-0.54914718 -0.11470953 0.13232951)
(-0.65534594 -0.1578183 0.1438443)
(-0.69283249 -0.20150082 0.13615413)
(-0.66665159 -0.242253 0.11678368)
(-0.60628834 -0.27578119 0.096292967)
(-0.54418696 -0.29835948 0.08208167)
(-0.069905054 -0.01248266 0.019914542)
(-0.21576595 -0.038799819 0.061166553)
(-0.37737466 -0.071986462 0.10238468)
(-0.53138539 -0.11160069 0.13438598)
(-0.64736851 -0.15531327 0.14967105)
(-0.70158335 -0.20054821 0.14589478)
(-0.69261364 -0.2437634 0.12901326)
(-0.64415308 -0.28060785 0.10908444)
(-0.58717216 -0.30673318 0.094240434)
(-0.064505651 -0.01095853 0.018485346)
(-0.20122871 -0.034769949 0.057274112)
(-0.35670286 -0.065782723 0.097580872)
(-0.51139879 -0.10405958 0.13135967)
(-0.63696234 -0.14751896 0.15086024)
(-0.7080513 -0.19351113 0.15214995)
(-0.71758439 -0.23833731 0.13906032)
(-0.68306503 -0.27762047 0.12045369)
(-0.63319312 -0.30698532 0.10545605)
(-0.10082012 0.0014412789 0.0013362595)
(-0.31512119 0.0046507368 0.0041923996)
(-0.5604765 0.0086720543 0.0072123225)
(-0.80798518 0.01310162 0.0097542064)
(-1.014702 0.017171712 0.0109076)
(-1.1413713 0.02005557 0.0099286089)
(-1.1770573 0.021427858 0.0068147985)
(-1.1464735 0.021726703 0.0023798093)
(-1.0882799 0.021592346 -0.0025217881)
(-0.11037128 0.0017445256 0.0014366858)
(-0.34135249 0.0055452605 0.004456706)
(-0.59955349 0.010137294 0.0075055176)
(-0.85019394 0.014938332 0.0098077875)
(-1.0460236 0.019035384 0.010393829)
(-1.1494528 0.021606936 0.0086798341)
(-1.1583 0.022492487 0.0049708281)
(-1.1068133 0.022266074 0.00035890446)
(-1.0376099 0.021712844 -0.0043584797)
(-0.11906436 0.001874634 0.0013482162)
(-0.3651149 0.005949583 0.0041750411)
(-0.63459942 0.010813281 0.0069232703)
(-0.8872303 0.015752546 0.0087905535)
(-1.0720832 0.019748588 0.0088377346)
(-1.1541093 0.021998006 0.0066475034)
(-1.1400218 0.022480502 0.0027840764)
(-1.072265 0.021949843 -0.0013809394)
(-0.99586132 0.021253571 -0.0050654419)
(-0.12672692 0.0019339471 0.0012170014)
(-0.38573119 0.0061168907 0.0037483969)
(-0.66432549 0.011045025 0.0060820967)
(-0.91741939 0.015917159 0.0074244038)
(-1.0913884 0.019670272 0.0069166656)
(-1.1544776 0.021558786 0.0043519127)
(-1.1215583 0.021685299 0.00054015073)
(-1.0416134 0.020951329 -0.0029004453)
(-0.96047491 0.02017813 -0.0053194521)
(-0.13303244 0.0018851192 0.0010392304)
(-0.40249515 0.0059689589 0.0031888171)
(-0.68797749 0.010755582 0.005046419)
(-0.94030984 0.01540371 0.0058642917)
(-1.1039204 0.018847711 0.0048865593)
(-1.1505936 0.020414739 0.0020749369)
(-1.1024914 0.02033068 -0.0015671164)
(-1.013703 0.019513308 -0.0042176972)
(-0.9301072 0.018688495 -0.0054336914)
(-0.13818841 0.0017607 0.0008344054)
(-0.41595134 0.0055895753 0.0025486031)
(-0.70637706 0.010062886 0.0039031014)
(-0.95690023 0.014349833 0.0042246333)
(-1.1106862 0.017448251 0.0028656666)
(-1.1431781 0.018753213 -6.3025713e-05)
(-1.0829844 0.018555052 -0.0034502428)
(-0.9881029 0.017744794 -0.005332135)
(-0.90381147 0.016920755 -0.0055127554)
(-0.14233229 0.0015739042 0.00063838365)
(-0.42650527 0.0050124683 0.001931758)
(-0.72022863 0.0090284337 0.0028039567)
(-0.96819261 0.012845508 0.0026752012)
(-1.1128741 0.0155592 0.0010118424)
(-1.1332898 0.016642672 -0.0019651647)
(-1.0635869 0.016419922 -0.0050694301)
(-0.96477209 0.015666974 -0.0062532127)
(-0.88101855 0.014894251 -0.0055767456)
(-0.14547668 0.0013335861 0.0004600662)
(-0.43436464 0.0042656098 0.0013715003)
(-0.73015194 0.0076987391 0.001817935)
(-0.97534417 0.010956268 0.0013157228)
(-1.1120432 0.013249096 -0.00056622492)
(-1.1224212 0.014164302 -0.0035850511)
(-1.0453423 0.013990166 -0.0063804632)
(-0.94412459 0.013302963 -0.0069462721)
(-0.86158977 0.01262197 -0.0055998584)
(-0.14775957 0.0010614831 0.00031137636)
(-0.43997405 0.0034098503 0.00090236911)
(-0.73696396 0.0061689162 0.00099760235)
(-0.9795556 0.0087837231 0.00019863922)
(-1.109639 0.010622727 -0.0018361541)
(-1.1119837 0.011373835 -0.0048397091)
(-1.0292232 0.011277997 -0.0073704363)
(-0.92668763 0.010681456 -0.0074138133)
(-0.84562073 0.01012196 -0.0055647065)
(-0.14932298 0.00076968127 0.00019577826)
(-0.44376556 0.002482589 0.00053641292)
(-0.74139742 0.0045026835 0.00036093022)
(-0.98181151 0.0064212224 -0.0006572425)
(-1.1067963 0.0077774347 -0.0027897543)
(-1.1031308 0.0083576022 -0.0057584406)
(-1.0162835 0.0083182348 -0.008049708)
(-0.91302188 0.0078461928 -0.0076716376)
(-0.83332236 0.0074282333 -0.0054774062)
(-0.15045568 0.00047184067 0.00011665359)
(-0.44638138 0.0015223287 0.00028260945)
(-0.74425421 0.0027605562 -8.5840271e-05)
(-0.98292997 0.0039376444 -0.0012582642)
(-1.1043 0.0047756278 -0.003452504)
(-1.0965999 0.0051480201 -0.0063710541)
(-1.0071365 0.005130341 -0.0084647639)
(-0.90356564 0.0048256636 -0.0077838249)
(-0.82492731 0.0045627687 -0.0053713222)
(-0.1508551 0.00015860793 7.846791e-05)
(-0.44735461 0.00051112856 0.00015949634)
(-0.74533982 0.00092674254 -0.00030456783)
(-0.98325564 0.0013206125 -0.0015551163)
(-1.1029385 0.0016007152 -0.0037797115)
(-1.0932799 0.0017263317 -0.0066687804)
(-1.002513 0.0017233117 -0.0086562621)
(-0.89878662 0.0016226469 -0.0078188265)
(-0.82068223 0.0015378712 -0.0053004159)
(-0.15085511 -0.00015857301 7.8466583e-05)
(-0.44735461 -0.00051106092 0.00015950714)
(-0.74533984 -0.00092666592 -0.00030456794)
(-0.98325568 -0.0013205294 -0.0015551099)
(-1.1029386 -0.0016007621 -0.0037796971)
(-1.0932799 -0.0017264823 -0.0066687794)
(-1.002513 -0.0017235513 -0.008656247)
(-0.89878664 -0.0016228639 -0.00781882)
(-0.82068226 -0.0015378626 -0.005300405)
(-0.15045568 -0.00047183086 0.00011665084)
(-0.4463814 -0.0015223033 0.00028259986)
(-0.74425428 -0.0027605165 -8.5882551e-05)
(-0.98293006 -0.0039375953 -0.0012582686)
(-1.1043001 -0.0047756825 -0.0034524727)
(-1.0966001 -0.0051481754 -0.0063710528)
(-1.0071366 -0.0051305733 -0.0084647251)
(-0.90356567 -0.0048258485 -0.0077838159)
(-0.8249274 -0.0045627206 -0.0053713097)
(-0.14932298 -0.00076967675 0.00019577542)
(-0.44376559 -0.0024825848 0.00053635511)
(-0.7413975 -0.0045026815 0.00036082952)
(-0.9818116 -0.0064212259 -0.00065727303)
(-1.1067964 -0.0077774976 -0.0027897324)
(-1.103131 -0.0083577618 -0.005758446)
(-1.0162836 -0.0083184499 -0.008049665)
(-0.91302195 -0.0078463278 -0.0076716481)
(-0.83332249 -0.0074281403 -0.0054774239)
(-0.14775958 -0.0010614656 0.00031137446)
(-0.4399741 -0.0034098298 0.0009023473)
(-0.73696402 -0.0061689267 0.0009975226)
(-0.97955563 -0.0087837636 0.00019857802)
(-1.109639 -0.010622789 -0.0018361833)
(-1.1119839 -0.011374 -0.0048397293)
(-1.0292234 -0.011278191 -0.0073704106)
(-0.92668776 -0.010681547 -0.0074138517)
(-0.84562089 -0.010121852 -0.0055647468)
(-0.14547668 -0.0013335645 0.00046006188)
(-0.43436464 -0.0042655614 0.0013715291)
(-0.73015192 -0.0076987161 0.0018178706)
(-0.97534417 -0.010956301 0.0013155951)
(-1.1120433 -0.013249161 -0.00056630722)
(-1.1224214 -0.014164494 -0.00358507)
(-1.0453425 -0.013990359 -0.0063804635)
(-0.9441248 -0.013303042 -0.0069463132)
(-0.86158992 -0.012621884 -0.0055998763)
(-0.14233229 -0.0015738794 0.00063837382)
(-0.42650527 -0.0050124095 0.0019317512)
(-0.72022865 -0.009028384 0.0028038863)
(-0.96819273 -0.012845546 0.0026750967)
(-1.1128743 -0.015559317 0.0010118072)
(-1.13329 -0.016642915 -0.0019651555)
(-1.0635871 -0.016420149 -0.0050694472)
(-0.96477232 -0.01566708 -0.006253209)
(-0.88101865 -0.014894184 -0.0055767093)
(-0.13818841 -0.0017606837 0.00083439918)
(-0.41595136 -0.0055895342 0.0025486295)
(-0.70637711 -0.010062852 0.0039031478)
(-0.9569003 -0.01434989 0.0042246373)
(-1.1106862 -0.017448421 0.002865664)
(-1.1431782 -0.018753486 -6.3031514e-05)
(-1.0829846 -0.018555334 -0.0034502501)
(-0.98810308 -0.017744942 -0.0053320586)
(-0.90381154 -0.016920648 -0.0055126765)
(-0.13303244 -0.0018850994 0.0010392203)
(-0.40249513 -0.005968922 0.0031888191)
(-0.68797746 -0.010755559 0.0050464103)
(-0.94030987 -0.015403759 0.0058642339)
(-1.1039205 -0.018847891 0.004886538)
(-1.1505938 -0.020415 0.0020749463)
(-1.1024916 -0.02033098 -0.0015670521)
(-1.0137031 -0.019513469 -0.0042175845)
(-0.93010728 -0.018688336 -0.0054335907)
(-0.12672693 -0.0019339368 0.0012169957)
(-0.38573122 -0.0061168805 0.0037483923)
(-0.66432558 -0.01104502 0.0060821122)
(-0.9174196 -0.015917198 0.007424444)
(-1.0913887 -0.019670443 0.0069167262)
(-1.1544777 -0.021559048 0.0043519823)
(-1.1215584 -0.02168553 0.00054027265)
(-1.0416135 -0.020951435 -0.0029003417)
(-0.96047494 -0.020178069 -0.005319356)
(-0.11906437 -0.0018746432 0.001348222)
(-0.36511493 -0.0059496364 0.0041750413)
(-0.63459948 -0.010813367 0.0069232884)
(-0.88723041 -0.015752663 0.0087905971)
(-1.0720834 -0.019748778 0.0088378204)
(-1.1541096 -0.021998331 0.0066476199)
(-1.1400219 -0.022480727 0.0027842308)
(-1.072265 -0.021949855 -0.0013807428)
(-0.99586134 -0.02125348 -0.0050653115)
(-0.11037128 -0.0017445353 0.0014366953)
(-0.3413525 -0.0055453167 0.0044567255)
(-0.5995535 -0.010137393 0.0075055729)
(-0.85019396 -0.014938463 0.0098079154)
(-1.0460237 -0.019035541 0.010394075)
(-1.1494528 -0.021607234 0.0086800558)
(-1.1582999 -0.022492803 0.0049710026)
(-1.1068131 -0.022266197 0.00035911551)
(-1.0376098 -0.02171275 -0.004358374)
(-0.10082012 -0.0014412983 0.0013362762)
(-0.3151212 -0.0046507938 0.0041924574)
(-0.56047653 -0.0086721577 0.0072124353)
(-0.80798522 -0.013101787 0.0097543912)
(-1.0147021 -0.017171907 0.010907882)
(-1.1413714 -0.020055795 0.0099288838)
(-1.1770575 -0.02142806 0.0068150263)
(-1.1464737 -0.02172686 0.0023800288)
(-1.0882799 -0.021592406 -0.0025217658)
(-0.083871239 0.0010556758 0.00094758415)
(-0.26341545 0.0031914588 0.0028058586)
(-0.4711298 0.0054894683 0.0045497485)
(-0.68313513 0.0075881959 0.0055124287)
(-0.86115383 0.0090572857 0.0047768965)
(-0.96693156 0.0095087303 0.0016610729)
(-0.98631197 0.0087240899 -0.0035802808)
(-0.94036401 0.0068369412 -0.0094465613)
(-0.86776345 0.0044632291 -0.013984225)
(-0.09107563 0.0010405764 0.00081903294)
(-0.28339195 0.0030601024 0.0023728925)
(-0.50119637 0.005100676 0.0036740169)
(-0.7156739 0.0067607746 0.0039825053)
(-0.88406569 0.0076317576 0.0023034223)
(-0.96817958 0.0073957222 -0.001974064)
(-0.96078505 0.005965886 -0.0083286991)
(-0.89245018 0.0036937404 -0.014779745)
(-0.80708651 0.001444907 -0.019202044)
(-0.09758448 0.0010113429 0.00068140483)
(-0.30142557 0.0029056899 0.0019263658)
(-0.52820187 0.0047085779 0.0028165587)
(-0.74445949 0.0060019439 0.0025828937)
(-0.90341705 0.0064334944 0.00018285864)
(-0.96757336 0.0058013084 -0.0049442821)
(-0.93682731 0.0041424747 -0.012070664)
(-0.85042859 0.0018587936 -0.018841968)
(-0.75686579 -0.00024832271 -0.022932161)
(-0.10324042 0.00096751293 0.0005538487)
(-0.31690043 0.0027188592 0.001517789)
(-0.55095455 0.0042863427 0.0020395594)
(-0.76787828 0.0052525002 0.0013293367)
(-0.91762648 0.005330082 -0.0016886398)
(-0.96400317 0.0044305386 -0.0075164704)
(-0.91358273 0.0026873447 -0.01522071)
(-0.81318567 0.00049463503 -0.022119909)
(-0.71409599 -0.0014451892 -0.025813056)
(-0.10775772 0.00089771381 0.00043179408)
(-0.32914647 0.0024762831 0.0011410071)
(-0.56861748 0.0038106799 0.001348673)
(-0.78518459 0.004500814 0.00025147422)
(-0.92618679 0.0043258068 -0.0032634631)
(-0.9570764 0.0032718719 -0.0096513909)
(-0.89050495 0.0015329126 -0.017770367)
(-0.77975702 -0.00049974555 -0.024691166)
(-0.67726044 -0.0021808964 -0.028012135)
(-0.11133354 0.0008120093 0.00031578998)
(-0.33865155 0.0022032983 0.00079372855)
(-0.58186429 0.003315565 0.00073973702)
(-0.79710038 0.003782689 -0.00065672119)
(-0.92974222 0.0034311154 -0.0045517622)
(-0.94713771 0.0023321752 -0.011367066)
(-0.86743973 0.00070380944 -0.019748874)
(-0.74938147 -0.0010871052 -0.026628033)
(-0.6452149 -0.0024904266 -0.029663217)
(-0.1141058 0.00071035297 0.00021480153)
(-0.34580774 0.0018977164 0.00049719511)
(-0.5913412 0.0027946981 0.0002337068)
(-0.80449633 0.003083094 -0.0013910167)
(-0.92929412 0.0026381233 -0.0055629175)
(-0.93503194 0.0015819966 -0.012735563)
(-0.84479407 0.00013488569 -0.021273681)
(-0.7217962 -0.0013347599 -0.028055059)
(-0.61730945 -0.0024805908 -0.030873398)
(-0.11610232 0.00059474787 0.00012871536)
(-0.35082528 0.0015694187 0.00025112534)
(-0.59760965 0.002269283 -0.00017178064)
(-0.80840197 0.0024208283 -0.0019573247)
(-0.92625113 0.001950934 -0.0063292685)
(-0.92221224 0.0010027425 -0.013742993)
(-0.82370129 -0.0002213014 -0.022401235)
(-0.69742435 -0.0013531895 -0.029099607)
(-0.59343841 -0.0022509922 -0.031746154)
(-0.117465 0.00046803919 5.8601663e-05)
(-0.35414981 0.0012221809 5.5194467e-05)
(-0.60147018 0.0017391994 -0.0004835637)
(-0.80996583 0.0018027138 -0.0023728314)
(-0.92199786 0.0013711554 -0.0068702394)
(-0.91011987 0.00058213706 -0.014441577)
(-0.80533278 -0.00038634492 -0.023188749)
(-0.67688345 -0.0012075161 -0.029838405)
(-0.57377356 -0.0018749258 -0.032360271)
(-0.11833994 0.00033713062 5.8431213e-06)
(-0.35622223 0.00087284501 -8.9395543e-05)
(-0.60366705 0.0012254523 -0.00070550621)
(-0.81018795 0.0012386237 -0.0026544079)
(-0.91767966 0.00089175513 -0.0072259091)
(-0.89989032 0.00030066584 -0.014886949)
(-0.79057395 -0.00039422704 -0.023704546)
(-0.66077339 -0.00094433647 -0.030339969)
(-0.55860664 -0.0014026904 -0.032772148)
(-0.11899434 0.00020342098 -2.9384214e-05)
(-0.35766385 0.00052319548 -0.00018489488)
(-0.60501428 0.00072687083 -0.00084983926)
(-0.80993356 0.00072027531 -0.0028334821)
(-0.91415075 0.00049543653 -0.0074444418)
(-0.89234006 0.00013027223 -0.015156848)
(-0.78011119 -0.0002840058 -0.024014898)
(-0.64960751 -0.00060085154 -0.030645643)
(-0.54824907 -0.00086802331 -0.033024011)
(-0.11917533 6.720661e-05 -4.6015584e-05)
(-0.35808175 0.00017173853 -0.00022901651)
(-0.60536389 0.00023652844 -0.00091419783)
(-0.80957153 0.00023046291 -0.0029095268)
(-0.91226245 0.00015277473 -0.0075348136)
(-0.88850075 3.05041e-05 -0.015269582)
(-0.77482863 -0.00010691315 -0.024152046)
(-0.64396709 -0.00020792989 -0.030788664)
(-0.54301978 -0.00029444932 -0.03314354)
(-0.11917533 -6.7193224e-05 -4.6015605e-05)
(-0.35808176 -0.00017171079 -0.00022901426)
(-0.60536391 -0.00023649636 -0.00091419553)
(-0.80957156 -0.00023045592 -0.0029095302)
(-0.91226248 -0.00015284732 -0.007534816)
(-0.88850079 -3.0699011e-05 -0.015269579)
(-0.77482866 0.00010666091 -0.024152042)
(-0.64396712 0.00020777638 -0.030788663)
(-0.54301979 0.00029456364 -0.033143546)
(-0.11899435 -0.00020340694 -2.9384579e-05)
(-0.35766388 -0.00052316789 -0.00018488919)
(-0.60501432 -0.00072684096 -0.0008498355)
(-0.80993362 -0.00072027455 -0.0028334933)
(-0.91415082 -0.0004955243 -0.0074444481)
(-0.89234015 -0.00013048387 -0.015156838)
(-0.78011126 0.00028374044 -0.024014886)
(-0.64960759 0.00060069489 -0.030645644)
(-0.54824913 0.00086814565 -0.033024034)
(-0.11833995 -0.00033711468 5.8414452e-06)
(-0.35622224 -0.00087281419 -8.9396909e-05)
(-0.60366707 -0.001225419 -0.00070551498)
(-0.81018801 -0.0012386259 -0.0026544308)
(-0.91767975 -0.00089186333 -0.0072259166)
(-0.89989044 -0.00030090144 -0.014886932)
(-0.79057407 0.00039394156 -0.023704529)
(-0.66077354 0.00094417434 -0.030339973)
(-0.55860675 0.0014028205 -0.032772192)
(-0.11746499 -0.00046801943 5.8597813e-05)
(-0.3541498 -0.0012221444 5.517186e-05)
(-0.60147017 -0.0017391591 -0.00048359292)
(-0.80996587 -0.0018027174 -0.0023728584)
(-0.92199797 -0.0013712841 -0.0068702395)
(-0.91012 -0.00058239665 -0.014441552)
(-0.80533296 0.00038603838 -0.023188726)
(-0.67688366 0.0012073469 -0.029838409)
(-0.57377371 0.0018750552 -0.032360327)
(-0.11610233 -0.00059472769 0.00012871088)
(-0.35082529 -0.0015693875 0.00025109712)
(-0.59760965 -0.0022692539 -0.0001718055)
(-0.80840201 -0.0024208491 -0.0019573339)
(-0.92625128 -0.0019510865 -0.0063292559)
(-0.92221239 -0.0010030265 -0.01374296)
(-0.82370155 0.00022097694 -0.0224012)
(-0.69742462 0.0013530162 -0.029099597)
(-0.59343858 0.0022511159 -0.031746195)
(-0.11410581 -0.00071033913 0.00021479787)
(-0.34580775 -0.0018976999 0.00049718224)
(-0.5913412 -0.0027946946 0.00023368953)
(-0.80449636 -0.0030831459 -0.0013910217)
(-0.92929432 -0.002638306 -0.005562901)
(-0.93503218 -0.0015823126 -0.012735518)
(-0.84479442 -0.00013522464 -0.021273625)
(-0.7217965 0.0013345931 -0.028055015)
(-0.6173096 0.0024807205 -0.030873397)
(-0.11133355 -0.00081200345 0.00031578798)
(-0.33865157 -0.0022032989 0.00079371919)
(-0.58186431 -0.0033155875 0.00073972338)
(-0.79710042 -0.0037827757 -0.00065670712)
(-0.92974245 -0.0034313287 -0.0045517195)
(-0.94713802 -0.0023325241 -0.011366992)
(-0.86744009 -0.00070415753 -0.019748787)
(-0.74938175 0.0010869587 -0.026627935)
(-0.64521504 0.0024905858 -0.029663157)
(-0.10775774 -0.00089772034 0.00043179821)
(-0.32914653 -0.0024763071 0.0011410236)
(-0.56861756 -0.0038107373 0.0013487045)
(-0.78518468 -0.0045009427 0.00025153201)
(-0.92618697 -0.0043260524 -0.0032633817)
(-0.95707663 -0.0032722401 -0.009651272)
(-0.89050517 -0.0015332552 -0.017770234)
(-0.77975723 0.00049962371 -0.024690994)
(-0.67726059 0.0021810895 -0.028011979)
(-0.10324045 -0.00096752879 0.00055385839)
(-0.3169005 -0.0027189085 0.0015178195)
(-0.55095466 -0.0042864399 0.0020396072)
(-0.76787837 -0.0052526671 0.0013294123)
(-0.91762658 -0.0053303497 -0.0016885152)
(-0.96400334 -0.0044308965 -0.0075163007)
(-0.9135829 -0.0026876759 -0.015220504)
(-0.81318585 -0.00049475929 -0.022119621)
(-0.71409613 0.0014453545 -0.025812758)
(-0.097584501 -0.0010113571 0.00068141489)
(-0.30142562 -0.002905739 0.0019263968)
(-0.52820194 -0.0047086773 0.0028166159)
(-0.74445954 -0.0060021142 0.0025829961)
(-0.90341707 -0.0064337646 0.00018302209)
(-0.96757352 -0.005801644 -0.0049440403)
(-0.93682757 -0.0041427789 -0.012070324)
(-0.85042881 -0.0018589383 -0.018841512)
(-0.75686576 0.00024840086 -0.022931736)
(-0.091075647 -0.0010405897 0.00081904294)
(-0.28339199 -0.003060148 0.0023729262)
(-0.50119643 -0.0051007715 0.003674084)
(-0.71567398 -0.00676094 0.0039826309)
(-0.88406577 -0.0076320154 0.0023036382)
(-0.96817968 -0.0073960409 -0.0019737135)
(-0.96078518 -0.0059661675 -0.0083281815)
(-0.89245029 -0.0036939088 -0.014779113)
(-0.8070863 -0.0014449472 -0.019201565)
(-0.083871253 -0.0010556846 0.0009475933)
(-0.26341548 -0.0031914885 0.0028058934)
(-0.47112985 -0.0054895333 0.0045498186)
(-0.68313521 -0.0075883088 0.0055125693)
(-0.8611539 -0.0090574667 0.00477715)
(-0.96693158 -0.0095089546 0.0016614873)
(-0.98631201 -0.0087243104 -0.0035796765)
(-0.94036411 -0.0068371306 -0.0094458758)
(-0.86776336 -0.0044631749 -0.013983916)
(-0.093028381 0.0002486295 0.00022982086)
(-0.29128697 0.00072429896 0.00065634527)
(-0.51923174 0.0011471584 0.00096096197)
(-0.75017969 0.0012001761 0.00093014372)
(-0.94300991 0.00039133078 0.00029790562)
(-1.0582934 -0.001756618 -0.0011746316)
(-1.0825918 -0.0053139041 -0.0035806626)
(-1.0389102 -0.0096902388 -0.0066885121)
(-0.96707282 -0.013979653 -0.010070911)
(-0.101285 0.00029857057 0.00024385418)
(-0.31417225 0.00084652579 0.00067933315)
(-0.55378139 0.0012873977 0.00093022082)
(-0.7881712 0.0012251281 0.00073423125)
(-0.9717425 8.5225025e-05 -0.00021658968)
(-1.0654247 -0.0026234078 -0.0021614164)
(-1.0628886 -0.0068527257 -0.005124096)
(-0.99653432 -0.011748573 -0.0087267729)
(-0.91104087 -0.016137002 -0.012488573)
(-0.10879276 0.0003361028 0.00023632193)
(-0.33498402 0.0009318465 0.00063512031)
(-0.58510984 0.0013708993 0.00078315811)
(-0.82233511 0.0012007171 0.00039407798)
(-0.99711236 -0.00019386029 -0.00084279209)
(-1.0713114 -0.0032704713 -0.0031418862)
(-1.0456934 -0.0078451035 -0.0064536366)
(-0.96089476 -0.012861975 -0.010237989)
(-0.86588086 -0.017089338 -0.013766552)
(-0.1153704 0.00034097928 0.00020498188)
(-0.35303135 0.00092317292 0.00052176918)
(-0.61190645 0.0013042216 0.00052288799)
(-0.85090999 0.00099958458 -8.8795904e-05)
(-1.017337 -0.00061407246 -0.0016065197)
(-1.0744593 -0.0039377304 -0.0041947932)
(-1.0295489 -0.0086659776 -0.0077130286)
(-0.9301306 -0.01361529 -0.011452217)
(-0.82800489 -0.017567258 -0.014530644)
(-0.12070597 0.00031874294 0.00016279694)
(-0.3675854 0.0008382505 0.00038119044)
(-0.63326 0.001119578 0.00023202151)
(-0.87306217 0.00067123827 -0.00058079964)
(-1.0317714 -0.0011087171 -0.0023242619)
(-1.0742209 -0.0045499249 -0.0051095577)
(-1.0134649 -0.0092455702 -0.0086925152)
(-0.90273403 -0.013934438 -0.012239066)
(-0.79564029 -0.017470776 -0.014799629)
(-0.12500963 0.00027870907 0.00011690055)
(-0.37915949 0.00070619393 0.00023555937)
(-0.64986278 0.00086896365 -4.6982138e-05)
(-0.88948999 0.00029361214 -0.0010129971)
(-1.0409251 -0.0015704887 -0.0028963278)
(-1.0707144 -0.004971749 -0.005754627)
(-0.99702502 -0.0094333944 -0.0092664656)
(-0.87772526 -0.013708934 -0.012561138)
(-0.76752175 -0.01676099 -0.014657532)
(-0.12842036 0.00022788571 7.598987e-05)
(-0.38814291 0.00054931752 0.00010987333)
(-0.66233965 0.00059562289 -0.00027565502)
(-0.90099327 -6.513852e-05 -0.0013407714)
(-1.0456507 -0.0019094573 -0.0032798461)
(-1.0646196 -0.0051135316 -0.0061003597)
(-0.98039784 -0.0091816853 -0.0095331352)
(-0.85474343 -0.01292747 -0.012544503)
(-0.7429403 -0.015443871 -0.014212009)
(-0.13095445 0.00017529329 4.3488548e-05)
(-0.39471633 0.00039659647 1.43803e-05)
(-0.67120092 0.00035295573 -0.00043894207)
(-0.90851077 -0.00032868446 -0.0015504144)
(-1.0472209 -0.002045656 -0.0034681075)
(-1.0571039 -0.0049083138 -0.0062411621)
(-0.9644824 -0.008431437 -0.0095117684)
(-0.83421745 -0.011554875 -0.012245925)
(-0.72182357 -0.013544685 -0.013572595)
(-0.13274959 0.00012665524 2.0140059e-05)
(-0.39930743 0.00026569865 -5.0819924e-05)
(-0.6772047 0.0001702834 -0.00054092038)
(-0.91312112 -0.00046517972 -0.0016515185)
(-1.0468333 -0.0019399424 -0.0035371357)
(-1.0494469 -0.0043311332 -0.0062025155)
(-0.95032596 -0.0071844125 -0.00929515)
(-0.81677996 -0.0096316993 -0.011796725)
(-0.70437205 -0.011123779 -0.012874152)
(-0.13395079 8.4094825e-05 4.4162794e-06)
(-0.40234605 0.00016262583 -9.1892912e-05)
(-0.68105487 5.6390404e-05 -0.00059755975)
(-0.91571221 -0.00045896316 -0.0016969119)