/*--------------------------------*- C++ -*----------------------------------*\
| =========                 |                                                 |
| \\      /  F ield         | OpenFOAM: The Open Source CFD Toolbox           |
|  \\    /   O peration     | Version:  2406                                  |
|   \\  /    A nd           | Website:  www.openfoam.com                      |
|    \\/     M anipulation  |                                                 |
\*---------------------------------------------------------------------------*/
FoamFile
{
    version     2.0;
    format      ascii;
    arch        "LSB;label=32;scalar=64";
    class       volScalarField;
    location    "10.5";
    object      p;
}
// * * * * * * * * * * * * * * * * * * * * * * * * * * * * * * * * * * * * * //

dimensions      [0 2 -2 0 0 0 0];

internalField   nonuniform List<scalar> 
34560
(
-17.105572
-17.110925
-17.11965
-17.133128
-17.151733
-17.175017
-17.20141
-17.230114
-17.258862
-17.086199
-17.093419
-17.105158
-17.123108
-17.147497
-17.177351
-17.210279
-17.244868
-17.278908
-17.067141
-17.076428
-17.091399
-17.113889
-17.143832
-17.179547
-17.217743
-17.256481
-17.293612
-17.046234
-17.057613
-17.07594
-17.1032
-17.138881
-17.18039
-17.22357
-17.265852
-17.305531
-17.024369
-17.037903
-17.059646
-17.091701
-17.133053
-17.180156
-17.228174
-17.273852
-17.315692
-17.003174
-17.018673
-17.043607
-17.080195
-17.126884
-17.179153
-17.231617
-17.280454
-17.324152
-16.983305
-17.000589
-17.028451
-17.069213
-17.120775
-17.177677
-17.234093
-17.285744
-17.331048
-16.965332
-16.984207
-17.014674
-17.059136
-17.11498
-17.175902
-17.235727
-17.2898
-17.336494
-16.949858
-16.970084
-17.00276
-17.050346
-17.109781
-17.17404
-17.236674
-17.292745
-17.340607
-16.9377
-16.958963
-16.993351
-17.043359
-17.105563
-17.17238
-17.237153
-17.294742
-17.343522
-16.929469
-16.951436
-16.986985
-17.038621
-17.10267
-17.171185
-17.237374
-17.295967
-17.345375
-16.924977
-16.947345
-16.983531
-17.036034
-17.101052
-17.170452
-17.237375
-17.296489
-17.346234
-16.924977
-16.947345
-16.983531
-17.036035
-17.101052
-17.170453
-17.237375
-17.29649
-17.346234
-16.929469
-16.951436
-16.986985
-17.038621
-17.102671
-17.171186
-17.237374
-17.295968
-17.345376
-16.937701
-16.958964
-16.993352
-17.04336
-17.105564
-17.172381
-17.237154
-17.294744
-17.343523
-16.949859
-16.970085
-17.002761
-17.050347
-17.109782
-17.17404
-17.236675
-17.292746
-17.340608
-16.965333
-16.984208
-17.014675
-17.059137
-17.114981
-17.175903
-17.235728
-17.289801
-17.336494
-16.983306
-17.000591
-17.028452
-17.069215
-17.120776
-17.177678
-17.234094
-17.285744
-17.331048
-17.003177
-17.018676
-17.04361
-17.080197
-17.126886
-17.179155
-17.231618
-17.280454
-17.324151
-17.024373
-17.037907
-17.05965
-17.091704
-17.133056
-17.180159
-17.228175
-17.273852
-17.31569
-17.046239
-17.057618
-17.075945
-17.103204
-17.138885
-17.180394
-17.223572
-17.265852
-17.30553
-17.067146
-17.076434
-17.091404
-17.113894
-17.143836
-17.179551
-17.217746
-17.256482
-17.293611
-17.086205
-17.093425
-17.105164
-17.123113
-17.147503
-17.177356
-17.210283
-17.24487
-17.27891
-17.105578
-17.110931
-17.119656
-17.133134
-17.151739
-17.175022
-17.201414
-17.23012
-17.258868
-16.526349
-16.524337
-16.521965
-16.518665
-16.513033
-16.504061
-16.491783
-16.476677
-16.46128
-16.547238
-16.544529
-16.540988
-16.535624
-16.526594
-16.512941
-16.495824
-16.477076
-16.459609
-16.570605
-16.567217
-16.562685
-16.555544
-16.543418
-16.52526
-16.503299
-16.480805
-16.460835
-16.593758
-16.589651
-16.584118
-16.575284
-16.560327
-16.538072
-16.511557
-16.485422
-16.462661
-16.616326
-16.611546
-16.605022
-16.594465
-16.57679
-16.550772
-16.51991
-16.490196
-16.464737
-16.637483
-16.632143
-16.624741
-16.612553
-16.592323
-16.562975
-16.52822
-16.495091
-16.467118
-16.656701
-16.650859
-16.642648
-16.628945
-16.606372
-16.574121
-16.536043
-16.499843
-16.469583
-16.673551
-16.667295
-16.658387
-16.643334
-16.618674
-16.583904
-16.543039
-16.50418
-16.471815
-16.687583
-16.681005
-16.671534
-16.655351
-16.628918
-16.592013
-16.548908
-16.507857
-16.473584
-16.698415
-16.691609
-16.681718
-16.66466
-16.636827
-16.59822
-16.553379
-16.510632
-16.474858
-16.705809
-16.69884
-16.68865
-16.67098
-16.642167
-16.602367
-16.556319
-16.512459
-16.475714
-16.709544
-16.702504
-16.692174
-16.674197
-16.644884
-16.604469
-16.557795
-16.513374
-16.47615
-16.709544
-16.702505
-16.692174
-16.674198
-16.644884
-16.604469
-16.557795
-16.513375
-16.47615
-16.70581
-16.698841
-16.688651
-16.67098
-16.642168
-16.602368
-16.556319
-16.51246
-16.475714
-16.698416
-16.69161
-16.681719
-16.664662
-16.636828
-16.598221
-16.553379
-16.510632
-16.474858
-16.687585
-16.681007
-16.671535
-16.655353
-16.628919
-16.592014
-16.548909
-16.507858
-16.473584
-16.673553
-16.667297
-16.658389
-16.643336
-16.618676
-16.583906
-16.54304
-16.50418
-16.471814
-16.656704
-16.650862
-16.64265
-16.628948
-16.606375
-16.574123
-16.536045
-16.499844
-16.469583
-16.637487
-16.632147
-16.624745
-16.612556
-16.592326
-16.562978
-16.528222
-16.495091
-16.467118
-16.616331
-16.61155
-16.605027
-16.594469
-16.576794
-16.550776
-16.519913
-16.490198
-16.464737
-16.593764
-16.589656
-16.584124
-16.57529
-16.560332
-16.538077
-16.51156
-16.485424
-16.462661
-16.570612
-16.567223
-16.562692
-16.555551
-16.543424
-16.525266
-16.503304
-16.480808
-16.460837
-16.547245
-16.544536
-16.540995
-16.535631
-16.526601
-16.512948
-16.495831
-16.477082
-16.459613
-16.526356
-16.524345
-16.521973
-16.518673
-16.513041
-16.504069
-16.491791
-16.476685
-16.461286
-15.57188
-15.571328
-15.570898
-15.570998
-15.571946
-15.573418
-15.573675
-15.571338
-15.567647
-15.575449
-15.574746
-15.574086
-15.573945
-15.574704
-15.576075
-15.57622
-15.573526
-15.569603
-15.57879
-15.577957
-15.577156
-15.576953
-15.577854
-15.579598
-15.580135
-15.577553
-15.57352
-15.581251
-15.580283
-15.579344
-15.579113
-15.580226
-15.582445
-15.58347
-15.581058
-15.576784
-15.583373
-15.582281
-15.581213
-15.580942
-15.582163
-15.584675
-15.586048
-15.583778
-15.579376
-15.585454
-15.584236
-15.583055
-15.582774
-15.584078
-15.586682
-15.588189
-15.58602
-15.581568
-15.587439
-15.586102
-15.584835
-15.58457
-15.585963
-15.58856
-15.590024
-15.587918
-15.583471
-15.589283
-15.587846
-15.586515
-15.586288
-15.587777
-15.590337
-15.591653
-15.589565
-15.585198
-15.590902
-15.589385
-15.588013
-15.587838
-15.58944
-15.592004
-15.593122
-15.59101
-15.586807
-15.59222
-15.590643
-15.589248
-15.589129
-15.590847
-15.593454
-15.594428
-15.592292
-15.588192
-15.593154
-15.591533
-15.590125
-15.590056
-15.59187
-15.594528
-15.595437
-15.593261
-15.589161
-15.593625
-15.591986
-15.590575
-15.590536
-15.592405
-15.595099
-15.595985
-15.593783
-15.58966
-15.593625
-15.591986
-15.590575
-15.590536
-15.592405
-15.595099
-15.595985
-15.593783
-15.58966
-15.593155
-15.591534
-15.590126
-15.590057
-15.59187
-15.594529
-15.595437
-15.593261
-15.589161
-15.592221
-15.590644
-15.589249
-15.58913
-15.590848
-15.593455
-15.594429
-15.592293
-15.588192
-15.590903
-15.589386
-15.588014
-15.587839
-15.589441
-15.592005
-15.593123
-15.591011
-15.586807
-15.589285
-15.587847
-15.586516
-15.58629
-15.587779
-15.590339
-15.591654
-15.589565
-15.585198
-15.587441
-15.586105
-15.584838
-15.584573
-15.585965
-15.588562
-15.590026
-15.587919
-15.58347
-15.585457
-15.584239
-15.583059
-15.582778
-15.584081
-15.586685
-15.588192
-15.586021
-15.581568
-15.583378
-15.582286
-15.581218
-15.580947
-15.582168
-15.584679
-15.586052
-15.58378
-15.579376
-15.581257
-15.580289
-15.57935
-15.579119
-15.580232
-15.582451
-15.583475
-15.581061
-15.576785
-15.578797
-15.577965
-15.577164
-15.576961
-15.577862
-15.579605
-15.580142
-15.577558
-15.573522
-15.575458
-15.574755
-15.574095
-15.573953
-15.574713
-15.576084
-15.576228
-15.573532
-15.569605
-15.571889
-15.571337
-15.570907
-15.571008
-15.571956
-15.573427
-15.573684
-15.571345
-15.567652
-14.870065
-14.870251
-14.870464
-14.870592
-14.870433
-14.869697
-14.86867
-14.867901
-14.866785
-14.874584
-14.874714
-14.874802
-14.874681
-14.874067
-14.872546
-14.870315
-14.868257
-14.866531
-14.87961
-14.879688
-14.879684
-14.879384
-14.878437
-14.876375
-14.873355
-14.87038
-14.868097
-14.88437
-14.884385
-14.884295
-14.88385
-14.882616
-14.880165
-14.876648
-14.873075
-14.870301
-14.888819
-14.888773
-14.888605
-14.888027
-14.886504
-14.88365
-14.879747
-14.875766
-14.872613
-14.892781
-14.892701
-14.892481
-14.891762
-14.889971
-14.886733
-14.882462
-14.878129
-14.874629
-14.896024
-14.895934
-14.895681
-14.894846
-14.892794
-14.88921
-14.884609
-14.879961
-14.876151
-14.898581
-14.898499
-14.898221
-14.897279
-14.894996
-14.891106
-14.886219
-14.881324
-14.877268
-14.900459
-14.9004
-14.90012
-14.899101
-14.896637
-14.892497
-14.887379
-14.882307
-14.878068
-14.901772
-14.901731
-14.901453
-14.900379
-14.89778
-14.893451
-14.888164
-14.882977
-14.878602
-14.902601
-14.902575
-14.902297
-14.901183
-14.898488
-14.89403
-14.888635
-14.883379
-14.878916
-14.902987
-14.90297
-14.902697
-14.901564
-14.898822
-14.894299
-14.888853
-14.883564
-14.87906
-14.902988
-14.902971
-14.902697
-14.901564
-14.898822
-14.894299
-14.888853
-14.883564
-14.87906
-14.902602
-14.902575
-14.902298
-14.901183
-14.898488
-14.89403
-14.888635
-14.883379
-14.878916
-14.901773
-14.901732
-14.901453
-14.90038
-14.897781
-14.893452
-14.888164
-14.882977
-14.878601
-14.900459
-14.900401
-14.900121
-14.899103
-14.896639
-14.892499
-14.88738
-14.882307
-14.878068
-14.898582
-14.898501
-14.898223
-14.897281
-14.894998
-14.891108
-14.88622
-14.881325
-14.877268
-14.896025
-14.895936
-14.895683
-14.894849
-14.892796
-14.889213
-14.884611
-14.879962
-14.876151
-14.892784
-14.892704
-14.892484
-14.891766
-14.889975
-14.886737
-14.882465
-14.878131
-14.874629
-14.888822
-14.888778
-14.888609
-14.888032
-14.886509
-14.883654
-14.879751
-14.875768
-14.872614
-14.884376
-14.884391
-14.884301
-14.883856
-14.882622
-14.880171
-14.876654
-14.873079
-14.870302
-14.879617
-14.879695
-14.879691
-14.879392
-14.878444
-14.876382
-14.873362
-14.870385
-14.868099
-14.874592
-14.874723
-14.87481
-14.874689
-14.874075
-14.872554
-14.870322
-14.868263
-14.866535
-14.870074
-14.87026
-14.870473
-14.870601
-14.870441
-14.869705
-14.868678
-14.867908
-14.86679
-14.098677
-14.098684
-14.098729
-14.098854
-14.099108
-14.099526
-14.100098
-14.100674
-14.100945
-14.100809
-14.100776
-14.100754
-14.100778
-14.100891
-14.101144
-14.101501
-14.101799
-14.10188
-14.103033
-14.102967
-14.102909
-14.102897
-14.102968
-14.103163
-14.103404
-14.103546
-14.103519
-14.104855
-14.104767
-14.10469
-14.104671
-14.104752
-14.104924
-14.105097
-14.105093
-14.104863
-14.106155
-14.106072
-14.105989
-14.105947
-14.106007
-14.106161
-14.106267
-14.106117
-14.105698
-14.107092
-14.107017
-14.106929
-14.106878
-14.106906
-14.107022
-14.107069
-14.106802
-14.106239
-14.107815
-14.107743
-14.107652
-14.107591
-14.107616
-14.107707
-14.107706
-14.107366
-14.10669
-14.108376
-14.108304
-14.10822
-14.108163
-14.108192
-14.108277
-14.108247
-14.107844
-14.107069
-14.108816
-14.10874
-14.10865
-14.108596
-14.108634
-14.108727
-14.108683
-14.108229
-14.107368
-14.10914
-14.109061
-14.108967
-14.108913
-14.108956
-14.109059
-14.109011
-14.108518
-14.10759
-14.109355
-14.109272
-14.109174
-14.109119
-14.109167
-14.109279
-14.10923
-14.108711
-14.107739
-14.109452
-14.10937
-14.109271
-14.109216
-14.109268
-14.109387
-14.10934
-14.10881
-14.107816
-14.109452
-14.10937
-14.109271
-14.109216
-14.109268
-14.109387
-14.10934
-14.10881
-14.107816
-14.109355
-14.109273
-14.109175
-14.109119
-14.109167
-14.10928
-14.10923
-14.108711
-14.107738
-14.10914
-14.109061
-14.108967
-14.108913
-14.108957
-14.10906
-14.109011
-14.108518
-14.107589
-14.108817
-14.108741
-14.10865
-14.108597
-14.108635
-14.108728
-14.108684
-14.108229
-14.107367
-14.108377
-14.108305
-14.108221
-14.108164
-14.108193
-14.108279
-14.108248
-14.107844
-14.107069
-14.107817
-14.107745
-14.107654
-14.107593
-14.107618
-14.10771
-14.107708
-14.107367
-14.10669
-14.107094
-14.107019
-14.106932
-14.106882
-14.106909
-14.107026
-14.107072
-14.106804
-14.106239
-14.106159
-14.106076
-14.105993
-14.105952
-14.106012
-14.106166
-14.106271
-14.10612
-14.105698
-14.10486
-14.104773
-14.104696
-14.104677
-14.104758
-14.10493
-14.105102
-14.105097
-14.104865
-14.10304
-14.102974
-14.102917
-14.102904
-14.102975
-14.10317
-14.103411
-14.103552
-14.103523
-14.100817
-14.100784
-14.100763
-14.100787
-14.100899
-14.101153
-14.101509
-14.101807
-14.101886
-14.098686
-14.098693
-14.098738
-14.098864
-14.099117
-14.099536
-14.100107
-14.100685
-14.100954
-13.375959
-13.376007
-13.376069
-13.376134
-13.376192
-13.376223
-13.376207
-13.376156
-13.375964
-13.376537
-13.376583
-13.376628
-13.376648
-13.376609
-13.376482
-13.376282
-13.376044
-13.37576
-13.377273
-13.377315
-13.377344
-13.377319
-13.377197
-13.376961
-13.376666
-13.376362
-13.376093
-13.378064
-13.378095
-13.378105
-13.378042
-13.377864
-13.37757
-13.377222
-13.376875
-13.376589
-13.378972
-13.378988
-13.378976
-13.378885
-13.378671
-13.378341
-13.377935
-13.377528
-13.377201
-13.379949
-13.379948
-13.379918
-13.379815
-13.379599
-13.379251
-13.378794
-13.378318
-13.37793
-13.38091
-13.380894
-13.380851
-13.380747
-13.380541
-13.38019
-13.379701
-13.379164
-13.378707
-13.381797
-13.381771
-13.381719
-13.381617
-13.38142
-13.381073
-13.380563
-13.379974
-13.379443
-13.382557
-13.382524
-13.382468
-13.382365
-13.382177
-13.381837
-13.381313
-13.38068
-13.380079
-13.383156
-13.383118
-13.383058
-13.382958
-13.382777
-13.382445
-13.38191
-13.38124
-13.380581
-13.383571
-13.383529
-13.383468
-13.383369
-13.383195
-13.382869
-13.382326
-13.381629
-13.380927
-13.38378
-13.383737
-13.383675
-13.383578
-13.383408
-13.383085
-13.382539
-13.381829
-13.381105
-13.38378
-13.383737
-13.383675
-13.383578
-13.383408
-13.383085
-13.382539
-13.381829
-13.381105
-13.383571
-13.383529
-13.383468
-13.383369
-13.383196
-13.382869
-13.382326
-13.381629
-13.380926
-13.383156
-13.383118
-13.383058
-13.382958
-13.382778
-13.382445
-13.381911
-13.38124
-13.380579
-13.382557
-13.382524
-13.382468
-13.382366
-13.382177
-13.381838
-13.381313
-13.380679
-13.380077
-13.381798
-13.381771
-13.38172
-13.381618
-13.381422
-13.381074
-13.380564
-13.379974
-13.379441
-13.380911
-13.380895
-13.380852
-13.380749
-13.380543
-13.380192
-13.379703
-13.379164
-13.378705
-13.379951
-13.37995
-13.37992
-13.379818
-13.379603
-13.379254
-13.378797
-13.378319
-13.377929
-13.378975
-13.378991
-13.37898
-13.378889
-13.378676
-13.378346
-13.377939
-13.37753
-13.3772
-13.378069
-13.378101
-13.378111
-13.378049
-13.37787
-13.377576
-13.377227
-13.376879
-13.37659
-13.37728
-13.377322
-13.377352
-13.377327
-13.377206
-13.376969
-13.376673
-13.376368
-13.376096
-13.376546
-13.376592
-13.376638
-13.376658
-13.376619
-13.376492
-13.376291
-13.376052
-13.375764
-13.375969
-13.376017
-13.376079
-13.376145
-13.376203
-13.376234
-13.376218
-13.376166
-13.375972
-12.644439
-12.644446
-12.644463
-12.644497
-12.644563
-12.644673
-12.644824
-12.644998
-12.645108
-12.644995
-12.644993
-12.644994
-12.645005
-12.645039
-12.645105
-12.645191
-12.645271
-12.645308
-12.645565
-12.645558
-12.645551
-12.645553
-12.645576
-12.645621
-12.645666
-12.645694
-12.645703
-12.646053
-12.646042
-12.646032
-12.646033
-12.646055
-12.646084
-12.646094
-12.646076
-12.64604
-12.64644
-12.646428
-12.646418
-12.64642
-12.646433
-12.646436
-12.646408
-12.646343
-12.646257
-12.646723
-12.646714
-12.646705
-12.646703
-12.646698
-12.64667
-12.646603
-12.646493
-12.646357
-12.646906
-12.6469
-12.646891
-12.646878
-12.646851
-12.646797
-12.646697
-12.646546
-12.646366
-12.647024
-12.647019
-12.647007
-12.646983
-12.646939
-12.64686
-12.646728
-12.64654
-12.646325
-12.647104
-12.647097
-12.647082
-12.647051
-12.646991
-12.646889
-12.646728
-12.64651
-12.646266
-12.647159
-12.647151
-12.647132
-12.647095
-12.647023
-12.646901
-12.646717
-12.646476
-12.64621
-12.647194
-12.647185
-12.647164
-12.647121
-12.647039
-12.646904
-12.646706
-12.646449
-12.64617
-12.647209
-12.647199
-12.647177
-12.647132
-12.647046
-12.646905
-12.646699
-12.646435
-12.646148
-12.647209
-12.647199
-12.647177
-12.647132
-12.647046
-12.646905
-12.646699
-12.646435
-12.646148
-12.647194
-12.647184
-12.647163
-12.647121
-12.647039
-12.646904
-12.646706
-12.646449
-12.646168
-12.647158
-12.64715
-12.647132
-12.647095
-12.647023
-12.646901
-12.646717
-12.646475
-12.646208
-12.647103
-12.647096
-12.647081
-12.647051
-12.646992
-12.646889
-12.646728
-12.646509
-12.646263
-12.647024
-12.647018
-12.647007
-12.646983
-12.646939
-12.646861
-12.646728
-12.646539
-12.646321
-12.646907
-12.6469
-12.646892
-12.646879
-12.646853
-12.646799
-12.646698
-12.646545
-12.646363
-12.646725
-12.646715
-12.646708
-12.646706
-12.646701
-12.646673
-12.646605
-12.646493
-12.646354
-12.646443
-12.646432
-12.646422
-12.646424
-12.646438
-12.646441
-12.646411
-12.646343
-12.646254
-12.646058
-12.646047
-12.646038
-12.64604
-12.646061
-12.64609
-12.646099
-12.646078
-12.646039
-12.645573
-12.645566
-12.64556
-12.645562
-12.645585
-12.645629
-12.645673
-12.645698
-12.645703
-12.645005
-12.645004
-12.645005
-12.645016
-12.64505
-12.645115
-12.6452
-12.645278
-12.64531
-12.64445
-12.644458
-12.644475
-12.644509
-12.644575
-12.644685
-12.644835
-12.645007
-12.645114
-11.923163
-11.923173
-11.923188
-11.923205
-11.923225
-11.923246
-11.923268
-11.923297
-11.923299
-11.923327
-11.923335
-11.923344
-11.92335
-11.923347
-11.923333
-11.923316
-11.923302
-11.923282
-11.923528
-11.923535
-11.92354
-11.923536
-11.923516
-11.923483
-11.923447
-11.923421
-11.92341
-11.923731
-11.923735
-11.923735
-11.923724
-11.923697
-11.923657
-11.923614
-11.923582
-11.923571
-11.923952
-11.923952
-11.923947
-11.92393
-11.923898
-11.923853
-11.923805
-11.923765
-11.923746
-11.924193
-11.92419
-11.924182
-11.924162
-11.924127
-11.92408
-11.924025
-11.923976
-11.923946
-11.924435
-11.924429
-11.924418
-11.924398
-11.924366
-11.924319
-11.924261
-11.924203
-11.924161
-11.924662
-11.924654
-11.924642
-11.924623
-11.924593
-11.924549
-11.92449
-11.924425
-11.924369
-11.924858
-11.924849
-11.924837
-11.924819
-11.924792
-11.924752
-11.924694
-11.924623
-11.924552
-11.925016
-11.925005
-11.924992
-11.924976
-11.924953
-11.924916
-11.924858
-11.924782
-11.924699
-11.925125
-11.925114
-11.925101
-11.925086
-11.925065
-11.925031
-11.924973
-11.924892
-11.9248
-11.925181
-11.92517
-11.925157
-11.925142
-11.925122
-11.92509
-11.925032
-11.924949
-11.924852
-11.92518
-11.925169
-11.925156
-11.925141
-11.925122
-11.92509
-11.925032
-11.924949
-11.924851
-11.925124
-11.925114
-11.925101
-11.925085
-11.925065
-11.925031
-11.924973
-11.924891
-11.924799
-11.925014
-11.925004
-11.924991
-11.924975
-11.924952
-11.924916
-11.924858
-11.92478
-11.924696
-11.924857
-11.924848
-11.924836
-11.924818
-11.924792
-11.924752
-11.924693
-11.924621
-11.924549
-11.92466
-11.924653
-11.924641
-11.924623
-11.924593
-11.924549
-11.924489
-11.924424
-11.924365
-11.924434
-11.924429
-11.924418
-11.924399
-11.924367
-11.92432
-11.924261
-11.924202
-11.924156
-11.924194
-11.924191
-11.924183
-11.924164
-11.92413
-11.924082
-11.924027
-11.923975
-11.923942
-11.923954
-11.923955
-11.923951
-11.923934
-11.923902
-11.923857
-11.923808
-11.923765
-11.923743
-11.923736
-11.92374
-11.923741
-11.92373
-11.923703
-11.923662
-11.923619
-11.923584
-11.923568
-11.923535
-11.923543
-11.923548
-11.923544
-11.923525
-11.923491
-11.923454
-11.923424
-11.92341
-11.923337
-11.923345
-11.923354
-11.92336
-11.923357
-11.923343
-11.923325
-11.923308
-11.923285
-11.923174
-11.923184
-11.923199
-11.923216
-11.923236
-11.923257
-11.923279
-11.923307
-11.923305
-11.198822
-11.198823
-11.198827
-11.198836
-11.198853
-11.198882
-11.198922
-11.198968
-11.198997
-11.198956
-11.198956
-11.198955
-11.198958
-11.198967
-11.198984
-11.199005
-11.199025
-11.199033
-11.199095
-11.199093
-11.199091
-11.199091
-11.199096
-11.199105
-11.199114
-11.19912
-11.199123
-11.199212
-11.199209
-11.199207
-11.199207
-11.199211
-11.199215
-11.199215
-11.19921
-11.199205
-11.199306
-11.199303
-11.1993
-11.1993
-11.199301
-11.199299
-11.199291
-11.199277
-11.199263
-11.199378
-11.199375
-11.199372
-11.19937
-11.199367
-11.199359
-11.199344
-11.19932
-11.199296
-11.199429
-11.199426
-11.199423
-11.199418
-11.199411
-11.199398
-11.199375
-11.199343
-11.199309
-11.199466
-11.199463
-11.199458
-11.199452
-11.199441
-11.199423
-11.199393
-11.199351
-11.199307
-11.199493
-11.199489
-11.199484
-11.199476
-11.199462
-11.199439
-11.199402
-11.199352
-11.199299
-11.199512
-11.199508
-11.199502
-11.199493
-11.199477
-11.199449
-11.199406
-11.199349
-11.19929
-11.199524
-11.19952
-11.199514
-11.199503
-11.199485
-11.199454
-11.199407
-11.199346
-11.199282
-11.19953
-11.199526
-11.199519
-11.199508
-11.199489
-11.199457
-11.199408
-11.199344
-11.199278
-11.199529
-11.199525
-11.199519
-11.199508
-11.199489
-11.199457
-11.199408
-11.199344
-11.199278
-11.199523
-11.199519
-11.199513
-11.199503
-11.199485
-11.199454
-11.199407
-11.199345
-11.199281
-11.19951
-11.199507
-11.199501
-11.199492
-11.199476
-11.199448
-11.199405
-11.199347
-11.199287
-11.199491
-11.199488
-11.199483
-11.199475
-11.199462
-11.199439
-11.199401
-11.19935
-11.199295
-11.199464
-11.199461
-11.199457
-11.199451
-11.199441
-11.199423
-11.199392
-11.199349
-11.199303
-11.199428
-11.199425
-11.199422
-11.199419
-11.199412
-11.199399
-11.199375
-11.199341
-11.199304
-11.199378
-11.199375
-11.199373
-11.199372
-11.199369
-11.199361
-11.199344
-11.199319
-11.199292
-11.199307
-11.199305
-11.199303
-11.199303
-11.199304
-11.199302
-11.199293
-11.199277
-11.199259
-11.199216
-11.199213
-11.199211
-11.199212
-11.199216
-11.19922
-11.199218
-11.199211
-11.199203
-11.199101
-11.199099
-11.199098
-11.199099
-11.199104
-11.199112
-11.19912
-11.199123
-11.199123
-11.198965
-11.198964
-11.198964
-11.198967
-11.198976
-11.198992
-11.199013
-11.19903
-11.199035
-11.198831
-11.198833
-11.198837
-11.198846
-11.198863
-11.198892
-11.198932
-11.198977
-11.199003
-10.476641
-10.476643
-10.476645
-10.476649
-10.476654
-10.476661
-10.476671
-10.476685
-10.476692
-10.476687
-10.476688
-10.476689
-10.47669
-10.476689
-10.476689
-10.47669
-10.476693
-10.476695
-10.476742
-10.476743
-10.476743
-10.476741
-10.476737
-10.476733
-10.476729
-10.47673
-10.476734
-10.476798
-10.476798
-10.476797
-10.476794
-10.476788
-10.476782
-10.476776
-10.476774
-10.476777
-10.476855
-10.476854
-10.476852
-10.476848
-10.476841
-10.476833
-10.476824
-10.476819
-10.476818
-10.476911
-10.476909
-10.476907
-10.476903
-10.476895
-10.476885
-10.476873
-10.476864
-10.476859
-10.476963
-10.476961
-10.476958
-10.476954
-10.476946
-10.476935
-10.476921
-10.476908
-10.4769
-10.477009
-10.477007
-10.477004
-10.477
-10.476992
-10.47698
-10.476965
-10.47695
-10.476938
-10.477048
-10.477046
-10.477043
-10.477038
-10.477031
-10.477019
-10.477003
-10.476985
-10.476971
-10.477078
-10.477076
-10.477073
-10.477069
-10.477061
-10.47705
-10.477033
-10.477014
-10.476996
-10.477099
-10.477097
-10.477094
-10.47709
-10.477082
-10.477071
-10.477053
-10.477033
-10.477014
-10.477109
-10.477107
-10.477104
-10.4771
-10.477093
-10.477081
-10.477064
-10.477043
-10.477022
-10.477109
-10.477107
-10.477104
-10.4771
-10.477093
-10.477081
-10.477063
-10.477042
-10.477022
-10.477098
-10.477096
-10.477093
-10.477089
-10.477082
-10.47707
-10.477053
-10.477032
-10.477012
-10.477077
-10.477075
-10.477072
-10.477068
-10.477061
-10.477049
-10.477032
-10.477012
-10.476993
-10.477046
-10.477044
-10.477042
-10.477037
-10.47703
-10.477019
-10.477002
-10.476983
-10.476967
-10.477007
-10.477006
-10.477003
-10.476999
-10.476992
-10.47698
-10.476964
-10.476947
-10.476934
-10.476962
-10.47696
-10.476958
-10.476954
-10.476947
-10.476935
-10.476921
-10.476906
-10.476895
-10.476911
-10.47691
-10.476908
-10.476904
-10.476897
-10.476886
-10.476874
-10.476862
-10.476855
-10.476856
-10.476856
-10.476854
-10.476851
-10.476844
-10.476836
-10.476826
-10.476818
-10.476814
-10.476801
-10.476801
-10.476801
-10.476798
-10.476793
-10.476786
-10.47678
-10.476775
-10.476774
-10.476748
-10.476749
-10.476749
-10.476748
-10.476744
-10.476739
-10.476734
-10.476732
-10.476733
-10.476694
-10.476696
-10.476697
-10.476698
-10.476697
-10.476696
-10.476696
-10.476698
-10.476696
-10.476649
-10.476651
-10.476654
-10.476658
-10.476663
-10.47667
-10.47668
-10.476693
-10.476697
-9.7538514
-9.7538518
-9.7538529
-9.753855
-9.7538592
-9.7538658
-9.7538748
-9.7538849
-9.7538906
-9.7538837
-9.7538835
-9.7538835
-9.7538842
-9.753886
-9.7538891
-9.7538929
-9.7538964
-9.7538973
-9.7539181
-9.7539176
-9.7539171
-9.753917
-9.7539175
-9.7539181
-9.7539184
-9.7539185
-9.753919
-9.7539482
-9.7539475
-9.7539468
-9.7539463
-9.7539461
-9.7539452
-9.7539435
-9.7539416
-9.7539407
-9.7539739
-9.753973
-9.753972
-9.7539711
-9.75397
-9.7539681
-9.753965
-9.7539614
-9.7539588
-9.7539959
-9.7539948
-9.7539935
-9.753992
-9.7539903
-9.7539876
-9.7539836
-9.7539783
-9.7539737
-9.7540144
-9.7540131
-9.7540115
-9.7540097
-9.7540074
-9.7540042
-9.7539992
-9.7539924
-9.7539855
-9.75403
-9.7540286
-9.7540268
-9.7540246
-9.7540219
-9.7540182
-9.7540124
-9.7540039
-9.7539949
-9.7540426
-9.7540411
-9.7540391
-9.7540367
-9.7540338
-9.7540297
-9.754023
-9.7540132
-9.754002
-9.7540522
-9.7540505
-9.7540484
-9.7540459
-9.7540428
-9.7540385
-9.7540312
-9.7540201
-9.7540073
-9.7540586
-9.7540568
-9.7540546
-9.754052
-9.7540489
-9.7540445
-9.7540368
-9.7540247
-9.7540106
-9.7540616
-9.7540598
-9.7540576
-9.754055
-9.7540519
-9.7540474
-9.7540395
-9.7540269
-9.754012
-9.7540612
-9.7540595
-9.7540573
-9.7540548
-9.7540517
-9.7540473
-9.7540393
-9.7540266
-9.7540114
-9.7540576
-9.754056
-9.7540539
-9.7540515
-9.7540485
-9.7540441
-9.7540362
-9.7540238
-9.7540089
-9.7540508
-9.7540493
-9.7540473
-9.7540451
-9.7540422
-9.754038
-9.7540305
-9.7540186
-9.7540046
-9.754041
-9.7540396
-9.7540379
-9.7540359
-9.7540333
-9.7540293
-9.7540222
-9.7540113
-9.7539986
-9.7540285
-9.7540273
-9.7540259
-9.7540241
-9.7540218
-9.7540181
-9.7540117
-9.7540019
-9.7539909
-9.7540133
-9.7540124
-9.7540112
-9.7540099
-9.754008
-9.7540047
-9.753999
-9.7539905
-9.7539813
-9.7539958
-9.7539951
-9.7539942
-9.7539933
-9.7539919
-9.7539891
-9.7539841
-9.753977
-9.7539696
-9.7539753
-9.7539747
-9.7539742
-9.7539738
-9.753973
-9.7539708
-9.7539667
-9.7539609
-9.7539553
-9.7539514
-9.753951
-9.7539507
-9.7539508
-9.7539507
-9.7539496
-9.7539466
-9.7539423
-9.7539382
-9.7539234
-9.7539232
-9.753923
-9.7539233
-9.7539239
-9.7539241
-9.7539231
-9.7539209
-9.7539182
-9.7538909
-9.7538909
-9.7538911
-9.753892
-9.7538938
-9.7538966
-9.7538995
-9.7539011
-9.7538988
-9.7538595
-9.75386
-9.7538611
-9.7538634
-9.7538676
-9.7538742
-9.7538829
-9.7538923
-9.7538953
-9.031366
-9.0313662
-9.0313667
-9.0313675
-9.031369
-9.0313716
-9.0313755
-9.0313806
-9.0313836
-9.0313804
-9.0313803
-9.0313803
-9.0313802
-9.0313803
-9.0313811
-9.0313829
-9.0313854
-9.0313871
-9.0313962
-9.031396
-9.0313957
-9.0313952
-9.0313946
-9.0313944
-9.0313948
-9.031396
-9.0313981
-9.031411
-9.0314108
-9.0314103
-9.0314096
-9.0314087
-9.0314078
-9.0314073
-9.0314076
-9.031409
-9.0314248
-9.0314245
-9.0314239
-9.031423
-9.0314217
-9.0314201
-9.0314186
-9.0314177
-9.0314179
-9.0314374
-9.031437
-9.0314364
-9.0314354
-9.0314338
-9.0314314
-9.0314286
-9.0314263
-9.0314252
-9.0314485
-9.0314481
-9.0314474
-9.0314463
-9.0314444
-9.0314413
-9.0314374
-9.0314336
-9.0314311
-9.031458
-9.0314575
-9.0314569
-9.0314557
-9.0314535
-9.0314498
-9.0314448
-9.0314396
-9.0314358
-9.0314656
-9.0314652
-9.0314645
-9.0314632
-9.0314609
-9.0314567
-9.0314507
-9.0314444
-9.0314394
-9.0314714
-9.031471
-9.0314703
-9.031469
-9.0314665
-9.0314619
-9.0314552
-9.031448
-9.031442
-9.0314752
-9.0314748
-9.0314741
-9.0314728
-9.0314702
-9.0314653
-9.0314582
-9.0314503
-9.0314436
-9.031477
-9.0314766
-9.0314759
-9.0314746
-9.031472
-9.031467
-9.0314596
-9.0314513
-9.0314441
-9.0314767
-9.0314764
-9.0314757
-9.0314745
-9.0314719
-9.0314669
-9.0314595
-9.0314511
-9.0314437
-9.0314745
-9.0314742
-9.0314736
-9.0314724
-9.0314699
-9.0314651
-9.0314578
-9.0314496
-9.0314423
-9.0314704
-9.0314701
-9.0314696
-9.0314685
-9.0314661
-9.0314616
-9.0314547
-9.0314469
-9.0314399
-9.0314644
-9.0314642
-9.0314637
-9.0314628
-9.0314606
-9.0314565
-9.0314502
-9.0314431
-9.0314368
-9.0314569
-9.0314567
-9.0314563
-9.0314555
-9.0314536
-9.0314499
-9.0314444
-9.0314382
-9.0314327
-9.0314479
-9.0314478
-9.0314474
-9.0314467
-9.0314451
-9.031442
-9.0314374
-9.0314323
-9.0314279
-9.0314377
-9.0314376
-9.0314373
-9.0314367
-9.0314354
-9.0314329
-9.0314294
-9.0314254
-9.0314222
-9.0314262
-9.0314262
-9.031426
-9.0314256
-9.0314245
-9.0314227
-9.0314203
-9.0314175
-9.0314154
-9.0314141
-9.0314141
-9.031414
-9.0314136
-9.0314129
-9.0314117
-9.0314102
-9.0314086
-9.0314074
-9.0314011
-9.0314011
-9.0314011
-9.0314008
-9.0314004
-9.0313998
-9.0313991
-9.0313986
-9.031398
-9.0313868
-9.0313869
-9.031387
-9.0313871
-9.0313873
-9.0313879
-9.0313889
-9.0313899
-9.0313891
-9.0313733
-9.0313735
-9.0313741
-9.031375
-9.0313766
-9.0313792
-9.031383
-9.0313875
-9.0313882
-8.3088723
-8.3088724
-8.3088726
-8.308873
-8.3088739
-8.3088753
-8.3088773
-8.3088798
-8.3088814
-8.30888
-8.30888
-8.30888
-8.30888
-8.3088801
-8.3088805
-8.3088812
-8.3088824
-8.3088831
-8.3088886
-8.3088885
-8.3088884
-8.3088881
-8.3088878
-8.3088875
-8.3088875
-8.3088879
-8.3088888
-8.3088971
-8.3088968
-8.3088965
-8.3088961
-8.3088956
-8.308895
-8.3088945
-8.3088945
-8.3088951
-8.3089054
-8.308905
-8.3089046
-8.308904
-8.3089033
-8.3089026
-8.3089019
-8.3089014
-8.3089016
-8.3089134
-8.308913
-8.3089125
-8.3089118
-8.3089111
-8.3089104
-8.3089095
-8.3089087
-8.3089083
-8.3089208
-8.3089204
-8.3089198
-8.3089191
-8.3089185
-8.3089178
-8.3089169
-8.3089158
-8.308915
-8.3089274
-8.3089269
-8.3089263
-8.3089256
-8.3089251
-8.3089245
-8.3089237
-8.3089224
-8.3089211
-8.308933
-8.3089324
-8.3089317
-8.3089311
-8.3089307
-8.3089302
-8.3089294
-8.308928