/*--------------------------------*- C++ -*----------------------------------*\
| =========                 |                                                 |
| \\      /  F ield         | OpenFOAM: The Open Source CFD Toolbox           |
|  \\    /   O peration     | Version:  2406                                  |
|   \\  /    A nd           | Website:  www.openfoam.com                      |
|    \\/     M anipulation  |                                                 |
\*---------------------------------------------------------------------------*/
FoamFile
{
    version     2.0;
    format      ascii;
    arch        "LSB;label=32;scalar=64";
    class       surfaceScalarField;
    location    "10.5";
    object      phi;
}
// * * * * * * * * * * * * * * * * * * * * * * * * * * * * * * * * * * * * * //

dimensions      [0 3 -1 0 0 0 0];

oriented        oriented;

internalField   nonuniform List<scalar> 
101088
(
0.00013807291
-1.1438326e-05
8.1158814e-06
9.9056632e-06
0.00030884536
-5.0181432e-05
3.7580809e-05
4.425895e-05
0.00050064694
-0.00012291084
9.647964e-05
0.00010995725
0.00068681572
-0.00023626889
0.00019523318
0.00021459118
0.00083028598
-0.00037962963
0.00033042264
0.00035066491
0.00090140126
-0.00051745834
0.000472176
0.00048671758
0.00089788977
-0.00059819778
0.00057023727
0.00057313467
0.00084309925
-0.00059637812
0.00058725746
0.00058380198
-0.00052141996
0.0005249788
0.00052914699
0.00076301354
0.00016798574
-1.2623843e-05
1.0650174e-05
0.0003714447
-5.455115e-05
4.8905961e-05
0.0005924581
-0.00013170631
0.00012464323
0.00079474273
-0.00024889547
0.00025010319
0.00093327993
-0.00039305656
0.00041908881
0.00097814905
-0.00052643061
0.00059293044
0.00093619888
-0.00059849201
0.00071149694
0.00084093783
-0.00058437431
0.00073363603
-0.00050123349
0.00066408354
0.0007334997
0.00019784696
-1.3277793e-05
1.3355384e-05
0.00043281592
-5.6553246e-05
6.0793726e-05
0.00068046983
-0.00013483637
0.00015372378
0.00089596749
-0.00025114898
0.00030562277
0.0010283673
-0.00039084426
0.0005065061
0.0010496088
-0.00051537071
0.00070831806
0.00097621484
-0.00057755602
0.00084220043
0.00085204571
-0.00055435233
0.00086541301
-0.00046932998
0.00078709524
0.00072280638
0.00022677643
-1.3433525e-05
1.6232567e-05
0.00049165402
-5.6367224e-05
7.318294e-05
0.00076364182
-0.00013269615
0.0001834445
0.00098984733
-0.00024378546
0.00036113579
0.0011149098
-0.00037459559
0.00059173549
0.0011145236
-0.00048747615
0.00081771936
0.0010146514
-0.00053968343
0.00096270427
0.00086838625
-0.00051131215
0.00098389362
-0.00042877151
0.00089533115
0.00072270385
0.00025390908
-1.2962889e-05
1.9121559e-05
0.00054615259
-5.3770704e-05
8.546822e-05
0.00083962844
-0.00012533461
0.00021255828
0.0010744547
-0.00022775078
0.00041473144
0.0011920795
-0.00034657209
0.00067255488
0.0011724778
-0.00044628723
0.00091943212
0.0010504228
-0.00048910565
0.0010723774
0.00088649397
-0.00045893078
0.0010894768
-0.00038159205
0.00098979222
0.00072761722
0.00027902823
-1.2029724e-05
2.1951101e-05
0.00059646387
-4.937453e-05
9.735429e-05
0.00090952601
-0.00011401566
0.00024039438
0.0011520502
-0.00020510819
0.00046528435
0.0012629026
-0.00030952389
0.00074758235
0.0012263354
-0.00039499144
0.001012294
0.0010850878
-0.00042898949
0.0011708043
0.00090564187
-0.00039920234
0.0011825116
-0.0003290503
0.0010713688
0.00073528691
0.00030118856
-1.0695014e-05
2.4635199e-05
0.00064044586
-4.3458504e-05
0.00010847485
0.00096998907
-9.9492756e-05
0.0002660952
0.0012184347
-0.00017738801
0.00051129416
0.0013228545
-0.00026584852
0.00081486107
0.0012716529
-0.00033666895
0.0010943297
0.001114467
-0.0003626954
0.0012565511
0.00092234583
-0.00033496428
0.0012624085
-0.00027353949
0.0011403277
0.00074300138
0.00032011776
-9.0026296e-06
2.7030189e-05
0.00067778531
-3.6266322e-05
0.00011832611
0.0010209625
-8.2424109e-05
0.00028870629
0.0012739806
-0.00014587227
0.00055145717
0.0013725596
-0.0002174209
0.00087306962
0.0013088589
-0.00027361489
0.0011646406
0.0011384263
-0.00029270655
0.001329361
0.00093591607
-0.00026840714
0.0013295367
-0.00021703431
0.001197517
0.00074958801
0.00033556622
-7.0016571e-06
2.9042802e-05
0.0007081271
-2.8037357e-05
0.00012656762
0.0010621657
-6.3389015e-05
0.00030754957
0.0013185787
-0.00011158243
0.00058478485
0.0014120492
-0.00016566127
0.000921126
0.0013379291
-0.00020747965
0.0012223496
0.0011566768
-0.00022071078
0.0013887292
0.000945818
-0.00020108033
0.0013838787
-0.00016101347
0.0012433022
0.00075431533
0.00034736835
-4.796403e-06
3.0613846e-05
0.00073128367
-1.9133171e-05
0.00013298556
0.0010935285
-4.3069459e-05
0.00032218779
0.0013523346
-7.5480959e-05
0.00061059311
0.0014415905
-0.00011170504
0.00095818574
0.0013591747
-0.00013937892
0.0012666325
0.0011694029
-0.00014763551
0.00143402
0.00095211619
-0.00013376584
0.0014250599
-0.00010620084
0.0012776365
0.00075703821
0.00035522163
-2.4618253e-06
3.1744789e-05
0.00074648445
-9.7502498e-06
0.00013753004
0.0011137783
-2.18454e-05
0.00033239345
0.0013736779
-3.813605e-05
0.00062831803
0.0014597116
-5.6282998e-05
0.00098330462
0.0013715773
-7.0036282e-05
0.0012963227
0.0011761534
-7.3975098e-05
0.0014641176
0.00095488896
-6.6767363e-05
0.0014522006
-5.2699367e-05
0.0013000707
0.00075800112
0.00035917247
1.9424296e-12
3.227084e-05
0.00075415507
-5.1469877e-12
0.0001396896
0.001124037
-1.0211027e-10
0.00033733917
0.0013845147
-1.9196712e-10
0.00063706506
0.0014688809
-4.2322855e-10
0.00099587843
0.0013777396
-7.8917157e-10
0.0013113161
0.0011793087
-1.1403498e-09
0.0014793721
0.00095595651
-1.2106755e-09
0.0014659559
-7.4956314e-10
0.0013114213
0.00075815814
0.00035917243
2.4618391e-06
3.2270835e-05
0.00075415473
9.7502472e-06
0.00013968958
0.0011240368
2.1845257e-05
0.00033733912
0.0013845143
3.8135847e-05
0.00063706498
0.0014688805
5.6282308e-05
0.00099587832
0.0013777394
7.0034885e-05
0.001311316
0.0011793086
7.3973029e-05
0.0014793719
0.00095595677
6.6765033e-05
0.0014659558
5.2697377e-05
0.0013114212
0.00075815872
0.00035522172
4.7964382e-06
3.1744789e-05
0.00074648408
1.9133125e-05
0.00013753004
0.0011137783
4.30693e-05
0.00033239344
0.0013736775
7.548095e-05
0.00062831802
0.0014597111
0.00011170459
0.0009833046
0.0013715771
0.00013937788
0.0012963226
0.0011761535
0.00014763382
0.0014641174
0.00095488946
0.00013376368
0.0014522005
0.00010619801
0.0013000706
0.00075800225
0.00034736821
7.0016359e-06
3.0613838e-05
0.00073128334
2.8037058e-05
0.00013298552
0.0010935287
6.3388681e-05
0.00032218771
0.001352334
0.00011158247
0.00061059298
0.00144159
0.00016566096
0.00095818552
0.0013591743
0.00020747863
0.0012666322
0.0011694027
0.00022070895
0.0014340197
0.00095211618
0.00020107806
0.0014250597
0.0001610103
0.0012776363
0.0007570388
0.00033556576
9.0025694e-06
2.9042797e-05
0.00070812706
3.6266001e-05
0.0001265676
0.0010621666
8.2424083e-05
0.00030754952
0.0013185785
0.00014587266
0.00058478475
0.0014120491
0.00021742073
0.00092112583
0.0013379287
0.00027361355
0.0012223494
0.0011566764
0.00029270431
0.001388729
0.00094581737
0.00026840474
0.0013838784
0.00021703156
0.0012433019
0.00075431493
0.00032011733
1.0694982e-05
2.7030189e-05
0.00067778527
4.3458363e-05
0.00011832611
0.001020963
9.9492706e-05
0.00028870627
0.0012739803
0.00017738803
0.00055145715
0.0013725594
0.0002658479
0.00087306957
0.0013088583
0.00033666742
0.0011646405
0.001138426
0.00036269337
0.0013293608
0.00093591535
0.00033496222
0.0013295365
0.00027353728
0.0011975168
0.00074958697
0.00030118828
1.2029789e-05
2.4635202e-05
0.000640445
4.9374609e-05
0.00010847486
0.00096998852
0.00011401541
0.00026609522
0.0012184341
0.00020510778
0.00051129419
0.0013228545
0.00030952288
0.00081486111
0.0012716526
0.00039499039
0.0010943297
0.0011144668
0.00042898814
0.001256551
0.00092234521
0.00039920086
0.0012624084
0.00032904842
0.0011403275
0.00074299976
0.00027902808
1.2962909e-05
2.1951107e-05
0.0005964634
5.3770803e-05
9.7354314e-05
0.00090952628
0.00012533452
0.00024039444
0.0011520503
0.00022775061
0.00046528446
0.0012629032
0.00034657216
0.00074758251
0.0012263354
0.00044628739
0.0010122941
0.0010850873
0.00048910488
0.0011708043
0.00090564095
0.00045892988
0.0011825116
0.00038159116
0.0010713686
0.00073528459
0.00025390902
1.3433589e-05
1.912156e-05
0.00054615236
5.6367386e-05
8.5468223e-05
0.00083962819
0.00013269633
0.00021255829
0.0010744547
0.00024378552
0.00041473145
0.0011920794
0.00037459569
0.00067255489
0.0011724772
0.00048747603
0.00091943208
0.0010504217
0.00053968304
0.0010723773
0.00088649337
0.00051131125
0.0010894767
0.00042877185
0.0009897921
0.00072761563
0.00022677644
1.3277801e-05
1.6232565e-05
0.00049165379
5.6553191e-05
7.3182932e-05
0.00076364128
0.00013483633
0.00018344448
0.00098984726
0.00025114875
0.00036113575
0.0011149096
0.00039084377
0.0005917354
0.0011145237
0.0005153709
0.00081771924
0.0010146505
0.00057755608
0.00096270417
0.00086838661
0.0005543516
0.00098389354
0.00046933083
0.00089533109
0.00072270341
0.00019784687
1.2623836e-05
1.3355382e-05
0.00043281554
5.4551118e-05
6.0793715e-05
0.00068046926
0.00013170637
0.00015372376
0.00089596734
0.00024889549
0.00030562271
0.0010283679
0.00039305643
0.00050650602
0.0010496086
0.0005264312
0.00070831795
0.0009762133
0.00059849321
0.00084220033
0.00085204496
0.00058437325
0.00086541301
0.00050123289
0.00078709526
0.00072280605
0.00016798571
1.143833e-05
1.0650177e-05
0.00037144448
5.0181432e-05
4.890597e-05
0.00059245779
0.00012291081
0.00012464325
0.00079474265
0.0002362687
0.00025010322
0.00093328029
0.00037962942
0.00041908886
0.00097814899
0.0005174584
0.0005929305
0.00093619805
0.00059819853
0.00071149701
0.00084093758
0.00059637682
0.00073363611
0.00052141853
0.00066408358
0.00073349948
0.0001380729
8.1158863e-06
9.9056526e-06
0.00030884536
3.7580829e-05
4.4258883e-05
0.00050064722
9.6479687e-05
0.00010995707
0.00068681618
0.00019523327
0.00021459077
0.00083028619
0.00033042277
0.00035066418
0.00090140189
0.00047217616
0.00048671753
0.00089789104
0.00057023744
0.00057313633
0.00084309992
0.00058725755
0.00058379983
0.00052497883
0.00052914608
0.0007630139
3.0676048e-06
2.0421635e-06
5.1590989e-06
-2.1529858e-06
1.5516381e-05
5.247935e-06
2.6245859e-05
-6.3617301e-06
4.3606089e-05
6.3246859e-07
7.3263762e-05
-5.5062304e-06
9.3009305e-05
-3.0741725e-05
0.00016067615
1.5895627e-05
0.00016378968
-0.00011265478
0.00029277646
7.9520638e-05
0.00024471149
-0.0002470108
0.00044548039
0.0001927845
0.00031653268
-0.00039352153
0.00056435994
0.00032757766
0.00036883797
-0.00048910709
0.00059950441
0.00042455492
-0.0004984957
0.0005434418
0.00044762858
0.00040124195
4.1885826e-06
2.2288851e-06
6.274871e-06
2.1177672e-05
4.8676039e-06
3.2297236e-05
5.8876318e-05
-3.3416572e-06
9.0918767e-05
0.00012230499
-4.4384486e-05
0.00020031724
0.00020575459
-0.00014195556
0.00036493971
0.00028911283
-0.00029058131
0.00055314263
0.00034877129
-0.00043985812
0.00069817536
0.00037846823
-0.00052837542
0.00074320715
-0.00052519142
0.0006827226
0.0003865251
5.8077067e-06
2.4565168e-06
7.3200767e-06
2.855262e-05
4.8332023e-06
3.8083353e-05
7.7052516e-05
-6.0951936e-06
0.00010797758
0.00015428775
-5.4632667e-05
0.00023863563
0.00024779448
-0.00016288366
0.00043392732
0.00033008875
-0.00031810978
0.00065355247
0.00037622846
-0.00046274929
0.00081895189
0.00038544789
-0.0005415013
0.00086931959
-0.00052916426
0.00080312194
0.00037339409
7.7350886e-06
2.5730196e-06
8.3809989e-06
3.7202488e-05
4.6529269e-06
4.3895994e-05
9.7787822e-05
-8.1751881e-06
0.00012493935
0.00018922133
-6.1169973e-05
0.00027623948
0.00029137994
-0.00017367586
0.00050036947
0.00037081697
-0.00032765672
0.00074782909
0.00040432785
-0.00046251782
0.00092896209
0.00039611538
-0.00053030485
0.00098090918
-0.00051231455
0.00090730299
0.00036729395
9.7084741e-06
2.5938752e-06
9.3922871e-06
4.5937338e-05
4.4282366e-06
4.9464235e-05
0.00011843969
-9.3143092e-06
0.00014119506
0.00022342666
-6.3554748e-05
0.00031212913
0.00033348228
-0.00017427613
0.0005630994
0.00041031731
-0.00032038704
0.0008353276
0.00043335479
-0.0004420397
0.0010288617
0.00041158464
-0.00049870122
0.0010796431
-0.00047845723
0.000997307
0.00037021253
1.1680568e-05
2.5004333e-06
1.0364055e-05
5.4595389e-05
4.0818464e-06
5.4785994e-05
0.00013873382
-9.698968e-06
0.00015664027
0.00025670089
-6.2212489e-05
0.0003459752
0.00037430581
-0.00016591958
0.00062162026
0.00044930001
-0.00029869181
0.00091560451
0.00046414553
-0.00040488
0.001118799
0.00043245761
-0.00045111891
0.0011666172
-0.00043133903
0.0010747162
0.000381992
1.3542109e-05
2.2861439e-06
1.1307502e-05
6.2665808e-05
3.5968373e-06
5.9836183e-05
0.00015738029
-9.3689704e-06
0.00017105045
0.00028680686
-5.7437987e-05
0.00037709328
0.00041090215
-0.00014984122
0.00067468729
0.00048460643
-0.00026526967
0.00098720336
0.00049337397
-0.00035480616
0.0011977097
0.00045500669
-0.0003919716
0.0012416287
-0.00037467826
0.0011401717
0.0003985021
1.5199785e-05
1.9633132e-06
1.2153482e-05
6.9786912e-05
2.9950526e-06
6.4340482e-05
0.0001736786
-8.3940935e-06
0.00018383923
0.00031284777
-4.9712506e-05
0.0004045628
0.0004423652
-0.00012746463
0.0007211756
0.000515298
-0.00022282814
0.0010492667
0.00051962031
-0.00029508507
0.0012653178
0.00047647145
-0.00032439312
0.0013051074
-0.00031032125
0.001194682
0.00041494953
1.6588457e-05
1.5510262e-06
1.2866824e-05
7.5705304e-05
2.3097611e-06
6.813598e-05
0.00018710029
-6.8483119e-06
0.00019460835
0.00033403188
-3.9536215e-05
0.00042767734
0.00046768092
-0.00010006973
0.00076008206
0.0005397163
-0.0001733506
0.0011008371
0.00054048361
-0.00022813337
0.0013210106
0.00049332222
-0.00025030175
0.0013569489
-0.0002388512
0.0012386388
0.00042651543
1.7657784e-05
1.0771019e-06
1.3429973e-05
8.0239714e-05
1.5811495e-06
7.1132401e-05
0.00019731599
-4.8366472e-06
0.00020309975
0.00034998551
-2.7473178e-05
0.00044586105
0.0004864986
-6.8907195e-05
0.00079051027
0.00055751763
-0.00011861139
0.0011408745
0.00055506269
-0.00015556689
0.0013639085
0.00050348902
-0.00017028148
0.0013966132
-0.00016178818
0.0012719208
0.00043214149
1.8402759e-05
5.3681265e-07
1.3882264e-05
8.335732e-05
7.4811522e-07
7.3408662e-05
0.0002042157
-2.5983447e-06
0.00020929662
0.00036053302
-1.4196461e-05
0.00045872413
0.00049865666
-3.5232706e-05
0.00081150655
0.00056867116
-6.0311091e-05
0.0011680078
0.00056349125
-7.8882878e-05
0.0013926133
0.00050857574
-8.6124438e-05
0.0014229589
-8.152206e-05
0.0012938317
0.00043454861
1.8741623e-05
2.2805221e-11
1.4066003e-05
8.4767175e-05
5.0918699e-11
7.4412169e-05
0.00020732817
1.4269401e-11
0.00021217965
0.00036525776
-1.2718571e-10
0.00046493897
0.00050401683
-4.6726564e-10
0.00082188697
0.0005734312
-9.6492856e-10
0.0011815914
0.00056683877
-1.3417006e-09
0.0014070829
0.00051036478
-1.4246561e-09
0.0014363069
-1.01927e-09
0.001304947
0.00043531824
1.8741599e-05
-5.367712e-07
1.4066001e-05
8.4767039e-05
-7.4802851e-07
7.4412157e-05
0.00020732811
2.598382e-06
0.00021217961
0.00036525764
1.4196289e-05
0.00046493891
0.00050401665
3.5231882e-05
0.00082188687
0.00057343105
6.0309318e-05
0.0011815913
0.0005668387
7.8880369e-05
0.0014070827
0.00051036482
8.6121654e-05
0.0014363068
8.1519794e-05
0.0013049469
0.00043531841
1.8402779e-05
-1.0770652e-06
1.3882262e-05
8.335717e-05
-1.5811084e-06
7.3408654e-05
0.00020421577
4.8366602e-06
0.0002092966
0.00036053287
2.7473117e-05
0.0004587241
0.00049865642
6.8906563e-05
0.0008115065
0.00056867095
0.00011860993
0.0011680077
0.0005634911
0.00015556475
0.0013926131
0.00050857573
0.00017027887
0.0014229587
0.00016178554
0.0012938315
0.00043454885
1.76578e-05
-1.5509957e-06
1.3429968e-05
8.0239659e-05
-2.3097994e-06
7.1132376e-05
0.00019731619
6.8482523e-06
0.00020309968
0.00034998525
3.9536196e-05
0.00044586092
0.0004864983
0.0001000692
0.00079051004
0.00055751724
0.00017334928
0.0011408742
0.00055506224
0.00022813133
0.0013639081
0.00050348859
0.00025029924
0.0013966129
0.00023884843
0.0012719205
0.00043214139
1.658831e-05
-1.9633014e-06
1.286682e-05
7.5705319e-05
-2.9951216e-06
6.8135961e-05
0.00018710072
8.3941157e-06
0.0001946083
0.00033403179
4.9712644e-05
0.00042767723
0.00046768078
0.00012746421
0.00076008186
0.00053971582
0.00022282679
0.0011008369
0.00054048295
0.00029508294
0.0013210103
0.00049332139
0.00032439072
0.0013569486
0.00031031872
0.0012386384
0.00042651483
1.5199538e-05
-2.2861187e-06
1.2153478e-05
6.9786846e-05
-3.5968007e-06
6.434047e-05
0.00017367884
9.3691464e-06
0.0001838392
0.0003128476
5.7438213e-05
0.00040456274
0.00044236502
0.00014984083
0.0007211755
0.00051529742
0.00026526839
0.0010492665
0.00051961961
0.00035480417
0.0012653176
0.00047647053
0.00039196944
0.0013051071
0.00037467602
0.0011946817
0.00041494852
1.3541935e-05
-2.5003777e-06
1.1307501e-05
6.2665438e-05
-4.0817113e-06
5.9836178e-05
0.00015738008
9.6991324e-06
0.00017105044
0.00028680648
6.2212611e-05
0.00037709327
0.00041090191
0.00016591922
0.00067468727
0.00048460587
0.00029869096
0.0009872033
0.00049337327
0.00040487848
0.0011977095
0.00045500572
0.00045111713
0.0012416284
0.00043133692
0.0011401714
0.00039850072
1.1680439e-05
-2.5937955e-06
1.0364057e-05
5.4594979e-05
-4.4279992e-06
5.4786e-05
0.00013873362
9.3145856e-06
0.0001566403
0.00025670046
6.3554983e-05
0.00034597525
0.00037430563
0.00017427628
0.00062162034
0.00044929943
0.00032038685
0.00091560457
0.00046414463
0.00044203867
0.001118799
0.0004324564
0.00049869984
0.001166617
0.00047845548
0.0010747159
0.00038199031
9.7084069e-06
-2.5729443e-06
9.3922868e-06
4.5937086e-05
-4.652716e-06
4.9464233e-05
0.00011843937
8.1755239e-06
0.00014119506
0.00022342629
6.1170381e-05
0.00031212913
0.00033348182
0.00017367625
0.00056309938
0.00041031651
0.00032765677
0.00083532752
0.00043335366
0.00046251727
0.0010288616
0.00041158349
0.0005303037
0.001079643
0.00051231349
0.00099730682
0.00037021103
7.7350978e-06
-2.456469e-06
8.3809983e-06
3.7202406e-05
-4.8330908e-06
4.3895989e-05
9.7787571e-05
6.0954639e-06
0.00012493934
0.00018922115
5.4633004e-05
0.00027623944
0.00029137958
0.00016288384
0.00050036938
0.00037081666
0.00031811008
0.00074782896
0.00040432694
0.00046274924
0.00092896197
0.00039611459
0.00054150054
0.00098090909
0.00052916365
0.00090730288
0.00036729279
5.807693e-06
-2.2288539e-06
7.3200765e-06
2.8552463e-05
-4.8675202e-06
3.8083349e-05
7.7052225e-05
3.3418777e-06
0.00010797757
0.00015428765
4.4384772e-05
0.00023863559
0.00024779481
0.00014195583
0.00043392725
0.00033008883
0.00029058187
0.00065355236
0.00037622757
0.00043985908
0.00081895179
0.00038544658
0.00052837534
0.00086931955
0.00052519044
0.00080312192
0.00037339304
4.1885807e-06
-2.0421472e-06
6.2748736e-06
2.1177609e-05
-5.2478916e-06
3.2297245e-05
5.8876328e-05
-6.3239671e-07
9.0918787e-05
0.0001223054
3.0741747e-05
0.00020031727
0.00020575559
0.00011265477
0.00036493974
0.00028911399
0.00024701084
0.00055314266
0.00034877254
0.00039352216
0.00069817538
0.00037846977
0.00048910692
0.00074320717
0.00049849461
0.00068272267
0.00038652621
3.067634e-06
5.1591038e-06
-2.1530034e-06
1.5516537e-05
2.6245879e-05
-6.3617982e-06
4.3606649e-05
7.3263807e-05
-5.5063845e-06
9.3010398e-05
0.00016067623
1.5895266e-05
0.00016379124
0.00029277656
7.9519946e-05
0.00024471391
0.0004454805
0.00019278394
0.00031653612
0.00056436004
0.00032757812
0.00036884092
0.0005995045
0.00042455462
0.00054344188
0.00044762905
0.00040124337
7.0088643e-07
2.216716e-07
4.9377316e-06
-7.0119073e-07
3.8907793e-06
9.6480205e-08
2.5112294e-05
-2.1528065e-06
1.1770379e-05
-3.1205287e-06
7.0518964e-05
-2.014281e-06
2.7338289e-05
-1.7058278e-05
0.00015614917
6.0173234e-06
5.3854805e-05
-5.6988921e-05
0.00028782336
3.5425476e-05
9.3232508e-05
-0.00013840415
0.00044321845
0.00010128835
0.00014326902
-0.00025151945
0.0005670137
0.00019882913
0.00019517883
-0.00034324656
0.00060603299
0.00028480811
-0.00037059634
0.0005505755
0.00032065279
0.00023798863
9.0711325e-07
-2.0516264e-07
5.7945934e-06
5.2575088e-06
-1.8995976e-06
2.9942935e-05
1.61936e-05
-8.3226475e-06
8.5184811e-05
3.7202106e-05
-2.8146208e-05
0.00019039665
7.038197e-05
-7.7912212e-05
0.00035268307
0.00011368878
-0.00017230558
0.00054373717
0.00015956072
-0.00029495022
0.0006957341
0.00019948379
-0.00038654572
0.00074658312
-0.00040545973
0.00068799461
0.00022907525
1.1744365e-06
-5.8008915e-07
6.5205721e-06
6.7821859e-06
-3.6328472e-06
3.4208894e-05
2.0788246e-05
-1.2824552e-05
9.8473496e-05
4.7132042e-05
-3.7664123e-05
0.00022180981
8.639307e-05
-9.5369025e-05
0.00041212315
0.00013202086
-0.00019888908
0.00063450814
0.00017198544
-0.00032503759
0.0008090746
0.00019899637
-0.00041159315
0.00086735604
-0.00042137898
0.00080459276
0.00021344476
1.4567915e-06
-8.7486789e-07
7.2189957e-06
8.4176562e-06
-4.9893155e-06
3.8291615e-05
2.5673288e-05
-1.6270841e-05
0.00011112999
5.7445717e-05
-4.469333e-05
0.00025149616
0.00010251089
-0.00010766436
0.00046759961
0.0001496035
-0.00021577601
0.00071762329
0.00018322423
-0.00033992855
0.00091023228
0.00019813099
-0.00041797248
0.00097238162
-0.00041911317
0.00090392297
0.00019924517
1.7067709e-06
-1.0391057e-06
7.8497854e-06
9.9288227e-06
-5.7823426e-06
4.2035296e-05
3.0322485e-05
-1.8299972e-05
0.0001228306
6.7415431e-05
-4.8668412e-05
0.00027901127
0.00011790435
-0.00011391312
0.00051885911
0.00016584248
-0.00022183177
0.00079344513
0.0001933823
-0.0003392952
0.0010006885
0.00019800483
-0.00040703194
0.0010640799
-0.00040120331
0.00098861512
0.00018878683
1.9949616e-06
-1.1116261e-06
8.4416234e-06
1.1594874e-05
-6.1275026e-06
4.5531242e-05
3.5319731e-05
-1.9100553e-05
0.00013371593
7.7946396e-05
-4.9831992e-05
0.00030451213
0.00013375445
-0.00011419462
0.00056609357
0.00018210624
-0.00021695959
0.00086238048
0.00020367441
-0.00032344073
0.0010813764
0.00019917289
-0.00037991082
0.0011439975
-0.00036895828
0.001060516
0.00018112808
2.277995e-06
-1.100722e-06
9.0186351e-06
1.32023e-05
-6.0449174e-06
4.8829285e-05
4.0048238e-05
-1.8671264e-05
0.00014377509
8.7598307e-05
-4.8048656e-05
0.00032775982
0.0001476837
-0.00010816485
0.00060857209
0.00019559871
-0.00020117415
0.00092350292
0.00021154234
-0.00029335047
0.0011516759
0.00019932505
-0.00033830255
0.0012122377
-0.00032414604
0.0011204451
0.00017423945
2.5285431e-06
-1.0056193e-06
9.5298709e-06
1.4611968e-05
-5.5216577e-06
5.1733779e-05
4.4147792e-05
-1.6965911e-05
0.00015259798
9.5807646e-05
-4.3238191e-05
0.00034809248
0.00015912098
-9.5869228e-05
0.00064556666
0.00020589377
-0.00017498597
0.00097630586
0.0002166807
-0.00025045092
0.0012116315
0.00019828457
-0.00028428006
0.0012694812
-0.0002693105
0.0011696099
0.00016852124
2.7378794e-06
-8.309881e-07
9.9543413e-06
1.5777931e-05
-4.5730375e-06
5.4147279e-05
4.7499411e-05
-1.4020283e-05
0.00015994119
0.00010239215
-3.5495797e-05
0.0003650423
0.0001679623
-7.7754171e-05
0.00067639691
0.00021345574
-0.00013974536
0.0010201033
0.00021996391
-0.00019684202
0.0012608937
0.00019724642
-0.00022045203
0.0013158385
-0.00020768632
0.0012086703
0.00016559078
2.9047474e-06
-5.9246822e-07
1.0286728e-05
1.6696162e-05
-3.2693003e-06
5.6037256e-05
5.0103422e-05
-1.0016325e-05
0.00016568852
0.0001074099
-2.5243521e-05
0.00037830247
0.00017450014
-5.4791003e-05
0.00070045697
0.00021885444
-9.730581e-05
0.0010540808
0.00022246664
-0.00013530612
0.0012987606
0.00019786992
-0.00015027473
0.0013510328
-0.00014133534
0.0012378936
0.00016554613
3.0336704e-06
-3.1216369e-07
1.0568315e-05
1.7376197e-05
-1.7165249e-06
5.7513384e-05
5.1962091e-05
-5.2394656e-06
0.00016993385
0.00011085901
-1.314069e-05
0.00038772453
0.00017879439
-2.8322207e-05
0.00071710249
0.00022224449
-4.9884191e-05
0.0010771362
0.00022429771
-6.8801896e-05
0.0013240559
0.00019881142
-7.6086793e-05
0.0013742573
-7.1523173e-05
0.0012569369
0.00016589416
3.0832798e-06
1.7566805e-11
1.0670564e-05
1.7656405e-05
3.6646531e-11
5.8122511e-05
5.275994e-05
2.3115312e-11
0.00017183662
0.00011236175
-1.1014379e-10
0.00039219669
0.00018063584
-4.6605135e-10
0.00072529125
0.00022364673
-9.5096997e-10
0.0010886974
0.00022508051
-1.3209662e-09
0.0013368486
0.00019925804
-1.3765035e-09
0.0013860441
-1.0480345e-09
0.0012665964
0.00016608672
3.0832597e-06
3.1220316e-07
1.0670562e-05
1.7656365e-05
1.7166087e-06
5.8122502e-05
5.2759898e-05
5.2395335e-06
0.0001718366
0.00011236165
1.3140505e-05
0.00039219663
0.0001806357
2.8321321e-05
0.00072529116
0.00022364656
4.9882346e-05
0.0010886973
0.00022508032
6.8799299e-05
0.0013368485
0.00019925787
7.6084047e-05
0.001386044
7.1521043e-05
0.0012665963
0.00016608657
3.0336493e-06
5.9250581e-07
1.0568314e-05
1.7376175e-05
3.2693831e-06
5.751338e-05
5.1962102e-05
1.0016416e-05
0.00016993384
0.0001108589
2.5243409e-05
0.00038772451
0.00017879419
5.4790247e-05
0.00071710245
0.00022224416
9.7304138e-05
0.0010771361
0.00022429726
0.00013530368
0.0013240558
0.00019881092
0.00015027205
0.0013742571
0.00014133316
0.0012569367
0.00016589369
2.9047291e-06
8.3102888e-07
1.0286725e-05
1.6696147e-05
4.5731323e-06
5.6037239e-05
5.010341e-05
1.4020413e-05
0.00016568848
0.00010740969
3.5495784e-05
0.00037830237
0.00017449976
7.7753578e-05
0.00070045679
0.00021885381
0.00013974387
0.0010540806
0.0002224658
0.00019683972
0.0012987602
0.00019786898
0.00022044942
0.0013510324
0.0002076841
0.0012378934
0.00016554524
2.7378496e-06
1.0056686e-06
9.9543392e-06
1.5777909e-05
5.5217882e-06
5.4147269e-05
4.7499366e-05
1.6966125e-05
0.00015994116
0.00010239187
4.3238328e-05
0.00036504223
0.00016796179
9.5868827e-05
0.00067639679
0.00021345485
0.00017498467
0.0010201031
0.00021996268
0.00025044879
0.0012608934
0.00019724499
0.00028427757
0.0013158382
0.00026930831
0.00120867
0.00016558935
2.5284984e-06
1.1007799e-06
9.5298701e-06
1.4611898e-05
6.0450843e-06
5.1733776e-05
4.4147664e-05
1.8671571e-05
0.00015259798
9.5807289e-05
4.804897e-05
0.00034809246
0.00015912034
0.00010816468
0.00064556662
0.00020589269
0.00020117311
0.00097630576
0.0002166792
0.00029334862
0.0012116313
0.00019828275
0.0003383003
0.0012694809
0.00032414397
0.0011696096
0.00016851927
2.2779412e-06
1.1116966e-06
9.0186355e-06
1.3202173e-05
6.1277204e-06
4.8829288e-05
4.0048056e-05
1.9100979e-05
0.0001437751
8.7597891e-05
4.9832514e-05
0.00032775985
0.00014768299
0.00011419474
0.00060857211
0.00019559757
0.00021695895
0.00092350291
0.00021154072
0.0003234393
0.0011516758
0.00019932299
0.000379909
0.0012122375
0.00036895643
0.0011204449
0.00017423707
1.9949151e-06
1.0392023e-06
8.4416261e-06
1.1594723e-05
5.782627e-06
4.5531256e-05
3.5319482e-05
1.8300489e-05
0.00013371597
7.7945894e-05
4.8669069e-05
0.00030451222
0.00013375373
0.00011391351
0.00056609369
0.00018210515
0.00022183149
0.0008623806
0.00020367288
0.00033929418
0.0010813765
0.00019917085
0.00040703068
0.0011439974
0.00040120181
0.0010605158
0.00018112563
1.7067348e-06
8.7496161e-07
7.8497862e-06
9.9286771e-06
4.9895918e-06
4.20353e-05
3.0322196e-05
1.6271368e-05
0.00012283061
6.7414965e-05
4.4694068e-05
0.00027901128
0.0001179037
0.00010766496
0.00051885912
0.00016584154
0.00021577605
0.0007934451
0.000193381
0.00033992796
0.0010006884
0.00019800308
0.00041797175
0.0010640798
0.00041911212
0.00098861495
0.00018878466
1.4567844e-06
5.8017279e-07
7.2189952e-06
8.417617e-06
3.6330943e-06
3.8291612e-05
2.5673185e-05
1.2825066e-05
0.00011112998
5.7445565e-05
3.7664873e-05
0.00025149613
0.0001025106
9.5369687e-05
0.00046759954
0.00014960305
0.00019888937
0.00071762318
0.00018322345
0.00032503736
0.00091023215
0.0001981299
0.00041159281
0.0009723815
0.00042137835
0.00090392287
0.00019924365
1.1744501e-06
2.0521971e-07
6.520571e-06
6.7822034e-06
1.8997648e-06
3.4208887e-05
2.0788308e-05
8.3229935e-06
9.8473475e-05
4.7132285e-05
2.8146693e-05
0.00022180975
8.639357e-05
7.791263e-05
0.00041212304
0.00013202145
0.00017230584
0.00063450799
0.00017198565
0.0002949504
0.00080907445
0.00019899596
0.00038654604
0.00086735596
0.00040545957
0.00080459275
0.00021344397
9.0713778e-07
-2.2164992e-07
5.7945941e-06
5.2576021e-06
-9.6427443e-08
2.9942937e-05
1.6193932e-05
3.1206059e-06
8.5184811e-05
3.7202951e-05
1.7058282e-05
0.00019039664
7.038352e-05
5.6988714e-05
0.00035268303
0.00011369088
0.00013840386
0.0005437371
0.00015956299
0.00025151959
0.00069573405
0.00019948578
0.00034324722
0.00074658314
0.00037059691
0.00068799471
0.00022907641
7.0092076e-07
4.9377345e-06
-7.0120521e-07
3.8909309e-06
2.5112305e-05
-2.1528632e-06
1.1770789e-05
7.0518987e-05
-2.0144033e-06
2.7339059e-05
0.00015614921
6.0170284e-06
5.3855975e-05
0.00028782339
3.5424856e-05
9.3234345e-05
0.00044321847
0.00010128744
0.00014327204
0.00056701373
0.00019882831
0.00019518312
0.00060603308
0.0002848074
0.00055057562
0.00032065441
0.0002379919
-2.7468859e-07
9.2927019e-08
5.2641205e-06
-1.4462728e-07
-1.3437865e-06
-3.0563311e-07
2.6543857e-05
-5.6829629e-08
-3.1714027e-06
-3.0910005e-06
7.380667e-05
1.6309135e-06
-4.058344e-06
-1.2922899e-05
0.00016171341
8.2456039e-06
5.157231e-07
-3.8441123e-05
0.00029542479
2.6265634e-05
1.6721721e-05
-8.838617e-05
0.00045235411
6.3044517e-05
4.5997211e-05
-0.00015542794
0.00057745003
0.0001157161
8.2328646e-05
-0.00021512877
0.00061721365
0.00016761661
-0.00024114823
0.00056066825
0.00019664024
0.00011674388
-3.2952908e-07
8.9588402e-08
6.1274635e-06
-1.4892781e-06
-5.7539718e-07
3.1372461e-05
-3.1923859e-06
-4.5122448e-06
8.8309182e-05
-3.2035889e-06
-1.770667e-05
0.00019519164
3.4377202e-06
-5.0711807e-05
0.00035831244
2.2066694e-05
-0.00011289915
0.00054962112
5.1955318e-05
-0.00019203121
0.00070244865
8.4949583e-05
-0.00025605617
0.00075451619
-0.00027837706
0.0006957762
0.00011439683
-2.9649729e-07
7.3027572e-08
6.8336342e-06
-1.2972309e-06
-8.7328483e-07
3.5507533e-05
-2.4482355e-06
-5.9576731e-06
0.00010106995
-9.5366075e-07
-2.2409673e-05
0.00022501826
8.504844e-06
-6.2350768e-05
0.00041430361
2.9749205e-05
-0.0001346626
0.00063502713
5.9170335e-05
-0.00022197176
0.0008095939
8.7762725e-05
-0.00028679434
0.00086950176
-0.00030350856
0.00080769835
0.00010978856
-1.9527461e-07
-2.3876439e-09
7.4896914e-06
-7.6384315e-07
-1.3623429e-06
3.9349247e-05
-8.1505087e-07
-7.6688526e-06
0.00011289235
2.9328247e-06
-2.7112383e-05
0.00025245093
1.5990386e-05
-7.2974581e-05
0.00046516576
3.9838595e-05
-0.00015197079
0.00071108317
6.8133901e-05
-0.00024269288
0.00090265796
9.162524e-05