/*--------------------------------*- C++ -*----------------------------------*\
| =========                 |                                                 |
| \\      /  F ield         | OpenFOAM: The Open Source CFD Toolbox           |
|  \\    /   O peration     | Version:  2406                                  |
|   \\  /    A nd           | Website:  www.openfoam.com                      |
|    \\/     M anipulation  |                                                 |
\*---------------------------------------------------------------------------*/
FoamFile
{
    version     2.0;
    format      ascii;
    arch        "LSB;label=32;scalar=64";
    class       volVectorField;
    location    "10.5";
    object      U;
}
// * * * * * * * * * * * * * * * * * * * * * * * * * * * * * * * * * * * * * //

dimensions      [0 1 -1 0 0 0 0];

internalField   nonuniform List<vector> 
34560
(
(0.059762193 -0.00018927424 -0.014147906)
(0.19297653 0.00047323663 -0.045998415)
(0.35820745 0.00093997535 -0.083438289)
(0.54900031 0.0017851962 -0.12363154)
(0.75150038 0.0021833829 -0.16007403)
(0.94460361 0.001598749 -0.18591456)
(1.104761 0.00031057725 -0.1961539)
(1.2212245 -0.0015864421 -0.1920449)
(1.2990906 -0.0025808296 -0.17914205)
(0.07303244 -0.00056693323 -0.016644853)
(0.23208882 -0.00022965065 -0.053735146)
(0.42379394 5.5186967e-05 -0.09613361)
(0.63723258 0.0010206731 -0.1399426)
(0.85418937 0.0017293012 -0.1771999)
(1.0506973 0.0015376094 -0.20037928)
(1.2040221 0.00077061184 -0.20529165)
(1.3073358 -0.00015894946 -0.19488787)
(1.3729599 -0.00060562659 -0.17507086)
(0.086656978 -0.00060585806 -0.018573181)
(0.27137678 -7.1541563e-05 -0.05985188)
(0.48814235 0.00042783534 -0.10610709)
(0.72137685 0.0015890218 -0.15260377)
(0.94891826 0.0023275689 -0.19042732)
(1.1456618 0.0019527667 -0.21151374)
(1.2911336 0.00087214681 -0.21272303)
(1.3822376 -1.9338073e-06 -0.19800519)
(1.4375163 -0.00069722695 -0.1752649)
(0.10073196 -0.00074704827 -0.020420764)
(0.3111057 -0.00018415577 -0.065634256)
(0.55180944 0.00047811223 -0.11530992)
(0.80262291 0.0018649904 -0.16391746)
(1.0381597 0.0027206007 -0.20183412)
(1.2333056 0.0023147305 -0.22071118)
(1.3705773 0.0010998183 -0.2187)
(1.4505915 0.00035264825 -0.20079777)
(1.4963449 -0.00021404308 -0.17613497)
(0.11452875 -0.0007500604 -0.02199827)
(0.34953478 -1.4640447e-05 -0.070646263)
(0.61257518 0.00087896122 -0.12322005)
(0.87899836 0.0024588213 -0.17350099)
(1.1208149 0.003373224 -0.21134702)
(1.3135509 0.0029629748 -0.22818266)
(1.4426066 0.0017654424 -0.22331832)
(1.5128716 0.0011329896 -0.20308774)
(1.5498758 0.00070325375 -0.17705051)
(0.12775672 -0.0007260381 -0.023312955)
(0.38591885 0.00010041533 -0.074890151)
(0.66941336 0.0011514922 -0.12989947)
(0.94951874 0.0028459258 -0.18152415)
(1.1962354 0.0037960667 -0.21924048)
(1.3862376 0.0034352383 -0.23426604)
(1.5076249 0.0023464606 -0.2269992)
(1.5691714 0.0018403371 -0.20493976)
(1.5982159 0.0015783146 -0.17778337)
(0.14015148 -0.00067792699 -0.02444403)
(0.4195891 0.00018385566 -0.078540713)
(0.72140514 0.0013220067 -0.13558081)
(1.0133025 0.0030494297 -0.18823978)
(1.2637656 0.0039910515 -0.22574161)
(1.4509774 0.0036890484 -0.23912998)
(1.5654075 0.0027517897 -0.2297825)
(1.6192424 0.002360009 -0.20624641)
(1.6411762 0.0022603347 -0.17817387)
(0.15107918 -0.00060717785 -0.025370134)
(0.44906114 0.00021889393 -0.081563763)
(0.7666241 0.0013433836 -0.14026574)
(1.0684512 0.0029822753 -0.19373214)
(1.3219711 0.0038519142 -0.23099269)
(1.5067992 0.0036066155 -0.24293842)
(1.6153339 0.002839177 -0.23181214)
(1.6625461 0.0025636972 -0.20705803)
(1.6782884 0.0026161383 -0.17821583)
(0.16016774 -0.00049892392 -0.026091445)
(0.47345067 0.00023934629 -0.083954979)
(0.8038944 0.001252608 -0.14396937)
(1.1137642 0.0026764547 -0.1980546)
(1.3698143 0.0034042715 -0.23507277)
(1.5528265 0.003198818 -0.24578786)
(1.6566596 0.0025932483 -0.23317809)
(1.6983749 0.0024211832 -0.20741389)
(1.708929 0.0025843685 -0.17793699)
(0.1672029 -0.00036952796 -0.026616103)
(0.49226368 0.0002022855 -0.085722574)
(0.83255516 0.00099249855 -0.14671314)
(1.1485226 0.0020794459 -0.20124905)
(1.4065505 0.0026161106 -0.23803761)
(1.588265 0.0024568625 -0.24775464)
(1.688568 0.002021656 -0.23396413)
(1.72596 0.0019413005 -0.20738298)
(1.7324538 0.0021564114 -0.17742517)
(0.17221849 -0.0002564257 -0.026996442)
(0.50549339 6.0001401e-05 -0.086967455)
(0.85246861 0.00053962436 -0.14860281)
(1.1724151 0.0012201336 -0.20340067)
(1.4316627 0.0015643481 -0.23995562)
(1.6124128 0.0014847236 -0.24892695)
(1.7102747 0.0012405385 -0.23429021)
(1.7446157 0.001229427 -0.20711275)
(1.7483083 0.0014168867 -0.17685641)
(0.17456549 -6.9479891e-05 -0.027167316)
(0.51178217 8.7754171e-05 -0.08755765)
(0.86206469 0.00028965809 -0.1495098)
(1.1840749 0.00054295207 -0.20444011)
(1.4440581 0.00065440034 -0.24087964)
(1.6244478 0.00060289933 -0.24947012)
(1.7211607 0.00049062369 -0.23439447)
(1.7539686 0.00046447772 -0.20690072)
(1.7562486 0.00051539943 -0.17650095)
(0.17456549 6.9483907e-05 -0.027167315)
(0.51178215 -8.7760784e-05 -0.087557638)
(0.86206467 -0.00028972542 -0.14950977)
(1.1840749 -0.0005430537 -0.2044401)
(1.4440581 -0.00065459048 -0.24087962)
(1.6244478 -0.00060318785 -0.2494701)
(1.7211607 -0.00049098731 -0.23439446)
(1.7539685 -0.00046485802 -0.20690074)
(1.7562486 -0.00051569503 -0.17650103)
(0.17221849 0.00025643948 -0.026996458)
(0.50549339 -6.0001214e-05 -0.086967442)
(0.8524686 -0.00053965845 -0.14860279)
(1.1724151 -0.0012201713 -0.20340065)
(1.4316627 -0.0015644778 -0.23995556)
(1.6124127 -0.0014849374 -0.24892691)
(1.7102746 -0.0012408338 -0.23429018)
(1.7446156 -0.0012297725 -0.20711278)
(1.7483083 -0.0014172847 -0.17685656)
(0.1672029 0.00036953428 -0.026616155)
(0.49226368 -0.00020229074 -0.08572258)
(0.83255514 -0.00099252929 -0.14671324)
(1.1485226 -0.0020794762 -0.20124911)
(1.4065505 -0.0026162099 -0.23803757)
(1.5882649 -0.0024570251 -0.2477546)
(1.6885679 -0.0020219112 -0.23396407)
(1.7259599 -0.0019416199 -0.20738293)
(1.7324537 -0.0021568779 -0.17742525)
(0.16016774 0.00049894045 -0.026091497)
(0.47345067 -0.000239304 -0.083955009)
(0.80389437 -0.0012525869 -0.14396955)
(1.1137641 -0.0026765074 -0.19805472)
(1.3698142 -0.0034043931 -0.23507277)
(1.5528263 -0.0031990166 -0.2457878)
(1.6566595 -0.0025935361 -0.23317798)
(1.6983748 -0.0024215079 -0.20741373)
(1.7089288 -0.0025847781 -0.17793694)
(0.15107918 0.00060719068 -0.025370105)
(0.44906115 -0.00021887013 -0.08156372)
(0.76662408 -0.0013433702 -0.14026573)
(1.0684512 -0.0029823776 -0.19373209)
(1.3219711 -0.0038520923 -0.23099264)
(1.5067992 -0.0036068663 -0.24293831)
(1.6153338 -0.0028394726 -0.23181198)
(1.6625459 -0.0025640177 -0.20705782)
(1.6782882 -0.0026164298 -0.1782157)
(0.14015148 0.00067793985 -0.024443935)
(0.4195891 -0.00018389143 -0.078540632)
(0.72140512 -0.0013220576 -0.13558061)
(1.0133024 -0.0030495522 -0.18823963)
(1.2637656 -0.0039912562 -0.22574157)
(1.4509773 -0.0036892687 -0.2391299)
(1.5654073 -0.0027520194 -0.22978233)
(1.6192422 -0.0023602852 -0.20624618)
(1.641176 -0.0022605798 -0.17817366)
(0.12775671 0.00072605209 -0.023312943)
(0.38591884 -0.0001003937 -0.074890067)
(0.66941334 -0.001151512 -0.12989936)
(0.94951872 -0.0028459535 -0.18152413)
(1.1962354 -0.0037961432 -0.21924053)
(1.3862375 -0.003435308 -0.23426603)
(1.5076247 -0.0023465922 -0.22699903)
(1.5691713 -0.0018405587 -0.20493948)
(1.5982157 -0.0015785919 -0.17778303)
(0.11452874 0.0007500891 -0.021998244)
(0.34953478 1.4666493e-05 -0.070646241)
(0.61257518 -0.00087894354 -0.12322007)
(0.87899836 -0.0024587993 -0.17350103)
(1.1208149 -0.0033732023 -0.21134709)
(1.3135509 -0.0029629841 -0.2281826)
(1.4426065 -0.0017654397 -0.22331805)
(1.5128715 -0.0011331982 -0.20308733)
(1.5498756 -0.00070359764 -0.17705007)
(0.10073197 0.00074706732 -0.020420767)
(0.3111057 0.00018412835 -0.065634374)
(0.55180946 -0.00047811167 -0.11531)
(0.80262293 -0.0018650528 -0.16391755)
(1.0381597 -0.0027206585 -0.20183415)
(1.2333056 -0.0023147449 -0.2207111)
(1.3705773 -0.0010996571 -0.2186997)
(1.4505914 -0.00035283502 -0.20079711)
(1.4963448 0.00021372582 -0.1761346)
(0.08665698 0.00060586977 -0.018573207)
(0.27137678 7.1539391e-05 -0.059851972)
(0.48814236 -0.00042778194 -0.10610711)
(0.72137685 -0.0015890191 -0.15260379)
(0.94891827 -0.0023276367 -0.19042738)
(1.1456618 -0.0019527916 -0.2115138)
(1.2911336 -0.00087200568 -0.21272249)
(1.3822376 2.1591119e-06 -0.19800449)
(1.4375163 0.00069730932 -0.17526506)
(0.07303245 0.00056693877 -0.016644857)
(0.23208884 0.00022964132 -0.053735156)
(0.42379399 -5.5153324e-05 -0.096133559)
(0.63723265 -0.0010206334 -0.13994257)
(0.85418947 -0.0017293276 -0.1771999)
(1.0506974 -0.0015377515 -0.20037903)
(1.2040222 -0.00077075096 -0.20529106)
(1.3073358 0.00015957846 -0.19488779)
(1.3729598 0.00060611762 -0.17507096)
(0.059762209 0.00018927349 -0.014147893)
(0.19297658 -0.00047326865 -0.045998378)
(0.35820754 -0.0009400134 -0.083438221)
(0.54900044 -0.0017852273 -0.12363143)
(0.75150054 -0.0021833605 -0.16007367)
(0.94460379 -0.0015987792 -0.18591409)
(1.1047612 -0.00031067759 -0.19615409)
(1.2212245 0.0015866928 -0.19204498)
(1.2990905 0.0025811067 -0.17914168)
(0.035862168 0.0015575451 0.0011745373)
(0.1296437 0.0037138928 0.0018401885)
(0.26735463 0.0043259819 -0.0016703943)
(0.45406593 0.001455372 -0.012192194)
(0.68017977 -0.00637507 -0.030797109)
(0.91865519 -0.018729182 -0.054098919)
(1.1345018 -0.033104713 -0.075405885)
(1.3010993 -0.045828396 -0.088612121)
(1.4055596 -0.054268128 -0.092609544)
(0.041166743 0.0014609701 0.00084830904)
(0.14909696 0.0029941491 0.00048066797)
(0.30712207 0.0023587207 -0.0051368936)
(0.51830474 -0.0024567913 -0.018959962)
(0.76578649 -0.012462105 -0.041210332)
(1.0135808 -0.02623244 -0.066535028)
(1.2236174 -0.040542717 -0.086760961)
(1.3758282 -0.051942942 -0.096860115)
(1.4671228 -0.058337061 -0.096783929)
(0.046182586 0.0016904853 0.00075049856)
(0.16756962 0.0032638792 -0.00018216855)
(0.34488963 0.0021417583 -0.0073579616)
(0.57881422 -0.0037351708 -0.023690471)
(0.84490143 -0.014817233 -0.048330653)
(1.0981943 -0.028804576 -0.074426665)
(1.2993966 -0.042100872 -0.092932584)
(1.4370833 -0.052027727 -0.10050956)
(1.5174203 -0.057042361 -0.097853556)
(0.051414651 0.0017905637 0.00053567686)
(0.18645673 0.003295177 -0.0011008173)
(0.3828403 0.0017995046 -0.0098606668)
(0.63854218 -0.0047076299 -0.028455753)
(0.9213866 -0.016160607 -0.054809837)
(1.1781962 -0.029657564 -0.080932085)
(1.3698044 -0.04151599 -0.097415371)
(1.4934425 -0.049887203 -0.10280417)
(1.5633466 -0.053872572 -0.098329437)
(0.056466064 0.0018372425 0.00030370509)
(0.20467138 0.0032803002 -0.0019947888)
(0.41933511 0.0015786585 -0.012160982)
(0.69566318 -0.0051579422 -0.03265625)
(0.99379952 -0.016431338 -0.060149305)
(1.2534412 -0.02900679 -0.086096039)
(1.4362075 -0.039337616 -0.1008267)
(1.5465895 -0.0461647 -0.1044028)
(1.6064036 -0.049242853 -0.09886652)
(0.061323389 0.0018213371 4.9845972e-05)
(0.22206831 0.0032020052 -0.0028774027)
(0.45395263 0.0014460877 -0.014255018)
(0.74941462 -0.0051468774 -0.036252327)
(1.0612963 -0.015744731 -0.064379352)
(1.3232261 -0.027048294 -0.089902464)
(1.4981608 -0.035794725 -0.10325683)
(1.5967571 -0.041234815 -0.10554071)
(1.6471763 -0.043585881 -0.099647695)
(0.06605296 0.0017115864 -0.00021181693)
(0.23869237 0.0029637209 -0.0037308769)
(0.48650783 0.0012492954 -0.016157287)
(0.79920865 -0.0048905641 -0.039332392)
(1.1231834 -0.014415904 -0.067795207)
(1.3868299 -0.024203194 -0.092740041)
(1.5550222 -0.031380588 -0.10507603)
(1.6435069 -0.035639871 -0.10643638)
(1.6856013 -0.037471937 -0.10059864)
(0.070289477 0.0015239853 -0.00045872309)
(0.25353759 0.0026092919 -0.0044951666)
(0.51547683 0.0010422328 -0.017774618)
(0.84332779 -0.0043750139 -0.041830927)
(1.1777629 -0.012539903 -0.070411205)
(1.4428785 -0.020689326 -0.09474594)
(1.6055815 -0.026404908 -0.10632671)
(1.6858181 -0.029721896 -0.10708022)
(1.7209082 -0.031204706 -0.1013492)
(0.073851399 0.0012620728 -0.00067725462)
(0.26603066 0.0021399531 -0.0051432112)
(0.53986695 0.00080968579 -0.019078883)
(0.88046499 -0.0036607153 -0.043745857)
(1.2236311 -0.010250457 -0.072288098)
(1.490042 -0.01669548 -0.096026169)
(1.6484368 -0.021091656 -0.1068589)
(1.7223827 -0.023626864 -0.10726574)
(1.7518005 -0.024769301 -0.10135626)
(0.076649549 0.0009466141 -0.00085266329)
(0.27587246 0.0015948495 -0.0056454981)
(0.55909735 0.00057833133 -0.020044415)
(0.90972132 -0.0027649349 -0.045087656)
(1.2596509 -0.0076113314 -0.073494554)
(1.5270618 -0.012289346 -0.096678321)
(1.6822157 -0.015451803 -0.10683441)
(1.7516127 -0.017270344 -0.1068857)
(1.7766112 -0.018047489 -0.10031892)
(0.078888205 0.0005884048 -0.00097749372)
(0.28341339 0.00098798214 -0.0059958816)
(0.57333021 0.00034763627 -0.020694474)
(0.93076149 -0.0017214941 -0.045934006)
(1.2849737 -0.0046845992 -0.074175991)
(1.5527596 -0.0075253459 -0.096901948)
(1.7055765 -0.0094497322 -0.10655441)
(1.7719199 -0.010551595 -0.10614547)
(1.7938927 -0.010975302 -0.099154455)
(0.079811481 0.00018149893 -0.0010381284)
(0.28674136 0.00028313546 -0.0061605495)
(0.57992962 4.3743129e-05 -0.020988154)
(0.94088669 -0.00066637319 -0.046302346)
(1.2974601 -0.0016622324 -0.074441125)
(1.5656154 -0.0026018754 -0.096915816)
(1.7173637 -0.0032265371 -0.10629008)
(1.7822364 -0.0035717916 -0.10559144)
(1.8026981 -0.0036864672 -0.098419972)
(0.079811478 -0.00018147355 -0.0010381279)
(0.28674136 -0.00028309569 -0.0061605461)
(0.5799296 -4.3736128e-05 -0.020988145)
(0.94088667 0.00066630915 -0.046302347)
(1.2974601 0.001662043 -0.074441118)
(1.5656153 0.0026015508 -0.096915802)
(1.7173636 0.0032261311 -0.10629007)
(1.7822363 0.0035713669 -0.10559144)
(1.802698 0.0036861265 -0.098419991)
(0.078888199 -0.00058837619 -0.00097749976)
(0.28341337 -0.00098793666 -0.0059958913)
(0.57333018 -0.00034760832 -0.020694482)
(0.93076145 0.0017214659 -0.045934022)
(1.2849736 0.0046844529 -0.074175978)
(1.5527595 0.0075250793 -0.096901911)
(1.7055763 0.0094493835 -0.10655436)
(1.7719197 0.010551201 -0.10614542)
(1.7938925 0.01097492 -0.099154475)
(0.07664954 -0.00094658816 -0.00085268249)
(0.27587244 -0.0015948134 -0.0056455376)
(0.5590973 -0.00057830624 -0.020044485)
(0.90972125 0.002764915 -0.045087723)
(1.2596508 0.0076112113 -0.073494561)
(1.5270616 0.012289124 -0.096678278)
(1.6822154 0.015451502 -0.10683433)
(1.7516124 0.017269986 -0.10688558)
(1.7766109 0.018047085 -0.10031889)
(0.073851389 -0.0012620485 -0.00067727807)
(0.26603063 -0.0021399149 -0.0051432641)
(0.53986688 -0.00080965594 -0.019078995)
(0.88046487 0.0036606853 -0.043745966)
(1.2236309 0.010250332 -0.072288128)
(1.4900418 0.016695257 -0.096026117)
(1.6484366 0.021091361 -0.10685877)
(1.7223824 0.023626539 -0.10726554)
(1.7518001 0.024768937 -0.10135617)
(0.070289464 -0.0015239593 -0.00045872654)
(0.25353755 -0.0026092475 -0.0044952019)
(0.51547675 -0.00104219 -0.01777468)
(0.84332768 0.0043749798 -0.04183099)
(1.1777628 0.012539771 -0.070411212)
(1.4428783 0.020689103 -0.094745864)
(1.6055812 0.026404624 -0.10632654)
(1.6858178 0.029721605 -0.10707995)
(1.7209078 0.03120441 -0.10134905)
(0.066052951 -0.0017115577 -0.00021180009)
(0.23869234 -0.0029636815 -0.0037308872)
(0.48650776 -0.0012492471 -0.016157267)
(0.79920858 0.0048905535 -0.039332403)
(1.1231833 0.014415806 -0.067795208)
(1.3868298 0.024203026 -0.092739962)
(1.5550219 0.031380361 -0.10507582)
(1.6435066 0.035639625 -0.10643605)
(1.6856009 0.037471674 -0.10059838)
(0.061323381 -0.0018212977 4.9846591e-05)
(0.22206828 -0.0032019406 -0.0028774249)
(0.45395258 -0.0014460098 -0.014255027)
(0.74941454 0.0051469306 -0.036252371)
(1.0612962 0.015744726 -0.064379382)
(1.3232259 0.027048223 -0.089902383)
(1.4981606 0.035794586 -0.10325658)
(1.5967569 0.041234624 -0.1055403)
(1.647176 0.043585635 -0.099647299)
(0.056466063 -0.0018371909 0.00030368894)
(0.20467137 -0.0032802174 -0.0019948714)
(0.4193351 -0.0015785445 -0.012161074)
(0.69566316 0.0051580414 -0.032656356)
(0.99379947 0.016431403 -0.060149355)
(1.2534411 0.029006813 -0.086095922)
(1.4362073 0.039337592 -0.1008264)
(1.5465893 0.046164568 -0.10440231)
(1.6064034 0.049242664 -0.09886606)
(0.051414657 -0.0017905233 0.00053564635)
(0.18645674 -0.0032951317 -0.0011009545)
(0.38284031 -0.001799418 -0.0098608039)
(0.63854219 0.0047076976 -0.028455876)
(0.92138656 0.016160661 -0.054809863)
(1.1781961 0.029657653 -0.080931955)
(1.3698043 0.041516138 -0.097415039)
(1.4934425 0.049887246 -0.10280365)
(1.5633466 0.053872504 -0.098329022)
(0.046182599 -0.0016904588 0.00075047438)
(0.16756966 -0.0032638557 -0.00018226423)
(0.34488969 -0.0021416812 -0.007358029)
(0.5788143 0.0037352498 -0.023690527)
(0.8449015 0.014817301 -0.048330685)
(1.0981944 0.028804713 -0.07442664)
(1.2993967 0.042101192 -0.092932327)
(1.4370835 0.052028124 -0.1005091)
(1.5174205 0.057042405 -0.097853141)
(0.041166763 -0.0014609551 0.00084829761)
(0.14909702 -0.0029941431 0.00048062672)
(0.30712217 -0.0023586842 -0.0051369194)
(0.51830488 0.002456837 -0.018960013)
(0.76578664 0.012462146 -0.041210409)
(1.0135809 0.026232498 -0.066535058)
(1.2236175 0.040542939 -0.086760777)
(1.3758284 0.051943516 -0.096859527)
(1.467123 0.058337332 -0.096783308)
(0.035862197 -0.0015575432 0.0011745378)
(0.12964379 -0.0037139027 0.0018401843)
(0.26735477 -0.0043260043 -0.0016704107)
(0.45406613 -0.0014554183 -0.012192224)
(0.68018 0.00637503 -0.030797074)
(0.91865544 0.018729196 -0.054098802)
(1.1345021 0.033104902 -0.075405754)
(1.3010995 0.045828871 -0.088611406)
(1.4055598 0.054268394 -0.092608782)
(0.026114393 0.00037398013 0.0002806813)
(0.098908509 0.0008534125 0.00038599915)
(0.21346759 0.00078444628 -0.00074950523)
(0.38053516 -0.00085763024 -0.0043533078)
(0.5997672 -0.0057648764 -0.011797892)
(0.84962699 -0.015383888 -0.023529362)
(1.0876508 -0.028938818 -0.037680837)
(1.2743187 -0.042116885 -0.048977037)
(1.3907429 -0.051276005 -0.054423515)
(0.027941907 5.7309338e-06 -7.1303103e-05)
(0.10759994 -0.00030579416 -0.00071670132)
(0.23480525 -0.0013025625 -0.0028303192)
(0.42059259 -0.0040114075 -0.007721073)
(0.66099387 -0.010194131 -0.016757632)
(0.92631129 -0.021132019 -0.030039159)
(1.1665558 -0.035351008 -0.044629121)
(1.3430583 -0.04796824 -0.054744127)
(1.447858 -0.055516765 -0.058148799)
(0.029197886 -0.00021338119 -0.00024085493)
(0.11438285 -0.0010284564 -0.0012922901)
(0.25246298 -0.0026362818 -0.0040204474)
(0.45463571 -0.0060304854 -0.0097812431)
(0.713222 -0.012920453 -0.019861354)
(0.99047424 -0.024287806 -0.033966714)
(1.2300187 -0.038102141 -0.048285979)
(1.3963742 -0.049533879 -0.056995019)
(1.4920674 -0.055698603 -0.058485569)
(0.030526555 -0.00043256019 -0.00037081329)
(0.12116 -0.0017182812 -0.001728951)
(0.26963711 -0.0038454317 -0.0049518531)
(0.48714351 -0.0077554815 -0.011432126)
(0.76229278 -0.015085375 -0.022328903)
(1.0497466 -0.026527312 -0.036932183)
(1.2874584 -0.039541924 -0.050612382)
(1.4440188 -0.049571271 -0.057722374)
(1.5312048 -0.05446158 -0.057532127)
(0.031756897 -0.00056814864 -0.00041964127)
(0.12750681 -0.0021656412 -0.0019207246)
(0.28579902 -0.004649173 -0.0054662534)
(0.51781483 -0.0089010589 -0.01249973)
(0.80863732 -0.016445706 -0.024094656)
(1.1054992 -0.027703599 -0.038890377)
(1.3412701 -0.039692985 -0.051759544)
(1.4886598 -0.048248809 -0.057308037)
(1.5675719 -0.051920198 -0.055747764)
(0.033011151 -0.00063520537 -0.00041650446)
(0.1337235 -0.0023975093 -0.001947054)
(0.30134845 -0.0050689409 -0.0056879031)
(0.54709227 -0.0094644244 -0.013127393)
(0.85281572 -0.016951889 -0.025265629)
(1.1582444 -0.02765554 -0.039975353)
(1.3921194 -0.038407889 -0.051767817)
(1.5311309 -0.045496661 -0.055879717)
(1.6020593 -0.04809909 -0.05317308)
(0.03442747 -0.00065770234 -0.00039161952)
(0.14012385 -0.0024717781 -0.0018934355)
(0.31663068 -0.0051818607 -0.0057378435)
(0.57518413 -0.0095161524 -0.013452033)
(0.89463696 -0.016637288 -0.025870047)
(1.2076996 -0.026401176 -0.040255958)
(1.4396987 -0.035721896 -0.050765801)
(1.5711686 -0.041377004 -0.05358311)
(1.6345211 -0.043056576 -0.04989965)
(0.035764797 -0.00062916787 -0.00034903931)
(0.14603001 -0.0023664166 -0.0017720277)
(0.33056678 -0.0049455416 -0.0056258234)
(0.6006925 -0.0089860847 -0.013458992)
(0.93253919 -0.015413408 -0.025925499)
(1.2524468 -0.023887647 -0.039807837)
(1.4828096 -0.031620843 -0.048971674)
(1.6077346 -0.035923077 -0.050627508)
(1.664179 -0.03684983 -0.046259599)
(0.036928531 -0.00055165131 -0.0002985768)
(0.15112645 -0.0020810105 -0.0016142663)
(0.3425695 -0.0043480738 -0.0054089362)
(0.62275698 -0.0078464634 -0.013246721)
(0.96524411 -0.013253837 -0.025582297)
(1.2910653 -0.020135041 -0.038871067)
(1.520119 -0.026150666 -0.046905527)
(1.6394946 -0.029237898 -0.047510277)
(1.6899908 -0.029662812 -0.042917179)
(0.03788175 -0.00042861491 -0.00024896695)
(0.15526432 -0.0016243655 -0.0014519386)
(0.35226684 -0.003400626 -0.0051541266)
(0.64056195 -0.0061141684 -0.012925531)
(0.99155014 -0.010212988 -0.025055478)
(1.3220341 -0.015272513 -0.037779835)
(1.5500321 -0.019517313 -0.044935254)
(1.6650203 -0.021557696 -0.044834639)
(1.7108733 -0.021716978 -0.04057577)
(0.038787374 -0.00027323427 -0.00021155651)
(0.15876352 -0.0010369065 -0.0013265608)
(0.35987497 -0.0021730581 -0.0049472822)
(0.65384967 -0.0038957953 -0.012641324)
(1.0105432 -0.0064527579 -0.02457544)
(1.3439421 -0.0095354355 -0.036857114)
(1.5709663 -0.012039878 -0.043386617)
(1.6829011 -0.013195587 -0.043014015)
(1.725515 -0.013254653 -0.038968713)
(0.039086371 -9.6671791e-05 -0.00019168142)
(0.16013521 -0.00036398824 -0.0012579785)
(0.36318732 -0.000755673 -0.0048270992)
(0.66006232 -0.0013437057 -0.012466446)
(1.019808 -0.0022107642 -0.02428567)
(1.3548722 -0.0032459456 -0.036336683)
(1.5815358 -0.0040732811 -0.04256021)
(1.6920161 -0.0044464921 -0.042096715)
(1.7329981 -0.0044589839 -0.038129338)
(0.039086368 9.6694913e-05 -0.00019168192)
(0.1601352 0.00036402209 -0.0012579829)
(0.36318731 0.00075568822 -0.0048271063)
(0.6600623 0.0013436499 -0.012466453)
(1.019808 0.0022105792 -0.024285667)
(1.3548721 0.0032456307 -0.03633667)
(1.5815357 0.0040728876 -0.042560183)
(1.692016 0.0044460914 -0.042096677)
(1.732998 0.0044586577 -0.038129306)
(0.038787367 0.00027325944 -0.00021155857)
(0.1587635 0.0010369476 -0.0013265758)
(0.35987493 0.0021730873 -0.0049473042)
(0.65384961 0.0038957576 -0.012641345)
(1.0105431 0.0064525956 -0.024575435)
(1.3439419 0.0095351461 -0.036857073)
(1.5709661 0.012039507 -0.043386534)
(1.6829009 0.013195201 -0.043013895)
(1.7255147 0.013254329 -0.03896861)
(0.03788174 0.00042864151 -0.00024897154)
(0.15526429 0.0016244111 -0.0014519784)
(0.35226678 0.0034006692 -0.0051541719)
(0.64056186 0.0061141531 -0.012925575)
(0.99155 0.010212858 -0.02505548)
(1.3220338 0.015272259 -0.037779768)
(1.5500318 0.019516975 -0.044935109)
(1.66502 0.021557339 -0.044834425)
(1.7108729 0.021716669 -0.040575578)
(0.036928522 0.0005516807 -0.00029858395)
(0.15112643 0.0020810588 -0.0016143313)
(0.34256945 0.0043481302 -0.0054090037)
(0.62275688 0.0078464709 -0.01324679)
(0.96524394 0.013253738 -0.025582303)
(1.2910651 0.020134822 -0.038870969)
(1.5201187 0.026150367 -0.046905312)
(1.6394942 0.029237585 -0.047509953)
(1.6899903 0.029662539 -0.042916884)
(0.035764788 0.00062919908 -0.00034904821)
(0.14602999 0.0023664662 -0.0017720995)
(0.33056673 0.0049456108 -0.0056258956)
(0.60069242 0.0089861172 -0.013459067)
(0.93253905 0.015413345 -0.025925495)
(1.2524466 0.023887473 -0.039807708)
(1.4828093 0.031620598 -0.048971394)
(1.6077342 0.035922829 -0.050627076)
(1.6641785 0.036849614 -0.046259199)
(0.034427462 0.00065773943 -0.00039163475)
(0.14012383 0.002471843 -0.0018935094)
(0.31663063 0.005181957 -0.0057379272)
(0.57518406 0.0095162242 -0.013452118)
(0.89463685 0.016637276 -0.025870042)
(1.2076994 0.026401066 -0.040255813)
(1.4396983 0.035721724 -0.050765474)
(1.5711682 0.041376845 -0.053582589)
(1.6345206 0.043056427 -0.049899154)
(0.033011146 0.00063525557 -0.00041652207)
(0.13372348 0.0023975981 -0.0019471372)
(0.30134842 0.0050690708 -0.0056880004)
(0.54709222 0.0094645416 -0.013127483)
(0.85281563 0.016951937 -0.025265627)
(1.1582443 0.027655498 -0.039975199)
(1.3921191 0.038407798 -0.051767463)
(1.5311305 0.045496598 -0.055879126)
(1.6020589 0.048099002 -0.053172515)
(0.031756896 0.00056820807 -0.00041967051)
(0.12750681 0.0021657426 -0.0019208377)
(0.28579901 0.0046493273 -0.0054663767)
(0.51781481 0.0089012107 -0.012499847)
(0.80863727 0.016445805 -0.024094675)
(1.1054991 0.02770363 -0.038890227)
(1.3412699 0.039692974 -0.051759186)
(1.4886596 0.04824881 -0.057307384)
(1.5675717 0.051920154 -0.055747148)
(0.030526556 0.0004326191 -0.00037084702)
(0.12116 0.0017183764 -0.0017290767)
(0.26963711 0.0038455834 -0.0049519999)
(0.4871435 0.0077556404 -0.011432273)
(0.76229274 0.015085504 -0.02232895)
(1.0497465 0.026527411 -0.036932058)
(1.2874584 0.039541995 -0.050612004)
(1.4440187 0.049571299 -0.057721637)
(1.5312046 0.054461562 -0.057531451)
(0.02919789 0.00021342683 -0.00024088437)
(0.11438286 0.0010285216 -0.0012924011)
(0.252463 0.0026363959 -0.0040205799)
(0.45463573 0.0060306076 -0.0097813841)
(0.713222 0.01292056 -0.019861421)
(0.99047422 0.02428793 -0.033966607)
(1.2300187 0.038102303 -0.048285546)
(1.3963743 0.049534001 -0.056994201)
(1.4920675 0.055698599 -0.058484816)
(0.027941918 -5.7054964e-06 -7.1322398e-05)
(0.10759996 0.00030581793 -0.00071677106)
(0.2348053 0.0013026003 -0.002830403)
(0.42059264 0.0040114269 -0.007721161)
(0.66099391 0.010194118 -0.016757657)
(0.9263113 0.021132025 -0.030039002)
(1.1665558 0.035351136 -0.044628606)
(1.3430584 0.047968552 -0.054743235)
(1.4478582 0.05551699 -0.058148098)
(0.026114412 -0.00037397774 0.0002806795)
(0.098908563 -0.00085341766 0.00038599066)
(0.21346768 -0.00078446213 -0.00074951902)
(0.38053526 0.00085758775 -0.0043533036)
(0.59976729 0.0057648059 -0.011797802)
(0.84962706 0.015383837 -0.023529101)
(1.0876509 0.02893886 -0.037680342)
(1.2743189 0.042117126 -0.048976105)
(1.3907432 0.051276249 -0.054423041)
(0.031069361 8.7378175e-05 0.0001007155)
(0.11402446 -6.2293787e-05 8.6739818e-05)
(0.2391589 -0.00094557296 -0.00032129491)
(0.41460163 -0.0032010102 -0.0015675487)
(0.63753147 -0.0075924202 -0.0044123321)
(0.88707995 -0.014564473 -0.0096072941)
(1.1247369 -0.023241421 -0.016174883)
(1.3135917 -0.031978251 -0.022528781)
(1.4312336 -0.038919501 -0.026939244)
(0.033129882 3.3171308e-05 4.6705889e-05)
(0.12301605 -0.00032530369 -0.00010116286)
(0.2600068 -0.001623305 -0.00074134626)
(0.45190717 -0.0046261689 -0.0024290762)
(0.69235746 -0.010191462 -0.0060675362)
(0.95384191 -0.018616818 -0.012379608)
(1.1916533 -0.028396916 -0.019910967)
(1.3698366 -0.037161889 -0.026395705)
(1.4765087 -0.043158557 -0.030251611)
(0.034536808 5.4352841e-05 5.3953169e-05)
(0.12977571 -0.0003657874 -0.00011284249)
(0.27646077 -0.0019102835 -0.00086310227)
(0.48198899 -0.0054375252 -0.0028446546)
(0.73664258 -0.011811627 -0.0070702761)
(1.0066797 -0.021126238 -0.014229281)
(1.2422914 -0.031320125 -0.022383289)
(1.4100579 -0.0396391 -0.02883125)
(1.508165 -0.044709285 -0.032047756)
(0.035957025 2.5238182e-05 2.3005241e-05)
(0.13629832 -0.0005215541 -0.00022040907)
(0.29194603 -0.0023228992 -0.0011207787)
(0.50977773 -0.0062947449 -0.003401744)
(0.7769223 -0.013281068 -0.0081912753)
(1.0539682 -0.023088489 -0.015976728)
(1.2869845 -0.033211432 -0.024386771)
(1.4453599 -0.040837697 -0.030550236)
(1.535739 -0.044975614 -0.032997065)
(0.037205249 -3.674431e-05 -2.0003773e-05)
(0.14215663 -0.00075295698 -0.00035357164)
(0.30600663 -0.0028166129 -0.0013994376)
(0.5351908 -0.0071757725 -0.0039473204)
(0.81402376 -0.014641803 -0.0092669685)
(1.0975985 -0.02451961 -0.017269034)
(1.3285068 -0.034191269 -0.025608272)
(1.4786178 -0.040920679 -0.031232304)
(1.5615781 -0.044021348 -0.032777708)
(0.038415978 -0.00014470967 -7.1500298e-05)
(0.14770125 -0.0010878572 -0.00049185416)
(0.31915164 -0.0034168338 -0.0016332983)
(0.55885078 -0.0080614747 -0.0043386869)
(0.84855911 -0.015598574 -0.009729356)
(1.138383 -0.025130717 -0.017603986)
(1.3676617 -0.033996063 -0.025532921)
(1.5104327 -0.039620077 -0.030379163)
(1.5861826 -0.041718757 -0.031099415)
(0.03973615 -0.0002727706 -0.00010961321)
(0.15328696 -0.0014488947 -0.00056902467)
(0.33184351 -0.003977901 -0.0016971629)
(0.58119441 -0.0086957502 -0.0043307657)
(0.88058998 -0.015947325 -0.0094662476)
(1.1761765 -0.024750798 -0.016943104)
(1.4041759 -0.032513318 -0.024209253)
(1.5404844 -0.036958066 -0.028256161)
(1.6093672 -0.038134183 -0.028318954)
(0.040929887 -0.00037415519 -0.00011835082)
(0.15827629 -0.0017018907 -0.00054544061)
(0.34311309 -0.0042845524 -0.0015509802)
(0.60100025 -0.0087764163 -0.0038886989)
(0.909042 -0.015394118 -0.0085753338)
(1.2099651 -0.02312136 -0.015466701)
(1.4371255 -0.02956683 -0.021949951)
(1.5679218 -0.032825815 -0.025245833)
(1.6305136 -0.033237714 -0.024908581)
(0.041913231 -0.00041027277 -9.7190643e-05)
(0.16239788 -0.0017256372 -0.00042351244)
(0.35246253 -0.0041182289 -0.001198966)
(0.61746673 -0.0080851428 -0.0031327101)
(0.93302101 -0.013719061 -0.0072687545)
(1.2387178 -0.020061688 -0.013483093)
(1.4654069 -0.025058927 -0.019211771)
(1.5916645 -0.027242857 -0.021913221)
(1.6487898 -0.027158167 -0.021499834)
(0.042680723 -0.00036825241 -5.8263302e-05)
(0.16562179 -0.0014867087 -0.00025316819)
(0.35978521 -0.0034324019 -0.0007694273)
(0.63038145 -0.0065557686 -0.0022822017)
(0.95191666 -0.010871485 -0.005865003)
(1.2614653 -0.015581753 -0.011435137)
(1.4878565 -0.019092814 -0.016526956)
(1.610576 -0.020405214 -0.018863469)
(1.663318 -0.020114318 -0.018650139)
(0.043434257 -0.00025600754 -1.920644e-05)
(0.16840032 -0.0010082786 -9.3761832e-05)
(0.3655673 -0.0022821929 -0.00039255347)
(0.6399891 -0.0042836082 -0.0015633403)
(0.96546839 -0.0069974503 -0.0047047613)
(1.2774437 -0.0098929668 -0.0097753194)
(1.5034509 -0.011956814 -0.014405659)
(1.6236441 -0.012628899 -0.016594984)
(1.6733311 -0.012363937 -0.016619893)
(0.043648541 -9.1768004e-05 3.5429506e-06)
(0.16939014 -0.000357732 -2.5927102e-06)
(0.36792953 -0.00080291845 -0.00017861979)