/*--------------------------------*- C++ -*----------------------------------*\
  =========                 |
  \\      /  F ield         | OpenFOAM: The Open Source CFD Toolbox
   \\    /   O peration     | Website:  https://openfoam.org
    \\  /    A nd           | Version:  10
     \\/     M anipulation  |
\*---------------------------------------------------------------------------*/
FoamFile
{
    format      ascii;
    class       volScalarField;
    location    "5.8";
    object      T_0;
}
// * * * * * * * * * * * * * * * * * * * * * * * * * * * * * * * * * * * * * //

dimensions      [0 0 -1 0 0 0 0];

internalField   nonuniform List<scalar> 
100
(
0.0520211
0.154219
0.250954
0.338799
0.414641
0.475795
0.520093
0.545967
0.5525
0.53946
0.507309
0.457187
0.390869
0.310704
0.219532
0.120583
0.0173622
-0.0864735
-0.187246
-0.281385
-0.365556
-0.436777
-0.492524
-0.530824
-0.55032
-0.550319
-0.530824
-0.492524
-0.436776
-0.365555
-0.281384
-0.187244
-0.0864721
0.0173637
0.120584
0.219533
0.310705
0.39087
0.457188
0.50731
0.53946
0.5525
0.545967
0.520093
0.475794
0.414641
0.338798
0.250953
0.154218
0.05202
-0.0520211
-0.154219
-0.250954
-0.338799
-0.414641
-0.475795
-0.520093
-0.545967
-0.5525
-0.53946
-0.507309
-0.457187
-0.390869
-0.310704
-0.219532
-0.120583
-0.0173625
0.0864732
0.187246
0.281385
0.365556
0.436776
0.492524
0.530824
0.55032
0.55032
0.530824
0.492524
0.436776
0.365555
0.281384
0.187245
0.0864724
-0.0173634
-0.120584
-0.219533
-0.310705
-0.39087
-0.457188
-0.50731
-0.53946
-0.5525
-0.545967
-0.520093
-0.475794
-0.414641
-0.338798
-0.250953
-0.154218
-0.0520199
)
;

boundaryField
{
    inlet
    {
        type            cyclic;
    }
    outlet
    {
        type            cyclic;
    }
    bottom
    {
        type            slip;
    }
    top
    {
        type            slip;
    }
    frontAndBack
    {
        type            empty;
    }
}


// ************************************************************************* //
