/*--------------------------------*- C++ -*----------------------------------*\
  =========                 |
  \\      /  F ield         | OpenFOAM: The Open Source CFD Toolbox
   \\    /   O peration     | Website:  https://openfoam.org
    \\  /    A nd           | Version:  10
     \\/     M anipulation  |
\*---------------------------------------------------------------------------*/
FoamFile
{
    format      ascii;
    class       volScalarField;
    location    "8.1";
    object      T;
}
// * * * * * * * * * * * * * * * * * * * * * * * * * * * * * * * * * * * * * //

dimensions      [0 0 -1 0 0 0 0];

internalField   nonuniform List<scalar> 
100
(
0.0137713
0.0408257
0.0664338
0.0896885
0.109766
0.125955
0.137682
0.144531
0.146261
0.142809
0.134298
0.121029
0.103473
0.0822512
0.0581158
0.0319215
0.00459648
-0.0228914
-0.0495684
-0.0744893
-0.0967715
-0.115625
-0.130383
-0.140522
-0.145683
-0.145683
-0.140522
-0.130383
-0.115625
-0.0967714
-0.0744893
-0.0495683
-0.0228914
0.00459653
0.0319216
0.0581158
0.0822512
0.103473
0.121029
0.134297
0.142808
0.14626
0.144531
0.137681
0.125955
0.109766
0.0896882
0.0664335
0.0408253
0.013771
-0.0137713
-0.0408257
-0.0664338
-0.0896884
-0.109766
-0.125955
-0.137682
-0.144531
-0.14626
-0.142808
-0.134297
-0.121029
-0.103473
-0.082251
-0.0581155
-0.0319213
-0.00459623
0.0228917
0.0495686
0.0744895
0.0967716
0.115626
0.130383
0.140522
0.145683
0.145683
0.140522
0.130383
0.115625
0.0967713
0.0744891
0.0495681
0.0228912
-0.00459674
-0.0319218
-0.058116
-0.0822515
-0.103473
-0.121029
-0.134298
-0.142809
-0.146261
-0.144531
-0.137682
-0.125955
-0.109766
-0.0896882
-0.0664335
-0.0408254
-0.0137709
)
;

boundaryField
{
    inlet
    {
        type            cyclic;
    }
    outlet
    {
        type            cyclic;
    }
    bottom
    {
        type            slip;
    }
    top
    {
        type            slip;
    }
    frontAndBack
    {
        type            empty;
    }
}


// ************************************************************************* //
