/*--------------------------------*- C++ -*----------------------------------*\
  =========                 |
  \\      /  F ield         | OpenFOAM: The Open Source CFD Toolbox
   \\    /   O peration     | Website:  https://openfoam.org
    \\  /    A nd           | Version:  10
     \\/     M anipulation  |
\*---------------------------------------------------------------------------*/
FoamFile
{
    format      ascii;
    class       volScalarField;
    location    "28.5";
    object      ddt0(T);
}
// * * * * * * * * * * * * * * * * * * * * * * * * * * * * * * * * * * * * * //

dimensions      [0 0 -1 1 0 0 0];

internalField   nonuniform List<scalar> 
10000
(
990.226
158.983
253.052
254.202
253.282
253.332
253.381
253.39
253.393
253.394
253.396
253.397
253.399
253.4
253.401
253.402
253.404
253.405
253.406
253.407
253.409
253.41
253.411
253.412
253.413
253.414
253.415
253.417
253.418
253.419
253.42
253.421
253.422
253.423
253.424
253.424
253.425
253.426
253.427
253.428
253.429
253.43
253.431
253.431
253.432
253.433
253.434
253.434
253.435
253.436
253.436
253.437
253.438
253.438
253.439
253.439
253.44
253.44
253.441
253.441
253.442
253.442
253.443
253.443
253.443
253.444
253.444
253.445
253.445
253.445
253.446
253.446
253.446
253.446
253.447
253.447
253.447
253.447
253.447
253.448
253.448
253.448
253.448
253.448
253.448
253.449
253.449
253.449
253.449
253.449
253.449
253.449
253.449
253.449
253.449
253.461
253.583
253.619
241.566
221.266
210.53
-208.472
-80.5208
-88.1733
-90.7308
-90.6763
-90.5984
-90.5874
-90.585
-90.5816
-90.5778
-90.5739
-90.5701
-90.5663
-90.5625
-90.5588
-90.5551
-90.5514
-90.5478
-90.5442
-90.5406
-90.5371
-90.5337
-90.5302
-90.5268
-90.5235
-90.5202
-90.517
-90.5138
-90.5106
-90.5075
-90.5045
-90.5015
-90.4985
-90.4957
-90.4928
-90.4901
-90.4874
-90.4847
-90.4821
-90.4796
-90.4771
-90.4747
-90.4723
-90.47
-90.4678
-90.4656
-90.4635
-90.4614
-90.4594
-90.4574
-90.4555
-90.4537
-90.4519
-90.4502
-90.4485
-90.4469
-90.4454
-90.4439
-90.4424
-90.441
-90.4397
-90.4384
-90.4371
-90.4359
-90.4348
-90.4337
-90.4326
-90.4316
-90.4306
-90.4297
-90.4288
-90.428
-90.4272
-90.4264
-90.4257
-90.425
-90.4244
-90.4238
-90.4232
-90.4227
-90.4222
-90.4217
-90.4213
-90.4209
-90.4205
-90.4201
-90.4198
-90.4195
-90.4193
-90.4191
-90.4189
-90.4187
-90.4191
-90.4217
-90.4186
-90.2784
-89.6025
-92.73
-76.7678
288.946
-95.085
24.3706
13.841
11.1632
11.3069
11.4099
11.4257
11.4306
11.4364
11.4429
11.4493
11.4557
11.4621
11.4684
11.4746
11.4808
11.487
11.493
11.4991
11.505
11.5109
11.5167
11.5224
11.5281
11.5336
11.5391
11.5446
11.5499
11.5551
11.5603
11.5654
11.5704
11.5752
11.5801
11.5848
11.5894
11.5939
11.5983
11.6026
11.6069
11.611
11.615
11.619
11.6228
11.6266
11.6302
11.6338
11.6372
11.6406
11.6438
11.647
11.65
11.653
11.6559
11.6586
11.6613
11.6639
11.6664
11.6689
11.6712
11.6734
11.6756
11.6777
11.6797
11.6816
11.6834
11.6852
11.6869
11.6885
11.69
11.6915
11.6929
11.6942
11.6955
11.6967
11.6978
11.6989
11.6999
11.7009
11.7018
11.7026
11.7034
11.7041
11.7048
11.7054
11.706
11.7065
11.707
11.7074
11.7078
11.7082
11.7084
11.7079
11.7026
11.686
11.7236
12.0868
9.61187
12.0078
290.233
-101.441
15.1785
4.32155
1.72864
1.91235
2.02398
2.04249
2.04978
2.05822
2.06721
2.07622
2.08516
2.09403
2.10284
2.11157
2.12023
2.1288
2.13729
2.14569
2.154
2.16221
2.17032
2.17833
2.18623
2.19403
2.20172
2.20929
2.21675
2.22409
2.23131
2.2384
2.24537
2.25222
2.25894
2.26552
2.27198
2.2783
2.28449
2.29054
2.29646
2.30224
2.30789
2.31339
2.31876
2.324
2.32909
2.33405
2.33887
2.34356
2.34811
2.35253
2.35681
2.36096
2.36498
2.36887
2.37263
2.37627
2.37978
2.38316
2.38643
2.38957
2.3926
2.39551
2.3983
2.40099
2.40356
2.40602
2.40838
2.41063
2.41279
2.41484
2.4168
2.41866
2.42042
2.4221
2.42369
2.42519
2.4266
2.42794
2.42919
2.43036
2.43145
2.43247
2.43342
2.43429
2.43509
2.43583
2.43649
2.43709
2.43763
2.43815
2.43873
2.4392
2.43682
2.42271
2.42742
2.72355
2.52834
2.27345
289.491
-103.656
12.8232
2.04689
-0.498171
-0.301496
-0.186479
-0.165652
-0.155898
-0.144901
-0.133344
-0.121778
-0.110292
-0.098891
-0.0875759
-0.0763525
-0.0652272
-0.054206
-0.0432944
-0.0324974
-0.0218195
-0.0112652
-0.00083846
0.00945683
0.0196169
0.0296382
0.0395173
0.0492506
0.0588351
0.0682676
0.0775451
0.0866647
0.0956239
0.10442
0.113051
0.121515
0.12981
0.137933
0.145885
0.153663
0.161266
0.168694
0.175947
0.183022
0.189922
0.196645
0.203191
0.209562
0.215757
0.221778
0.227625
0.2333
0.238803
0.244136
0.2493
0.254298
0.259131
0.263801
0.26831
0.27266
0.276853
0.280892
0.284779
0.288517
0.292107
0.295554
0.298858
0.302024
0.305054
0.30795
0.310715
0.313352
0.315865
0.318255
0.320525
0.322678
0.324717
0.326644
0.328462
0.330174
0.331782
0.333288
0.334695
0.336004
0.337219
0.338341
0.339372
0.340314
0.341169
0.341936
0.34262
0.343245
0.343932
0.344877
0.344887
0.335674
0.310894
0.371829
0.431706
0.347579
289.538
-103.611
12.9454
2.2075
-0.32468
-0.124145
-0.00678366
0.0164668
0.0287626
0.042331
0.0564546
0.0705735
0.0845958
0.098517
0.112334
0.126038
0.139624
0.153083
0.166408
0.179594
0.192635
0.205525
0.218259
0.230833
0.243241
0.255481
0.267546
0.279433
0.291138
0.302658
0.313988
0.325125
0.336066
0.346808
0.357348
0.367684
0.377813
0.387733
0.397443
0.406941
0.416226
0.425296
0.434152
0.442793
0.451217
0.459427
0.467421
0.4752
0.482765
0.490116
0.497256
0.504185
0.510905
0.517417
0.523723
0.529826
0.535727
0.541429
0.546934
0.552245
0.557365
0.562297
0.567043
0.571606
0.57599
0.580198
0.584233
0.588099
0.591797
0.595333
0.59871
0.60193
0.604997
0.607915
0.610686
0.613315
0.615805
0.618158
0.620378
0.622467
0.62443
0.626269
0.627987
0.629586
0.631069
0.632438
0.633697
0.634847
0.635891
0.636828
0.637657
0.638385
0.639087
0.640069
0.64155
0.640444
0.627916
0.623513
0.628242
0.639316
289.58
-103.543
13.0357
2.30627
-0.222499
-0.0196103
0.100158
0.125938
0.140804
0.156944
0.173627
0.190291
0.206843
0.223276
0.239586
0.255764
0.271802
0.287691
0.303422
0.318989
0.334385
0.349604
0.364638
0.379483
0.394134
0.408584
0.422829
0.436863
0.450683
0.464283
0.477659
0.490808
0.503724
0.516406
0.52885
0.541051
0.553009
0.564721
0.576183
0.587396
0.598357
0.609065
0.619519
0.629719
0.639664
0.649355
0.658792
0.667975
0.676905
0.685584
0.694012
0.702191
0.710123
0.71781
0.725254
0.732458
0.739424
0.746155
0.752653
0.758923
0.764966
0.770787
0.776389
0.781776
0.786951
0.791918
0.79668
0.801242
0.805608
0.809782
0.813767
0.817568
0.821188
0.824632
0.827903
0.831006
0.833944
0.836721
0.839341
0.841808
0.844125
0.846295
0.848322
0.850209
0.85196
0.853576
0.855062
0.856419
0.857651
0.858759
0.85974
0.860588
0.861315
0.862078
0.863314
0.864744
0.86285
0.857582
0.847356
0.866897
289.588
-103.533
13.0503
2.32365
-0.20277
0.00254843
0.124847
0.153197
0.170636
0.18934
0.208574
0.227774
0.246846
0.265783
0.284578
0.303221
0.321703
0.340013
0.358142
0.376082
0.393825
0.411364
0.428691
0.4458
0.462684
0.479337
0.495754
0.511928
0.527855
0.543528
0.558944
0.574097
0.588982
0.603597
0.617937
0.631998
0.645778
0.659274
0.672484
0.685405
0.698036
0.710375
0.722422
0.734176
0.745636
0.756803
0.767677
0.778259
0.788549
0.79855
0.808261
0.817686
0.826826
0.835684
0.844261
0.852562
0.860588
0.868343
0.875831
0.883055
0.890019
0.896726
0.90318
0.909387
0.915349
0.921072
0.926559
0.931816
0.936846
0.941654
0.946246
0.950624
0.954795
0.958763
0.962532
0.966107
0.969492
0.972691
0.97571
0.978552
0.981221
0.983721
0.986056
0.98823
0.990247
0.992109
0.993821
0.995385
0.996804
0.998081
0.999216
1.0002
1.00103
1.00173
1.00251
1.0037
1.00476
1.00365
0.991312
1.01192
289.59
-103.531
13.0554
2.33119
-0.192753
0.0151098
0.13998
0.170903
0.190908
0.212166
0.233941
0.255668
0.277251
0.298681
0.319951
0.341049
0.361965
0.382687
0.403204
0.423508
0.443588
0.463438
0.483048
0.502412
0.521521
0.540369
0.558949
0.577254
0.595279
0.613018
0.630464
0.647613
0.66446
0.681
0.697228
0.713141
0.728736
0.744009
0.758958
0.77358
0.787874
0.801838
0.815471
0.828772
0.841741
0.854378
0.866683
0.878658
0.890302
0.901619
0.912608
0.923273
0.933616
0.943639
0.953345
0.962737
0.971819
0.980595
0.989067
0.997241
1.00512
1.01271
1.02001
1.02704
1.03378
1.04026
1.04646
1.05241
1.0581
1.06354
1.06874
1.07369
1.07841
1.0829
1.08717
1.09121
1.09504
1.09866
1.10207
1.10529
1.10831
1.11114
1.11378
1.11624
1.11852
1.12063
1.12256
1.12433
1.12594
1.12738
1.12867
1.1298
1.13076
1.13154
1.13218
1.13295
1.13438
1.13547
1.11901
1.14459
289.592
-103.527
13.0614
2.33973
-0.181658
0.0287784
0.156221
0.189709
0.212269
0.236069
0.260374
0.284616
0.308698
0.332611
0.356345
0.379888
0.403226
0.426349
0.449244
0.4719
0.494308
0.516458
0.538341
0.559949
0.581273
0.602305
0.623039
0.643466
0.66358
0.683374
0.702842
0.721978
0.740776
0.759232
0.77734
0.795097
0.812498
0.82954
0.84622
0.862536
0.878485
0.894065
0.909276
0.924117
0.938588
0.952687
0.966417
0.979777
0.99277
1.0054
1.01766
1.02956
1.04109
1.05228
1.06311
1.07358
1.08372
1.09351
1.10296
1.11208
1.12087
1.12934
1.13748
1.14532
1.15284
1.16007
1.16699
1.17363
1.17998
1.18604
1.19184
1.19737
1.20263
1.20764
1.21239
1.21691
1.22118
1.22521
1.22902
1.23261
1.23598
1.23913
1.24208
1.24482
1.24737
1.24972
1.25188
1.25385
1.25564
1.25725
1.25869
1.25995
1.26104
1.26193
1.26262
1.26322
1.26468
1.26747
1.24515
1.27749
289.593
-103.524
13.0678
2.34874
-0.170077
0.0429272
0.172932
0.208972
0.234074
0.260405
0.287227
0.313972
0.340541
0.366924
0.393109
0.419084
0.444833
0.470345
0.495605
0.520602
0.545325
0.569764
0.593908
0.617749
0.641277
0.664483
0.687359
0.709897
0.732089
0.753928
0.775407
0.79652
0.81726
0.837622
0.8576
0.87719
0.896388
0.91519
0.933592
0.951592
0.969187
0.986376
1.00316
1.01953
1.03549
1.05105
1.06619
1.08093
1.09527
1.10919
1.12272
1.13584
1.14857
1.16091
1.17285
1.18441
1.19559
1.20639
1.21682
1.22688
1.23657
1.24591
1.2549
1.26354
1.27184
1.27981
1.28744
1.29476
1.30176
1.30846
1.31485
1.32094
1.32675
1.33227
1.33752
1.34249
1.34721
1.35166
1.35586
1.35981
1.36353
1.36701
1.37026
1.37328
1.37609
1.37868
1.38106
1.38324
1.38521
1.38699
1.38857
1.38997
1.39117
1.39218
1.39294
1.3935
1.39499
1.3995
1.37121
1.41025
289.595
-103.52
13.0743
2.35776
-0.158494
0.0570662
0.189619
0.228198
0.255828
0.284676
0.314001
0.343236
0.372278
0.401117
0.429741
0.458133
0.48628
0.514167
0.541779
0.569104
0.596129
0.622844
0.649237
0.675298
0.701017
0.726385
0.751391
0.776028
0.800287
0.824159
0.847638
0.870716
0.893387
0.915644
0.937482
0.958895
0.979879
1.00043
1.02054
1.04022
1.05945
1.07824
1.09658
1.11448
1.13192
1.14892
1.16548
1.18159
1.19725
1.21247
1.22726
1.2416
1.25551
1.26899
1.28205
1.29468
1.3069
1.3187
1.33009
1.34109
1.35168
1.36189
1.37171
1.38115
1.39022
1.39893
1.40728
1.41527
1.42292
1.43024
1.43722
1.44388
1.45022
1.45626
1.46199
1.46743
1.47257
1.47744
1.48203
1.48635
1.49041
1.49421
1.49776
1.50107
1.50413
1.50697
1.50957
1.51195
1.5141
1.51604
1.51777
1.51929
1.52061
1.52172
1.52256
1.52312
1.52463
1.53072
1.49724
1.54212
289.596
-103.516
13.0807
2.36672
-0.146987
0.0711142
0.2062
0.247303
0.277447
0.308796
0.34061
0.372318
0.40382
0.4351
0.466146
0.496942
0.527472
0.557719
0.587669
0.617307
0.646621
0.675598
0.704226
0.732494
0.760391
0.787906
0.81503
0.841752
0.868065
0.893958
0.919425
0.944456
0.969045
0.993186
1.01687
1.0401
1.06286
1.08514
1.10696
1.1283
1.14916
1.16953
1.18942
1.20883
1.22775
1.24619
1.26415
1.28161
1.2986
1.31511
1.33114
1.3467
1.36179
1.3764
1.39056
1.40426
1.41751
1.4303
1.44266
1.45458
1.46607
1.47713
1.48778
1.49802
1.50786
1.5173
1.52635
1.53502
1.54331
1.55124
1.55881
1.56604
1.57291
1.57945
1.58567
1.59156
1.59714
1.60242
1.60739
1.61208
1.61648
1.6206
1.62445
1.62803
1.63136
1.63443
1.63725
1.63983
1.64216
1.64427
1.64614
1.64779
1.64922
1.65042
1.65134
1.65191
1.65342
1.66082
1.62324
1.67283
289.597
-103.512
13.087
2.37562
-0.135559
0.0850666
0.222669
0.26628
0.298921
0.332755
0.367041
0.401208
0.435151
0.468857
0.50231
0.535494
0.56839
0.600983
0.633254
0.665191
0.696778
0.728002
0.75885
0.78931
0.81937
0.849019
0.878246
0.90704
0.935392
0.963293
0.990733
1.0177
1.0442
1.07021
1.09573
1.12075
1.14528
1.16929
1.1928
1.21579
1.23826
1.26021
1.28165
1.30255
1.32294
1.34281
1.36215
1.38097
1.39927
1.41705
1.43432
1.45108
1.46734
1.48309
1.49834
1.51309
1.52736
1.54115
1.55446
1.5673
1.57967
1.59159
1.60306
1.61409
1.62469
1.63485
1.6446
1.65394
1.66287
1.67142
1.67957
1.68735
1.69476
1.7018
1.70849
1.71484
1.72085
1.72653
1.73189
1.73694
1.74167
1.74611
1.75026
1.75412
1.7577
1.761
1.76404
1.76682
1.76934
1.7716
1.77362
1.7754
1.77693
1.77823
1.77923
1.77982
1.78131
1.78968
1.74914
1.80227
289.599
-103.508
13.0934
2.38445
-0.124213
0.0989197
0.239021
0.285122
0.320242
0.356545
0.393286
0.429893
0.466261
0.502375
0.538218
0.573772
0.609018
0.643939
0.678516
0.712734
0.746578
0.780033
0.813085
0.845721
0.877929
0.909696
0.94101
0.971862
1.00224
1.03213
1.06153
1.09043
1.11882
1.14668
1.17402
1.20083
1.22711
1.25284
1.27802
1.30265
1.32672
1.35024
1.3732
1.3956
1.41744
1.43872
1.45944
1.4796
1.49921
1.51826
1.53676
1.55471
1.57212
1.58899
1.60532
1.62113
1.63641
1.65118
1.66544
1.67919
1.69244
1.70521
1.7175
1.72931
1.74065
1.75154
1.76198
1.77198
1.78155
1.7907
1.79943
1.80776
1.81569
1.82324
1.8304
1.8372
1.84364
1.84972
1.85546
1.86086
1.86593
1.87069
1.87513
1.87926
1.88309
1.88663
1.88988
1.89286
1.89555
1.89798
1.90014
1.90204
1.90369
1.90508
1.90616
1.90678
1.90826
1.91727
1.87484
1.93042
289.6
-103.504
13.0996
2.39321
-0.112954
0.112667
0.255249
0.30382
0.341402
0.380153
0.41933
0.458359
0.497134
0.535637
0.573851
0.611758
0.649336
0.686566
0.723432
0.759914
0.795997
0.831665
0.866904
0.9017
0.936039
0.969907
1.00329
1.03619
1.06857
1.10044
1.13179
1.16259
1.19286
1.22257
1.25172
1.2803
1.3083
1.33573
1.36258
1.38883
1.4145
1.43957
1.46404
1.48792
1.5112
1.53389
1.55597
1.57746
1.59836
1.61867
1.63839
1.65752
1.67608
1.69406
1.71147
1.72832
1.74461
1.76035
1.77554
1.7902
1.80432
1.81793
1.83102
1.84361
1.8557
1.8673
1.87843
1.88909
1.89928
1.90903
1.91834
1.92721
1.93566
1.9437
1.95134
1.95858
1.96544
1.97192
1.97804
1.98379
1.9892
1.99426
1.99899
2.00339
2.00748
2.01125
2.01472
2.01788
2.02076
2.02334
2.02565
2.02767
2.02943
2.03091
2.03207
2.03274
2.0342
2.04354
2.00016
2.05724
289.601
-103.501
13.1058
2.4019
-0.101788
0.126301
0.271342
0.322365
0.362387
0.403568
0.445161
0.486592
0.527753
0.568626
0.609193
0.649432
0.689323
0.728845
0.767979
0.806706
0.84501
0.882874
0.920282
0.957219
0.993671
1.02962
1.06506
1.09998
1.13436
1.16819
1.20146
1.23416
1.26629
1.29782
1.32876
1.3591
1.38883
1.41794
1.44644
1.4743
1.50155
1.52816
1.55413
1.57948
1.60419
1.62826
1.6517
1.67451
1.69669
1.71824
1.73917
1.75948
1.77917
1.79825
1.81673
1.8346
1.85189
1.86859
1.88471
1.90027
1.91526
1.92969
1.94359
1.95694
1.96977
1.98208
1.99389
2.0052
2.01601
2.02636
2.03623
2.04564
2.05461
2.06314
2.07124
2.07892
2.0862
2.09307
2.09956
2.10567
2.1114
2.11677
2.12179
2.12646
2.13079
2.13479
2.13847
2.14183
2.14488
2.14762
2.15007
2.15222
2.15408
2.15565
2.15689
2.15762
2.15908
2.16849
2.12497
2.18271
289.602
-103.497
13.112
2.41052
-0.0907208
0.139815
0.287295
0.340747
0.383189
0.426777
0.470766
0.514578
0.558105
0.601327
0.644225
0.686776
0.72896
0.770753
0.812136
0.853089
0.893594
0.933634
0.973192
1.01225
1.0508
1.08882
1.12629
1.16322
1.19957
1.23534
1.27052
1.3051
1.33907
1.37242
1.40513
1.43721
1.46864
1.49943
1.52955
1.55902
1.58782
1.61596
1.64342
1.67022
1.69634
1.7218
1.74658
1.77069
1.79414
1.81692
1.83905
1.86052
1.88133
1.9015
1.92104
1.93994
1.95821
1.97586
1.9929
2.00934
2.02519
2.04045
2.05513
2.06925
2.08281
2.09582
2.1083
2.12025
2.13168
2.14261
2.15305
2.163
2.17247
2.18149
2.19005
2.19817
2.20585
2.21312
2.21997
2.22642
2.23248
2.23816
2.24346
2.2484
2.25298
2.2572
2.26109
2.26464
2.26786
2.27076
2.27334
2.27562
2.27758
2.27925
2.28056
2.28135
2.28282
2.29211
2.24908
2.30682
289.604
-103.493
13.1181
2.41905
-0.0797578
0.153202
0.303098
0.358958
0.403797
0.449771
0.496132
0.542303
0.588174
0.633723
0.678931
0.723774
0.768228
0.812272
0.855883
0.899041
0.941727
0.983923
1.02561
1.06677
1.10739
1.14746
1.18695
1.22586
1.26417
1.30187
1.33894
1.37538
1.41118
1.44631
1.48079
1.51459
1.54771
1.58015
1.61189
1.64294
1.67329
1.70293
1.73187
1.76011
1.78763
1.81445
1.84056
1.86596
1.89067
1.91467
1.93798
1.9606
1.98253
2.00378
2.02436
2.04426
2.06351
2.08211
2.10006
2.11738
2.13407
2.15014
2.16561
2.18048
2.19476
2.20847
2.22161
2.2342
2.24624
2.25775
2.26874
2.27922
2.28919
2.29869
2.3077
2.31625
2.32435
2.332
2.33922
2.34601
2.35239
2.35837
2.36395
2.36915
2.37397
2.37842
2.38251
2.38625
2.38964
2.3927
2.39542
2.39781
2.39988
2.40164
2.40302
2.40389
2.40536
2.41437
2.37236
2.42955
289.605
-103.49
13.1242
2.42749
-0.0689037
0.166456
0.318745
0.376989
0.424201
0.472538
0.521249
0.569756
0.617948
0.665802
0.713296
0.760408
0.807111
0.853382
0.8992
0.944541
0.989387
1.03372
1.07751
1.12076
1.16343
1.20552
1.24702
1.28789
1.32814
1.36774
1.40669
1.44497
1.48257
1.51948
1.5557
1.5912
1.626
1.66007
1.69342
1.72603
1.75791
1.78905
1.81944
1.8491
1.87801
1.90618
1.9336
1.96028
1.98623
2.01144
2.03592
2.05967
2.08271
2.10503
2.12663
2.14754
2.16776
2.18729
2.20614
2.22432
2.24185
2.25873
2.27497
2.29058
2.30558
2.31997
2.33377
2.34698
2.35962
2.37171
2.38325
2.39425
2.40472
2.41469
2.42415
2.43313
2.44163
2.44966
2.45723
2.46437
2.47106
2.47734
2.4832
2.48865
2.49371
2.49839
2.50268
2.50661
2.51017
2.51338
2.51623
2.51874
2.52092
2.52276
2.52422
2.52516
2.52664
2.53526
2.49465
2.55088
289.606
-103.486
13.1301
2.43585
-0.0581629
0.179573
0.334229
0.394832
0.444394
0.495068
0.546105
0.596924
0.647413
0.697548
0.747306
0.796663
0.845591
0.894068
0.942068
0.98957
1.03655
1.083
1.12888
1.17418
1.21889
1.26299
1.30645
1.34928
1.39144
1.43293
1.47373
1.51383
1.55322
1.59189
1.62982
1.66702
1.70347
1.73916
1.77409
1.80825
1.84164
1.87426
1.9061
1.93716
1.96744
1.99694
2.02566
2.05361
2.08078
2.10719
2.13283
2.1577
2.18183
2.2052
2.22783
2.24972
2.27089
2.29134
2.31108
2.33013
2.34848
2.36615
2.38316
2.3995
2.41521
2.43027
2.44472
2.45855
2.47179
2.48444
2.49652
2.50804
2.51901
2.52944
2.53935
2.54874
2.55764
2.56604
2.57397
2.58144
2.58845
2.59502
2.60115
2.60686
2.61216
2.61705
2.62155
2.62566
2.62939
2.63274
2.63573
2.63836
2.64064
2.64257
2.6441
2.64511
2.64661
2.65475
2.61581
2.67079
289.607
-103.483
13.1361
2.44411
-0.0475397
0.192546
0.349544
0.412481
0.464366
0.517354
0.570691
0.623797
0.676558
0.728948
0.780946
0.832523
0.883653
0.934311
0.984471
1.03411
1.08321
1.13174
1.17968
1.22703
1.27375
1.31983
1.36525
1.40999
1.45405
1.4974
1.54004
1.58194
1.6231
1.6635
1.70314
1.742
1.78008
1.81738
1.85387
1.88956
1.92445
1.95853
1.99179
2.02424
2.05588
2.0867
2.11671
2.1459
2.17429
2.20187
2.22866
2.25464
2.27984
2.30426
2.32789
2.35076
2.37287
2.39424
2.41485
2.43474
2.45391
2.47237
2.49013
2.5072
2.5236
2.53933
2.55442
2.56887
2.58269
2.5959
2.60851
2.62054
2.63199
2.64288
2.65323
2.66304
2.67233
2.68111
2.68939
2.69718
2.7045
2.71136
2.71776
2.72372
2.72925
2.73436
2.73905
2.74334
2.74724
2.75074
2.75386
2.75661
2.75899
2.761
2.76261
2.7637
2.76521
2.77282
2.73574
2.78925
289.608
-103.479
13.1419
2.45228
-0.037038
0.20537
0.364685
0.429929
0.484112
0.539385
0.594997
0.650363
0.70537
0.759992
0.814203
0.867975
0.921282
0.974095
1.02639
1.07814
1.12933
1.17992
1.22991
1.27927
1.32797
1.37601
1.42337
1.47001
1.51594
1.56114
1.60558
1.64927
1.69217
1.73429
1.77561
1.81612
1.85582
1.89469
1.93273
1.96994
2.0063
2.04182
2.0765
2.11032
2.14329
2.17542
2.20669
2.23712
2.26671
2.29546
2.32337
2.35045
2.37671
2.40215
2.42679
2.45062
2.47366
2.49592
2.51741
2.53813
2.5581
2.57733
2.59584
2.61363
2.63071
2.64711
2.66282
2.67787
2.69228
2.70604
2.71918
2.7317
2.74363
2.75498
2.76576
2.77597
2.78565
2.79479
2.80342
2.81153
2.81916
2.8263
2.83297
2.83918
2.84494
2.85026
2.85515
2.85962
2.86367
2.86732
2.87058
2.87344
2.87591
2.87801
2.8797
2.88086
2.88239
2.88944
2.8543
2.90625
289.61
-103.476
13.1477
2.46036
-0.0266615
0.218042
0.379645
0.447168
0.503621
0.561154
0.619013
0.676614
0.73384
0.790665
0.847063
0.903005
0.958462
1.01341
1.06781
1.12165
1.1749
1.22754
1.27954
1.33089
1.38156
1.43153
1.48079
1.52932
1.5771
1.62411
1.67035
1.71579
1.76042
1.80423
1.84721
1.88935
1.93065
1.97108
2.01065
2.04935
2.08717
2.12411
2.16018
2.19535
2.22965
2.26306
2.29559
2.32723
2.358
2.3879
2.41693
2.44509
2.4724
2.49886
2.52447
2.54925
2.57321
2.59636
2.6187
2.64024
2.66101
2.68101
2.70024
2.71874
2.7365
2.75354
2.76988
2.78553
2.8005
2.81481
2.82846
2.84148
2.85389
2.86568
2.87688
2.8875
2.89756
2.90706
2.91602
2.92446
2.93238
2.9398
2.94674
2.95319
2.95918
2.96471
2.96979
2.97443
2.97865
2.98244
2.98582
2.9888
2.99137
2.99355
2.99531
2.99654
2.99809
3.00459
2.97142
3.02174
289.611
-103.472
13.1534
2.46833
-0.0164141
0.230557
0.394419
0.464194
0.522889
0.582653
0.642732
0.702538
0.761956
0.820958
0.879516
0.9376
0.99518
1.05223
1.10871
1.16462
1.2199
1.27456
1.32855
1.38186
1.43447
1.48635
1.5375
1.58788
1.63749
1.6863
1.7343
1.78147
1.82781
1.87329
1.91792
1.96166
2.00453
2.0465
2.08758
2.12775
2.16701
2.20536
2.2428
2.27931
2.31491
2.34959
2.38335
2.4162
2.44814
2.47916
2.50929
2.53852
2.56686
2.59432
2.6209
2.64662
2.67149
2.6955
2.71869
2.74104
2.76259
2.78334
2.8033
2.82249
2.84092
2.8586
2.87556
2.89179
2.90732
2.92216
2.93633
2.94984
2.9627
2.97494
2.98655
2.99757
3.008
3.01786
3.02716
3.03591
3.04413
3.05182
3.05901
3.06571
3.07192
3.07765
3.08292
3.08774
3.09211
3.09605
3.09955
3.10264
3.10531
3.10757
3.1094
3.11071
3.11228
3.11823
3.08699
3.13571
289.612
-103.469
13.159
2.4762
-0.00629904
0.24291
0.409002
0.480999
0.541907
0.603874
0.666143
0.728127
0.789709
0.850859
0.911548
0.971747
1.03142
1.09055
1.14909
1.20702
1.26432
1.32096
1.37692
1.43217
1.48669
1.54047
1.59347
1.64568
1.69709
1.74767
1.79742
1.8463
1.89432
1.94145
1.98769
2.03303
2.07744
2.12094
2.1635
2.20513
2.24581
2.28554
2.32433
2.36216
2.39905
2.43498
2.46996
2.50399
2.53707
2.56922
2.60043
2.63071
2.66007
2.68851
2.71605
2.74269
2.76845
2.79332
2.81733
2.84049
2.86281
2.8843
2.90497
2.92485
2.94393
2.96225
2.9798
2.99661
3.01269
3.02806
3.04273
3.05672
3.07004
3.08271
3.09474
3.10614
3.11694
3.12715
3.13677
3.14583
3.15434
3.16231
3.16976
3.17668
3.18311
3.18905
3.19451
3.19949
3.20402
3.20809
3.21173
3.21492
3.21769
3.22003
3.22193
3.22331
3.2249
3.23032
3.20095
3.24812
289.613
-103.466
13.1646
2.48397
0.00368009
0.255096
0.423389
0.497579
0.56067
0.624809
0.689239
0.753372
0.817088
0.880357
0.943149
1.00543
1.06718
1.12835
1.18892
1.24886
1.30814
1.36675
1.42464
1.4818
1.53821
1.59384
1.64868
1.7027
1.75588
1.80821
1.85967
1.91025
1.95992
2.00868
2.05652
2.10341
2.14936
2.19436
2.23838
2.28144
2.32352
2.36462
2.40474
2.44388
2.48202
2.51919
2.55536
2.59056
2.62478
2.65803
2.69031
2.72162
2.75198
2.7814
2.80987
2.83742
2.86405
2.88978
2.91461
2.93855
2.96163
2.98385
3.00522
3.02577
3.0455
3.06443
3.08258
3.09996
3.11659
3.13247
3.14764
3.1621
3.17586
3.18896
3.20139
3.21318
3.22434
3.23489
3.24484
3.2542
3.26299
3.27123
3.27892
3.28608
3.29273
3.29886
3.3045
3.30965
3.31433
3.31854
3.3223
3.3256
3.32846
3.33089
3.33285
3.3343
3.33591
3.34084
3.31324
3.35894
289.614
-103.462
13.17
2.49162
0.01352
0.267113
0.437575
0.513927
0.579171
0.645452
0.712013
0.778263
0.844084
0.909442
0.974308
1.03865
1.10243
1.16562
1.22819
1.29011
1.35135
1.41189
1.47169
1.53074
1.58901
1.64647
1.70311
1.75891
1.81385
1.8679
1.92106
1.97329
2.0246
2.07496
2.12437
2.1728
2.22026
2.26673
2.3122
2.35667
2.40013
2.44258
2.48401
2.52442
2.56381
2.60219
2.63955
2.6759
2.71123
2.74556
2.77889
2.81122
2.84257
2.87294
2.90234
2.93079
2.95828
2.98484
3.01047
3.03519
3.05901
3.08195
3.10401
3.12522
3.14559
3.16513
3.18386
3.20179
3.21895
3.23535
3.251
3.26592
3.28013
3.29364
3.30647
3.31864
3.33015
3.34104
3.3513
3.36096
3.37004
3.37853
3.38647
3.39386
3.40071
3.40705
3.41286
3.41818
3.42301
3.42736
3.43123
3.43464
3.43759
3.44009
3.44213
3.44365
3.44528
3.44975
3.4238
3.46813
289.615
-103.459
13.1754
2.49917
0.0232176
0.278955
0.451556
0.530038
0.597403
0.665796
0.734456
0.802794
0.870688
0.938105
1.00501
1.07138
1.13717
1.20235
1.26689
1.33076
1.39393
1.45637
1.51805
1.57896
1.63906
1.69833
1.75675
1.8143
1.87096
1.92671
1.98154
2.03541
2.08833
2.14027
2.19122
2.24117
2.29011
2.33804
2.38493
2.43079
2.4756
2.51937
2.5621
2.60377
2.64439
2.68396
2.72248
2.75996
2.79639
2.83178
2.86615
2.89948
2.9318
2.96311
2.99342
3.02274
3.05109
3.07846
3.10488
3.13037
3.15492
3.17856
3.2013
3.22316
3.24415
3.26429
3.2836
3.30208
3.31976
3.33666
3.35279
3.36816
3.3828
3.39672
3.40994
3.42248
3.43435
3.44556
3.45613
3.46609
3.47544
3.48419
3.49237
3.49998
3.50704
3.51356
3.51956
3.52504
3.53001
3.53449
3.53848
3.54199
3.54504
3.54762
3.54972
3.5513
3.55296
3.55702
3.53258
3.57566
289.616
-103.456
13.1807
2.5066
0.0327697
0.29062
0.465327
0.545907
0.615362
0.685834
0.756562
0.826955
0.896892
0.966337
1.03526
1.10362
1.17139
1.23853
1.30501
1.3708
1.43586
1.50018
1.56371
1.62645
1.68835
1.7494
1.80958
1.86885
1.92721
1.98463
2.0411
2.09658
2.15108
2.20458
2.25705
2.3085
2.3589
2.40825
2.45654
2.50377
2.54992
2.59499
2.63898
2.6819
2.72372
2.76447
2.80413
2.84272
2.88023
2.91667
2.95205
2.98637
3.01965
3.05188
3.08308
3.11327
3.14245
3.17063
3.19782
3.22405
3.24933
3.27366
3.29707
3.31956
3.34117
3.3619
3.38176
3.40078
3.41898
3.43637
3.45296
3.46879
3.48385
3.49817
3.51178
3.52467
3.53688
3.54842
3.5593
3.56954
3.57916
3.58816
3.59657
3.60441
3.61167
3.61838
3.62455
3.63019
3.6353
3.63991
3.64402
3.64763
3.65077
3.65342
3.65558
3.65723
3.65891
3.6626
3.63955
3.68148
289.617
-103.453
13.186
2.51392
0.0421734
0.302104
0.478884
0.561529
0.633041
0.705559
0.778323
0.85074
0.922687
0.994128
1.06503
1.13536
1.20507
1.27414
1.34253
1.4102
1.47714
1.5433
1.60866
1.67319
1.73687
1.79967
1.86157
1.92255
1.98257
2.04164
2.09972
2.15679
2.21285
2.26787
2.32184
2.37475
2.42659
2.47735
2.52702
2.57558
2.62305
2.6694
2.71465
2.75878
2.80179
2.84369
2.88448
2.92416
2.96273
3.0002
3.03658
3.07187
3.10608
3.13922
3.1713
3.20233
3.23233
3.2613
3.28926
3.31622
3.3422
3.36721
3.39127
3.4144
3.4366
3.45791
3.47832
3.49787
3.51658
3.53444
3.5515
3.56776
3.58324
3.59796
3.61193
3.62518
3.63773
3.64958
3.66076
3.67128
3.68116
3.69042
3.69906
3.7071
3.71457
3.72146
3.7278
3.73359
3.73885
3.74358
3.7478
3.75152
3.75474
3.75747
3.75969
3.76141
3.76311
3.76646
3.74467
3.78558
289.618
-103.45
13.1911
2.52112
0.0514259
0.313402
0.492222
0.5769
0.650435
0.724967
0.799734
0.874142
0.948066
1.02147
1.09432
1.16658
1.23821
1.30918
1.37944
1.44898
1.51775
1.58572
1.65287
1.71918
1.7846
1.84912
1.91272
1.97536
2.03703
2.09771
2.15738
2.21601
2.2736
2.33013
2.38557
2.43993
2.49318
2.54532
2.59633
2.64622
2.69498
2.74259
2.78906
2.83439
2.87857
2.9216
2.96349
3.00424
3.04386
3.08234
3.1197
3.15594
3.19107
3.2251
3.25804
3.28991
3.3207
3.35045
3.37916
3.40684
3.43351
3.45919
3.48389
3.50763
3.53043
3.55229
3.57325
3.59332
3.61252
3.63086
3.64836
3.66505
3.68093
3.69604
3.71038
3.72398
3.73686
3.74902
3.76049
3.77129
3.78143
3.79092
3.79979
3.80805
3.8157
3.82278
3.82928
3.83522
3.84062
3.84548
3.84981
3.85362
3.85693
3.85973
3.86202
3.86379
3.86552
3.86857
3.84793
3.88791
289.619
-103.447
13.1962
2.5282
0.0605245
0.324513
0.505338
0.592014
0.667539
0.744051
0.820787
0.897152
0.973021
1.04836
1.12312
1.19728
1.27079
1.34362
1.41574
1.4871
1.55767
1.62743
1.69635
1.76439
1.83153
1.89775
1.96301
2.02729
2.09058
2.15284
2.21407
2.27424
2.33333
2.39133
2.44822
2.50399
2.55863
2.61213
2.66447
2.71566
2.76568
2.81453
2.86221
2.90871
2.95403
2.99818
3.04115
3.08296
3.12359
3.16307
3.20138
3.23856
3.27459
3.3095
3.34328
3.37596
3.40755
3.43806
3.4675
3.49589
3.52324
3.54957
3.5749
3.59924
3.62261
3.64503
3.66652
3.6871
3.70678
3.72558
3.74352
3.76063
3.77691
3.7924
3.8071
3.82104
3.83424
3.8467
3.85846
3.86953
3.87992
3.88965
3.89874
3.9072
3.91505
3.9223
3.92896
3.93505
3.94058
3.94556
3.95
3.95391
3.9573
3.96017
3.96253
3.96435
3.9661
3.9689
3.94928
3.98844
289.62
-103.444
13.2011
2.53516
0.0694669
0.335433
0.518229
0.606869
0.684349
0.762807
0.841478
0.919767
0.997546
1.07478
1.15143
1.22745
1.30282
1.37748
1.4514
1.52456
1.59691
1.66842
1.73907
1.80882
1.87765
1.94552
2.01242
2.07832
2.14319
2.20701
2.26977
2.33145
2.39201
2.45146
2.50977
2.56694
2.62294
2.67777
2.73142
2.78388
2.83514
2.8852
2.93406
2.98172
3.02816
3.0734
3.11744
3.16027
3.20191
3.24236
3.28162
3.31971
3.35663
3.39239
3.427
3.46049
3.49285
3.5241
3.55426
3.58334
3.61135
3.63832
3.66427
3.6892
3.71314
3.7361
3.75811
3.77918
3.79933
3.81858
3.83696
3.85448
3.87115
3.88701
3.90206
3.91633
3.92984
3.9426
3.95464
3.96597
3.97661
3.98657
3.99587
4.00454
4.01257
4.01999
4.02682
4.03305
4.03871
4.04381
4.04836
4.05237
4.05584
4.05878
4.06119
4.06307
4.06485
4.06741
4.04872
4.08714
289.621
-103.441
13.206
2.542
0.0782506
0.346159
0.530891
0.62146
0.70086
0.781229
0.861801
0.941979
1.02163
1.10073
1.17923
1.25709
1.33427
1.41073
1.48643
1.56135
1.63544
1.70868
1.78103
1.85246
1.92294
1.99244
2.06095
2.12843
2.19485
2.26021
2.32447
2.38762
2.44964
2.51051
2.57022
2.62875
2.68608
2.74222
2.79715
2.85086
2.90334
2.95459
3.00461
3.05339
3.10094
3.14725
3.19233
3.23618
3.2788
3.3202
3.36039
3.39937
3.43716
3.47376
3.50918
3.54345
3.57656
3.60855
3.63941
3.66916
3.69783
3.72543
3.75198
3.77748
3.80198
3.82547
3.84798
3.86954
3.89016
3.90985
3.92865
3.94656
3.96362
3.97984
3.99523
4.00983
4.02365
4.0367
4.04901
4.0606
4.07147
4.08166
4.09118
4.10004
4.10825
4.11584
4.12282
4.1292
4.13499
4.14021
4.14486
4.14895
4.1525
4.15551
4.15798
4.15992
4.16172
4.16409
4.14623
4.18399
289.622
-103.438
13.2108
2.54871
0.0868735
0.356688
0.543321
0.635783
0.717069
0.799314
0.881751
0.963783
1.04528
1.12621
1.20652
1.28617
1.36514
1.44337
1.52082
1.59747
1.67327
1.74819
1.82221
1.89528
1.96739
2.03849
2.10858
2.17761
2.24556
2.31242
2.37816
2.44276
2.5062
2.56846
2.62953
2.6894
2.74805
2.80547
2.86165
2.91658
2.97026
3.02268
3.07383
3.12373
3.17235
3.21971
3.26581
3.31065
3.35423
3.39657
3.43766
3.47752
3.51616
3.55358
3.5898
3.62483
3.65869
3.69138
3.72293
3.75335
3.78266
3.81087
3.838
3.86408
3.88911
3.91312
3.93613
3.95816
3.97923
3.99936
4.01856
4.03687
4.0543