/*--------------------------------*- C++ -*----------------------------------*\
  =========                 |
  \\      /  F ield         | OpenFOAM: The Open Source CFD Toolbox
   \\    /   O peration     | Website:  https://openfoam.org
    \\  /    A nd           | Version:  10
     \\/     M anipulation  |
\*---------------------------------------------------------------------------*/
FoamFile
{
    format      ascii;
    class       volScalarField;
    location    "28.5";
    object      T;
}
// * * * * * * * * * * * * * * * * * * * * * * * * * * * * * * * * * * * * * //

dimensions      [0 0 0 1 0 0 0];

internalField   nonuniform List<scalar> 
10000
(
374.984
361.285
356.602
354.547
353.432
352.727
352.234
351.867
351.579
351.345
351.149
350.981
350.835
350.706
350.59
350.484
350.388
350.299
350.216
350.138
350.065
349.996
349.93
349.867
349.807
349.75
349.694
349.641
349.59
349.54
349.492
349.445
349.399
349.355
349.312
349.27
349.23
349.19
349.151
349.113
349.076
349.04
349.005
348.971
348.937
348.904
348.872
348.841
348.81
348.78
348.751
348.723
348.695
348.668
348.641
348.616
348.59
348.566
348.542
348.519
348.496
348.474
348.453
348.432
348.412
348.392
348.373
348.355
348.337
348.32
348.304
348.288
348.272
348.257
348.243
348.229
348.216
348.204
348.192
348.181
348.17
348.159
348.15
348.141
348.132
348.124
348.117
348.11
348.103
348.098
348.092
348.088
348.084
348.08
348.077
348.075
348.073
348.071
348.071
348.07
388.609
374.84
367.174
362.702
359.882
357.965
356.577
355.519
354.68
353.993
353.416
352.92
352.487
352.102
351.757
351.443
351.155
350.888
350.64
350.408
350.189
349.982
349.785
349.597
349.418
349.246
349.08
348.92
348.766
348.616
348.472
348.332
348.195
348.063
347.934
347.809
347.686
347.567
347.451
347.337
347.227
347.118
347.013
346.91
346.809
346.711
346.614
346.521
346.429
346.339
346.252
346.166
346.083
346.002
345.922
345.845
345.77
345.696
345.625
345.555
345.487
345.421
345.357
345.295
345.234
345.176
345.119
345.064
345.011
344.959
344.909
344.862
344.815
344.771
344.728
344.687
344.648
344.61
344.574
344.54
344.508
344.477
344.448
344.421
344.395
344.371
344.349
344.328
344.309
344.292
344.276
344.262
344.25
344.239
344.23
344.223
344.217
344.213
344.21
344.21
393.222
382.292
374.556
369.204
365.431
362.676
360.59
358.954
357.631
356.534
355.603
354.799
354.092
353.462
352.894
352.377
351.902
351.462
351.052
350.667
350.304
349.96
349.634
349.322
349.024
348.737
348.462
348.196
347.94
347.691
347.451
347.217
346.991
346.77
346.556
346.347
346.143
345.945
345.751
345.562
345.378
345.198
345.022
344.85
344.682
344.518
344.358
344.202
344.049
343.9
343.754
343.612
343.473
343.338
343.206
343.077
342.951
342.829
342.709
342.593
342.48
342.37
342.264
342.16
342.059
341.962
341.867
341.775
341.686
341.601
341.518
341.438
341.361
341.287
341.216
341.147
341.082
341.019
340.96
340.903
340.849
340.798
340.749
340.704
340.661
340.621
340.584
340.549
340.518
340.489
340.463
340.439
340.419
340.401
340.386
340.374
340.364
340.357
340.353
340.352
395.205
386.551
379.552
374.13
369.961
366.72
364.153
362.076
360.358
358.909
357.666
356.58
355.62
354.76
353.982
353.271
352.615
352.007
351.439
350.905
350.402
349.924
349.47
349.036
348.62
348.221
347.837
347.466
347.108
346.762
346.426
346.1
345.783
345.475
345.175
344.883
344.599
344.321
344.051
343.786
343.529
343.277
343.031
342.791
342.556
342.327
342.103
341.884
341.67
341.461
341.258
341.059
340.864
340.675
340.49
340.31
340.134
339.963
339.796
339.633
339.475
339.322
339.172
339.027
338.886
338.749
338.617
338.489
338.364
338.244
338.129
338.017
337.909
337.805
337.706
337.61
337.519
337.431
337.348
337.268
337.192
337.121
337.053
336.989
336.929
336.873
336.821
336.773
336.729
336.688
336.652
336.619
336.59
336.566
336.545
336.527
336.514
336.504
336.499
336.497
396.25
389.158
382.971
377.802
373.562
370.091
367.229
364.839
362.817
361.082
359.571
358.239
357.051
355.98
355.005
354.111
353.285
352.515
351.795
351.117
350.476
349.868
349.289
348.735
348.204
347.693
347.202
346.728
346.269
345.825
345.395
344.977
344.571
344.176
343.792
343.417
343.052
342.696
342.349
342.01
341.679
341.356
341.04
340.731
340.43
340.136
339.848
339.567
339.293
339.024
338.763
338.507
338.258
338.014
337.777
337.545
337.319
337.099
336.885
336.676
336.473
336.275
336.084
335.897
335.716
335.54
335.37
335.205
335.046
334.892
334.743
334.599
334.461
334.328
334.2
334.077
333.959
333.847
333.739
333.637
333.54
333.448
333.361
333.279
333.202
333.13
333.063
333.001
332.944
332.892
332.845
332.803
332.766
332.734
332.707
332.685
332.668
332.656
332.649
332.646
396.884
390.863
385.371
380.547
376.396
372.855
369.832
367.237
364.992
363.031
361.299
359.756
358.367
357.106
355.951
354.887
353.9
352.978
352.112
351.296
350.523
349.788
349.086
348.415
347.771
347.152
346.555
345.979
345.421
344.881
344.358
343.849
343.354
342.873
342.405
341.948
341.503
341.069
340.646
340.232
339.828
339.434
339.049
338.673
338.305
337.946
337.595
337.252
336.917
336.589
336.27
335.958
335.653
335.356
335.066
334.783
334.508
334.239
333.977
333.722
333.474
333.233
332.999
332.771
332.55
332.336
332.128
331.926
331.732
331.543
331.361
331.186
331.017
330.854
330.698
330.548
330.404
330.267
330.136
330.011
329.892
329.78
329.673
329.573
329.479
329.391
329.31
329.234
329.165
329.101
329.044
328.993
328.948
328.909
328.876
328.849
328.828
328.813
328.804
328.801
397.306
392.039
387.104
382.619
378.623
375.101
372.008
369.288
366.886
364.752
362.842
361.121
359.558
358.128
356.811
355.591
354.453
353.388
352.385
351.436
350.536
349.678
348.859
348.074
347.32
346.594
345.894
345.217
344.563
343.928
343.312
342.714
342.132
341.565
341.014
340.476
339.952
339.44
338.941
338.453
337.977
337.512
337.058
336.614
336.181
335.757
335.343
334.938
334.543
334.157
333.78
333.411
333.052
332.701
332.359
332.025
331.7
331.383
331.074
330.773
330.48
330.195
329.919
329.65
329.389
329.136
328.89
328.653
328.423
328.2
327.986
327.778
327.579
327.387
327.202
327.025
326.856
326.693
326.538
326.391
326.251
326.118
325.992
325.874
325.763
325.66
325.563
325.474
325.392
325.317
325.249
325.189
325.135
325.089
325.05
325.018
324.994
324.976
324.966
324.962
397.603
392.885
388.387
384.202
380.378
376.92
373.812
371.022
368.514
366.251
364.2
362.331
360.619
359.041
357.578
356.215
354.94
353.74
352.608
351.534
350.512
349.537
348.604
347.709
346.848
346.018
345.217
344.442
343.692
342.964
342.257
341.57
340.902
340.251
339.618
339
338.397
337.809
337.234
336.674
336.126
335.591
335.068
334.557
334.058
333.57
333.093
332.627
332.172
331.727
331.293
330.869
330.454
330.05
329.656
329.271
328.896
328.531
328.175
327.828
327.491
327.163
326.844
326.534
326.234
325.942
325.659
325.385
325.12
324.864
324.616
324.378
324.148
323.926
323.713
323.509
323.314
323.127
322.948
322.778
322.617
322.464
322.319
322.183
322.055
321.935
321.824
321.721
321.626
321.54
321.462
321.392
321.331
321.278
321.233
321.196
321.168
321.147
321.135
321.131
397.82
393.512
389.357
385.428
381.767
378.392
375.3
372.477
369.899
367.542
365.38
363.39
361.55
359.842
358.25
356.758
355.356
354.032
352.778
351.585
350.448
349.361
348.318
347.317
346.352
345.421
344.522
343.651
342.807
341.988
341.192
340.418
339.665
338.931
338.216
337.519
336.838
336.174
335.526
334.892
334.274
333.669
333.078
332.5
331.936
331.384
330.845
330.318
329.803
329.301
328.809
328.329
327.861
327.404
326.958
326.523
326.098
325.685
325.282
324.89
324.508
324.137
323.776
323.425
323.085
322.755
322.435
322.125
321.825
321.535
321.254
320.984
320.724
320.473
320.232
320.001
319.78
319.568
319.366
319.174
318.991
318.818
318.654
318.5
318.355
318.219
318.093
317.977
317.87
317.772
317.684
317.605
317.535
317.475
317.424
317.383
317.35
317.327
317.314
317.309
397.984
393.989
390.104
386.385
382.871
379.582
376.524
373.689
371.067
368.64
366.391
364.301
362.354
360.534
358.826
357.218
355.7
354.261
352.893
351.589
350.342
349.148
348
346.896
345.831
344.802
343.807
342.843
341.907
340.999
340.116
339.256
338.42
337.604
336.809
336.033
335.276
334.537
333.815
333.11
332.421
331.747
331.089
330.445
329.816
329.201
328.6
328.013
327.439
326.878
326.33
325.795
325.272
324.763
324.265
323.78
323.306
322.845
322.396
321.958
321.532
321.118
320.715
320.324
319.944
319.575
319.218
318.872
318.537
318.214
317.901
317.599
317.309
317.029
316.76
316.503
316.255
316.019
315.794
315.579
315.375
315.181
314.998
314.826
314.664
314.513
314.373
314.243
314.123
314.014
313.916
313.828
313.75
313.683
313.626
313.579
313.543
313.518
313.503
313.498
398.11
394.356
390.685
387.139
383.752
380.545
377.525
374.693
372.044
369.566
367.248
365.076
363.037
361.118
359.308
357.596
355.971
354.426
352.952
351.543
350.193
348.896
347.649
346.446
345.284
344.161
343.072
342.017
340.992
339.997
339.028
338.085
337.166
336.27
335.396
334.543
333.71
332.897
332.102
331.326
330.567
329.825
329.1
328.391
327.698
327.02
326.358
325.711
325.078
324.459
323.855
323.265
322.689
322.127
321.578
321.043
320.521
320.012
319.516
319.033
318.564
318.106
317.662
317.23
316.811
316.405
316.011
315.629
315.259
314.902
314.557
314.224
313.904
313.595
313.298
313.014
312.741
312.48
312.231
311.994
311.769
311.555
311.354
311.164
310.985
310.818
310.663
310.52
310.388
310.268
310.159
310.062
309.976
309.902
309.839
309.788
309.748
309.719
309.703
309.697
398.208
394.642
391.141
387.736
384.457
381.322
378.341
375.518
372.852
370.336
367.963
365.723
363.605
361.601
359.699
357.892
356.171
354.527
352.955
351.448
349.999
348.606
347.262
345.965
344.71
343.495
342.317
341.173
340.061
338.98
337.928
336.902
335.903
334.928
333.976
333.047
332.14
331.254
330.388
329.541
328.713
327.904
327.113
326.339
325.582
324.842
324.119
323.412
322.721
322.046
321.386
320.742
320.112
319.498
318.898
318.313
317.743
317.186
316.645
316.117
315.603
315.104
314.618
314.146
313.688
313.244
312.813
312.395
311.991
311.601
311.224
310.86
310.509
310.172
309.847
309.536
309.238
308.953
308.681
308.421
308.175
307.941
307.721
307.513
307.318
307.135
306.966
306.809
306.665
306.533
306.414
306.308
306.214
306.133
306.064
306.008
305.965
305.934
305.915
305.909
398.284
394.867
391.5
388.21
385.02
381.947
379.003
376.191
373.514
370.969
368.55
366.252
364.067
361.987
360.004
358.111
356.301
354.566
352.902
351.302
349.762
348.276
346.841
345.453
344.108
342.805
341.539
340.309
339.113
337.949
336.815
335.709
334.631
333.578
332.55
331.547
330.566
329.608
328.671
327.755
326.859
325.983
325.126
324.288
323.469
322.668
321.884
321.118
320.369
319.638
318.922
318.224
317.542
316.875
316.225
315.591
314.972
314.369
313.782
313.21
312.653
312.111
311.584
311.072
310.575
310.093
309.625
309.173
308.734
308.311
307.902
307.507
307.126
306.76
306.408
306.071
305.747
305.438
305.142
304.861
304.594
304.34
304.101
303.875
303.664
303.466
303.282
303.111
302.955
302.812
302.683
302.567
302.466
302.378
302.303
302.242
302.195
302.161
302.141
302.135
398.344
395.044
391.784
388.585
385.469
382.448
379.535
376.734
374.05
371.48
369.024
366.675
364.431
362.283
360.227
358.255
356.364
354.545
352.795
351.108
349.48
347.907
346.385
344.91
343.479
342.09
340.74
339.427
338.149
336.903
335.689
334.505
333.349
332.22
331.118
330.041
328.988
327.959
326.952
325.968
325.005
324.063
323.142
322.24
321.359
320.497
319.654
318.829
318.023
317.235
316.465
315.713
314.978
314.261
313.561
312.877
312.211
311.561
310.928
310.312
309.712
309.128
308.56
308.009
307.473
306.954
306.45
305.962
305.489
305.033
304.592
304.166
303.756
303.362
302.982
302.618
302.269
301.936
301.618
301.314
301.026
300.753
300.495
300.252
300.023
299.81
299.612
299.428
299.259
299.105
298.966
298.842
298.732
298.637
298.557
298.491
298.44
298.404
298.383
298.376
398.391
395.183
392.007
388.882
385.823
382.845
379.957
377.166
374.475
371.884
369.395
367.002
364.704
362.496
360.373
358.33
356.363
354.466
352.636
350.867
349.156
347.5
345.894
344.336
342.822
341.351
339.919
338.525
337.167
335.843
334.551
333.29
332.058
330.855
329.679
328.53
327.406
326.307
325.232
324.18
323.151
322.144
321.159
320.195
319.252
318.33
317.428
316.545
315.683
314.839
314.015
313.21
312.423
311.655
310.905
310.173
309.459
308.763
308.085
307.425
306.782
306.156
305.548
304.957
304.383
303.826
303.287
302.764
302.257
301.768
301.295
300.839
300.4
299.977
299.57
299.18
298.806
298.449
298.107
297.782
297.473
297.181
296.904
296.643
296.399
296.17
295.957
295.76
295.58
295.414
295.265
295.132
295.014
294.912
294.826
294.756
294.702
294.663
294.64
294.632
398.428
395.291
392.181
389.113
386.1
383.156
380.287
377.502
374.804
372.195
369.675
367.242
364.896
362.632
360.448
358.339
356.302
354.332
352.426
350.58
348.791
347.055
345.369
343.731
342.138
340.587
339.077
337.605
336.169
334.768
333.4
332.064
330.758
329.482
328.234
327.014
325.82
324.653
323.51
322.392
321.297
320.227
319.179
318.153
317.149
316.167
315.207
314.267
313.349
312.45
311.572
310.714
309.876
309.057
308.258
307.478
306.718
305.976
305.253
304.549
303.864
303.197
302.548
301.918
301.306
300.712
300.137
299.579
299.039
298.517
298.013
297.527
297.058
296.607
296.173
295.757
295.358
294.977
294.613
294.266
293.937
293.624
293.329
293.051
292.79
292.546
292.319
292.109
291.916
291.74
291.581
291.439
291.313
291.205
291.113
291.038
290.98
290.938
290.914
290.906
398.456
395.374
392.315
389.291
386.313
383.394
380.539
377.757
375.05
372.422
369.874
367.405
365.014
362.699
360.457
358.287
356.184
354.145
352.168
350.249
348.386
346.574
344.813
343.098
341.428
339.801
338.214
336.665
335.154
333.678
332.236
330.827
329.449
328.102
326.783
325.494
324.232
322.996
321.787
320.604
319.445
318.311
317.201
316.114
315.051
314.01
312.992
311.996
311.021
310.069
309.137
308.227
307.338
306.47
305.622
304.794
303.987
303.2
302.433
301.685
300.958
300.25
299.561
298.892
298.243
297.612
297.001
296.409
295.836
295.282
294.746
294.23
293.732
293.253
292.792
292.35
291.927
291.522
291.135
290.767
290.417
290.085
289.772
289.477
289.199
288.94
288.699
288.476
288.271
288.084
287.915
287.764
287.631
287.515
287.418
287.338
287.276
287.232
287.206
287.197
398.478
395.437
392.416
389.424
386.472
383.57
380.724
377.941
375.224
372.577
370.001
367.497
365.064
362.701
360.407
358.178
356.014
353.91
351.866
349.877
347.943
346.059
344.224
342.436
340.692
338.991
337.33
335.708
334.124
332.575
331.061
329.58
328.132
326.714
325.327
323.969
322.64
321.338
320.064
318.816
317.594
316.398
315.226
314.079
312.957
311.858
310.783
309.731
308.702
307.695
306.712
305.75
304.81
303.892
302.996
302.121
301.268
300.436
299.625
298.834
298.065
297.317
296.589
295.881
295.194
294.527
293.881
293.254
292.648
292.062
291.496
290.949
290.423
289.916
289.429
288.961
288.513
288.084
287.675
287.286
286.915
286.564
286.233
285.92
285.627
285.353
285.098
284.862
284.645
284.447
284.268
284.108
283.967
283.845
283.741
283.657
283.592
283.545
283.517
283.508
398.493
395.482
392.488
389.52
386.585
383.694
380.851
378.064
375.335
372.668
370.065
367.527
365.054
362.646
360.301
358.018
355.795
353.63
351.521
349.467
347.464
345.511
343.606
341.747
339.932
338.159
336.427
334.733
333.078
331.458
329.874
328.323
326.806
325.32
323.865
322.44
321.045
319.678
318.34
317.029
315.745
314.487
313.255
312.049
310.868
309.712
308.581
307.474
306.39
305.331
304.295
303.282
302.293
301.326
300.382
299.46
298.561
297.685
296.83
295.997
295.187
294.398
293.631
292.885
292.161
291.458
290.776
290.116
289.477
288.859
288.262
287.686
287.131
286.596
286.083
285.59
285.117
284.665
284.234
283.823
283.433
283.063
282.713
282.383
282.074
281.785
281.516
281.267
281.038
280.829
280.641
280.472
280.323
280.194
280.086
279.997
279.928
279.879
279.849
279.84
398.504
395.513
392.538
389.584
386.66
383.773
380.929
378.134
375.391
372.703
370.073
367.502
364.99
362.538
360.145
357.809
355.53
353.307
351.137
349.019
346.952
344.932
342.96
341.032
339.148
337.306
335.505
333.742
332.017
330.329
328.676
327.058
325.472
323.92
322.399
320.908
319.448
318.018
316.616
315.243
313.898
312.58
311.288
310.024
308.786
307.573
306.386
305.224
304.088
302.976
301.888
300.825
299.786
298.771
297.78
296.812
295.868
294.947
294.049
293.175
292.323
291.494
290.688
289.905
289.144
288.405
287.689
286.995
286.324
285.674
285.047
284.441
283.858
283.296
282.756
282.238
281.741
281.266
280.813
280.381
279.97
279.581
279.213
278.867
278.542
278.238
277.955
277.693
277.453
277.233
277.035
276.857
276.701
276.566
276.451
276.358
276.285
276.233
276.203
276.193
398.51
395.532
392.567
389.621
386.701
383.814
380.964
378.158
375.398
372.688
370.031
367.427
364.877
362.383
359.943
357.557
355.225
352.945
350.717
348.538
346.408
344.325
342.287
340.294
338.343
336.434
334.565
332.735
330.943
329.188
327.468
325.783
324.132
322.514
320.928
319.374
317.85
316.357
314.893
313.459
312.053
310.676
309.326
308.004
306.709
305.441
304.199
302.984
301.795
300.631
299.493
298.38
297.292
296.229
295.191
294.178
293.189
292.224
291.284
290.367
289.475
288.607
287.762
286.941
286.144
285.37
284.619
283.892
283.188
282.508
281.85
281.215
280.604
280.015
279.449
278.906
278.385
277.887
277.412
276.959
276.529
276.121
275.735
275.372
275.031
274.712
274.416
274.141
273.889
273.659
273.451
273.265
273.101
272.959
272.839
272.741
272.665
272.611
272.578
272.568
398.513
395.54
392.579
389.635
386.714
383.821
380.962
378.142
375.364
372.63
369.944
367.307
364.72
362.184
359.699
357.265
354.881
352.547
350.262
348.025
345.835
343.69
341.589
339.532
337.517
335.543
333.609
331.714
329.856
328.036
326.251
324.501
322.785
321.103
319.454
317.837
316.251
314.696
313.172
311.677
310.213
308.777
307.37
305.991
304.64
303.317
302.021
300.753
299.511
298.296
297.108
295.946
294.81
293.7
292.616
291.557
290.524
289.516
288.533
287.576
286.644
285.736
284.853
283.995
283.162
282.353
281.569
280.808
280.073
279.361
278.673
278.01
277.37
276.755
276.163
275.595
275.051
274.53
274.033
273.559
273.109
272.683
272.279
271.9
271.543
271.21
270.9
270.613
270.349
270.108
269.891
269.696
269.525
269.376
269.251
269.148
269.068
269.012
268.978
268.967
398.513
395.54
392.577
389.629
386.702
383.8
380.928
378.091
375.292
372.534
369.819
367.148
364.524
361.948
359.419
356.937
354.503
352.117
349.777
347.483
345.234
343.03
340.869
338.75
336.672
334.635
332.638
330.679
328.758
326.873
325.025
323.212
321.433
319.688
317.977
316.298
314.651
313.036
311.452
309.899
308.376
306.882
305.419
303.984
302.578
301.201
299.852
298.532
297.239
295.973
294.735
293.525
292.341
291.184
290.055
288.951
287.874
286.824
285.8
284.802
283.829
282.883
281.963
281.068
280.199
279.355
278.537
277.744
276.977
276.235
275.517
274.825
274.158
273.516
272.899
272.306
271.738
271.195
270.676
270.182
269.713
269.268
268.847
268.451
268.079
267.731
267.407
267.108
266.833
266.581
266.354
266.151
265.972
265.817
265.686
265.579
265.496
265.437
265.402
265.39
398.51
395.532
392.562
389.606
386.668
383.754
380.866
378.01
375.188
372.403
369.658
366.954
364.293
361.676
359.104
356.577
354.094
351.656
349.263
346.915
344.609
342.347
340.127
337.948
335.81
333.711
331.652
329.631
327.648
325.701
323.791
321.916
320.076
318.27
316.498
314.759
313.052
311.378
309.735
308.124
306.544
304.994
303.474
301.985
300.525
299.094
297.693
296.321
294.977
293.662
292.375
291.117
289.886
288.684
287.509
286.361
285.241
284.149
283.083
282.045
281.033
280.049
279.091
278.16
277.256
276.378
275.526
274.701
273.902
273.13
272.383
271.663
270.968
270.3
269.657
269.04
268.449
267.883
267.344
266.829
266.34
265.877
265.439
265.026
264.639
264.277
263.94
263.628
263.341
263.08
262.843
262.632
262.446
262.284
262.148
262.036
261.95
261.888
261.852
261.839
398.506
395.517
392.537
389.569
386.617
383.686
380.78
377.902
375.055
372.243
369.467
366.729
364.031
361.374
358.759
356.186
353.656
351.169
348.724
346.322
343.961
341.643
339.365
337.128
334.931
332.773
330.654
328.573
326.529
324.522
322.551
320.615
318.715
316.849
315.017
313.219
311.454
309.721
308.021
306.353
304.717
303.111
301.537
299.993
298.48
296.997
295.545
294.121
292.728
291.364
290.029
288.723
287.446
286.198
284.978
283.787
282.625
281.49
280.384
279.306
278.256
277.234
276.239
275.272
274.333
273.421
272.537
271.679
270.85
270.047
269.271
268.523
267.802
267.107
266.439
265.798
265.184
264.596
264.035
263.501
262.993
262.511
262.056
261.627
261.225
260.848
260.498
260.174
259.876
259.605
259.359
259.139
258.945
258.778
258.636
258.52
258.43
258.366
258.328
258.315
398.499
395.496
392.502
389.518
386.549
383.599
380.672
377.77
374.897
372.056
369.248
366.476
363.741
361.044
358.387
355.77
353.193
350.657
348.161
345.707
343.293
340.92
338.586
336.292
334.038
331.822
329.644
327.504
325.401
323.334
321.304
319.31
317.351
315.426
313.536
311.68
309.857
308.068
306.311
304.587
302.896
301.236
299.608
298.011
296.445
294.911
293.407
291.934
290.491
289.079
287.696
286.344
285.021
283.728
282.465
281.231
280.026
278.851
277.704
276.587
275.498
274.438
273.407
272.405
271.431
270.486
269.569
268.68
267.82
266.987
266.183
265.407
264.659
263.938
263.246
262.581
261.944
261.334
260.753
260.198
259.671
259.172
258.699
258.255
257.837
257.447
257.083
256.747
256.438
256.156
255.901
255.673
255.472
255.298
255.151
255.031
254.938
254.871
254.832
254.819
398.49
395.471
392.459
389.456
386.467
383.496
380.545
377.618
374.717
371.846
369.006
366.198
363.426
360.69
357.99
355.329
352.706
350.122
347.578
345.072
342.606
340.179
337.791
335.442
333.131
330.859
328.624
326.426
324.265
322.141
320.053
318.001
315.984
314.002
312.055
310.142
308.263
306.418
304.606
302.827
301.081
299.368
297.687
296.038
294.421
292.835
291.281
289.759
288.268
286.808
285.379
283.98
282.612
281.275
279.969
278.692
277.446
276.23
275.043
273.887
272.761
271.664
270.597
269.56
268.552
267.573
266.624
265.704
264.813
263.952
263.119
262.316
261.541
260.795
260.078
259.39
258.73
258.099
257.496
256.922
256.376
255.859
255.37
254.909
254.477
254.072
253.696
253.348
253.028
252.736
252.472
252.236
252.028
251.848
251.695
251.571
251.474
251.405
251.364
251.351
398.481
395.441
392.408
389.385
386.373
383.378
380.402
377.448
374.518
371.615
368.742
365.899
363.089
360.313
357.572
354.867
352.199
349.568
346.975
344.419
341.902
339.423
336.982
334.579
332.213
329.885
327.594
325.341
323.124
320.943
318.798
316.69
314.616
312.578
310.575
308.607
306.672
304.772
302.906
301.073
299.274
297.508
295.775
294.074
292.407
290.771
289.168
287.598
286.059
284.552
283.076
281.633
280.22
278.84
277.49
276.172
274.885
273.628
272.403
271.208
270.045
268.911
267.809
266.737
265.695
264.684
263.703
262.752
261.831
260.941
260.08
259.249
258.449
257.678
256.936
256.225
255.542
254.89
254.267
253.673
253.109
252.574
252.069
251.592
251.145
250.727
250.338
249.978
249.647
249.345
249.072
248.828
248.612
248.426
248.268
248.14
248.04
247.968
247.926
247.912
398.469
395.408
392.352
389.305
386.269
383.248
380.245
377.262
374.302
371.367
368.459
365.58
362.733
359.917
357.135
354.386
351.673
348.996
346.355
343.751
341.184
338.653
336.16
333.704
331.285
328.903
326.557
324.249
321.977
319.741
317.541
315.377
313.248
311.155
309.097
307.074
305.086
303.132
301.212
299.327
297.475
295.657
293.873
292.122
290.404
288.72
287.069
285.45
283.864
282.311
280.79
279.302
277.846
276.422
275.03
273.671
272.343
271.047
269.783
268.551
267.35
266.181
265.044
263.937
262.862
261.819
260.806
259.825
258.875
257.955
257.067
256.21
255.383
254.587
253.822
253.087
252.383
251.709
251.066
250.453
249.871
249.318
248.796
248.304
247.843
247.411
247.009
246.637
246.296
245.984
245.702
245.45
245.227
245.035
244.872
244.739
244.636
244.562
244.518
244.504
398.457
395.371
392.29
389.217
386.155
383.107
380.075
377.062
374.07
371.102
368.16
365.245
362.359
359.504
356.68
353.889
351.132
348.409
345.721
343.068
340.452
337.871
335.327
332.819
330.347
327.912
325.514
323.151
320.825
318.535
316.281
314.063
311.881
309.734
307.622
305.545
303.504
301.497
299.525
297.588
295.685
293.816
291.982
290.181
288.414
286.682
284.983
283.317
281.685
280.086
278.521
276.988
275.489
274.023
272.59
271.19
269.822
268.487
267.185
265.916
264.679
263.474
262.302
261.162
260.054
258.978
257.935
256.924
255.944
254.997
254.081
253.197
252.345
251.524
250.735
249.978
249.252
248.557
247.894
247.262
246.661
246.092
245.554
245.046
244.57
244.125
243.711
243.327
242.975
242.653
242.363
242.103
241.873
241.675
241.507
241.37
241.263
241.187
241.142
241.127
398.444
395.331
392.224
389.124
386.033
382.956
379.894
376.85
373.826
370.824
367.846
364.894
361.97
359.075
356.21
353.377
350.576
347.808
345.073
342.374
339.709
337.079
334.484
331.926
329.403
326.916
324.465
322.05
319.671
317.328
315.021
312.75
310.514
308.314
306.15
304.021
301.928
299.869
297.846
295.858
293.904
291.986
290.102
288.252
286.438
284.657
282.911
281.199
279.522
277.878
276.269
274.693
273.152
271.644
270.17
268.729
267.323
265.949
264.61
263.303
262.03
260.791
259.584
258.411
257.271
256.164
255.09
254.049
253.04
252.065
251.122
250.212
249.335
248.49
247.677
246.897
246.15
245.435
244.752
244.101
243.483
242.896
242.342
241.819
241.329
240.87
240.444
240.049
239.686
239.355
239.055
238.788
238.551
238.347
238.174
238.033
237.923
237.845
237.798
237.783
398.43
395.289
392.153
389.024
385.905
382.797
379.704
376.627
373.57
370.533
367.52
364.531
361.568
358.634
355.728
352.852
350.007
347.195
344.415
341.668
338.956
336.277
333.634
331.025
328.452
325.914
323.412
320.946
318.515
316.12
313.761
311.438
309.151
306.899
304.683
302.502
300.358
298.249
296.175
294.137
292.134
290.166
288.234
286.336
284.474
282.647
280.855
279.098
277.375
275.688
274.035
272.417
270.834
269.285
267.77
266.29
264.845
263.434
262.057
260.715
259.406
258.132
256.892
255.686
254.514
253.376
252.271
251.201
250.164
249.161
248.192
247.256
246.354
245.485
244.649
243.847
243.078
242.343
241.64
240.971
240.335
239.732
239.161
238.624
238.12
237.648
237.209
236.803
236.43
236.089
235.781
235.505
235.262
235.052
234.874
234.729
234.616
234.535
234.487
234.471
398.415
395.245
392.079
388.92
385.77
382.631
379.505
376.396
373.304
370.232
367.183
364.156
361.155
358.181
355.234
352.316
349.428
346.571
343.746
340.954
338.194
335.468
332.777
330.119
327.497
324.909
322.357
319.84
317.358
314.913
312.503
310.128
307.79
305.487
303.221
300.99
298.795
296.636
294.513
292.426
290.374
288.359
286.378
284.434
282.525
280.652
278.815
277.013
275.247
273.516
271.82
270.16
268.536
266.946
265.392
263.874
262.39
260.942
259.528
258.15
256.807
255.499
254.225
252.987
251.783
250.615
249.481
248.381
247.316
246.286
245.29
244.329
243.402
242.51
241.652
240.828
240.038
239.282
238.56
237.873
237.219
236.599
236.013
235.461
234.943
234.458
234.007
233.59
233.206
232.856
232.54
232.257
232.007
231.791
231.608
231.458
231.342
231.26
231.21
231.194
398.4
395.199
392.002
388.812
385.629
382.458
379.3
376.156
373.03
369.923
366.836
363.772
360.732
357.718
354.73
351.771
348.84
345.939
343.07
340.232
337.426
334.653
331.914
329.209
326.537
323.901
321.299
318.733
316.202
313.706
311.246
308.822
306.434
304.081
301.765
299.485
297.241
295.033
292.861
290.726
288.627
286.564
284.537
282.546
280.592
278.674
276.792
274.946
273.136
271.363
269.625
267.924
266.259
264.63
263.037
261.48
259.958
258.473
257.024
255.611
254.233
252.891
251.585
250.315
249.08
247.881
246.718
245.59
244.498
243.441
242.419
241.433
240.482
239.566
238.685
237.839
237.029
236.253
235.513
234.807
234.136
233.5
232.899
232.332
231.8
231.302
230.84
230.411
230.017
229.658
229.333
229.042
228.786
228.564
228.376
228.223
228.104
228.019
227.968
227.951
398.384
395.151
391.923
388.7
385.485
382.28
379.088
375.91
372.748
369.605
366.481
363.38
360.301
357.247
354.218
351.217
348.244
345.3
342.386
339.504
336.652
333.833
331.047
328.295
325.576
322.891
320.241
317.626
315.046
312.502
309.993
307.52
305.082
302.681
300.316
297.988
295.695
293.44
291.22
289.038
286.891
284.782
282.709
280.673
278.674
276.711
274.786
272.897
271.044
269.229
267.45
265.709
264.003
262.335
260.704
259.109
257.551
256.03
254.545
253.097
251.686
250.311
248.973
247.671
246.406
245.177
243.985
242.829
241.709
240.625
239.578
238.567
237.592
236.653
235.75
234.883
234.052
233.257
232.498
231.774
231.087
230.434
229.818
229.237
228.691
228.181
227.706
227.267
226.863
226.495
226.161
225.863
225.601
225.373
225.18
225.023
224.901
224.814
224.762
224.744
398.368
395.102
391.841
388.585
385.336
382.098
378.871
375.658
372.461
369.281
366.12
362.98
359.862
356.768
353.7
350.657
347.642
344.655
341.698
338.771
335.875
333.01
330.178
327.379
324.613
321.881
319.184
316.521
313.893
311.301
308.744
306.223
303.737
301.288
298.876
296.499
294.16
291.857
289.591
287.362
285.169
283.014
280.897
278.816
276.772
274.766
272.798
270.866
268.972
267.116
265.296
263.515
261.77
260.064
258.394
256.763
255.168
253.611
252.092
250.61
249.165
247.758
246.388
245.055
243.76
242.502
241.281
240.097
238.951
237.841
236.769
235.733
234.735
233.773
232.848
231.961
231.109
230.295
229.517
228.776
228.071
227.403
226.772
226.176
225.618
225.095
224.609
224.159
223.745
223.367
223.026
222.72
222.451
222.218
222.021
221.86
221.734
221.645
221.592
221.574
398.351
395.052
391.757
388.467
385.185
381.912
378.65
375.401
372.168
368.951
365.753
362.575
359.418
356.285
353.175
350.092
347.035
344.006
341.005
338.034
335.094
332.184
329.307
326.462
323.65
320.872
318.128
315.418
312.744
310.104
307.5
304.931
302.399
299.903
297.443
295.02
292.634
290.285
287.973
285.699
283.461
281.262
279.1
276.975
274.888
272.839
270.828
268.855
266.92
265.023
263.164
261.343
259.56
257.816
256.109
254.441
252.811
251.219
249.665
248.15
246.672
245.233
243.832
242.468
241.143
239.857
238.608
237.397
236.224
235.088
233.991
232.932
231.91
230.926
229.98
229.071
228.2
227.367
226.571
225.812
225.091
224.407
223.761
223.152
222.58
222.045
221.547
221.087
220.663
220.277
219.927
219.614
219.339
219.1
218.898
218.733
218.605
218.513
218.459
218.441
398.334
395.001
391.672
388.348
385.03
381.722
378.425
375.141
371.871
368.617
365.381
362.165
358.969
355.796
352.647
349.522
346.424
343.352