/*--------------------------------*- C++ -*----------------------------------*\
  =========                 |
  \\      /  F ield         | OpenFOAM: The Open Source CFD Toolbox
   \\    /   O peration     | Website:  https://openfoam.org
    \\  /    A nd           | Version:  10
     \\/     M anipulation  |
\*---------------------------------------------------------------------------*/
FoamFile
{
    format      ascii;
    class       volScalarField;
    location    "28.5";
    object      T_0;
}
// * * * * * * * * * * * * * * * * * * * * * * * * * * * * * * * * * * * * * //

dimensions      [0 0 0 1 0 0 0];

internalField   nonuniform List<scalar> 
10000
(
374.98
361.284
356.601
354.546
353.43
352.725
352.233
351.865
351.577
351.343
351.147
350.98
350.834
350.704
350.588
350.483
350.386
350.297
350.214
350.136
350.063
349.994
349.928
349.866
349.806
349.748
349.693
349.639
349.588
349.538
349.49
349.443
349.398
349.353
349.31
349.269
349.228
349.188
349.149
349.111
349.074
349.038
349.003
348.969
348.935
348.902
348.87
348.839
348.808
348.778
348.749
348.721
348.693
348.666
348.639
348.614
348.589
348.564
348.54
348.517
348.494
348.472
348.451
348.43
348.41
348.39
348.372
348.353
348.335
348.318
348.302
348.286
348.27
348.255
348.241
348.228
348.214
348.202
348.19
348.179
348.168
348.158
348.148
348.139
348.13
348.122
348.115
348.108
348.101
348.096
348.09
348.086
348.082
348.078
348.075
348.073
348.071
348.069
348.069
348.068
388.608
374.84
367.175
362.702
359.882
357.965
356.577
355.519
354.68
353.993
353.416
352.92
352.487
352.102
351.756
351.442
351.154
350.888
350.64
350.408
350.189
349.982
349.785
349.597
349.417
349.245
349.079
348.919
348.765
348.616
348.471
348.331
348.195
348.062
347.933
347.808
347.685
347.566
347.45
347.336
347.226
347.117
347.012
346.909
346.808
346.709
346.613
346.519
346.428
346.338
346.251
346.165
346.082
346.001
345.921
345.844
345.768
345.695
345.623
345.554
345.486
345.42
345.356
345.293
345.233
345.174
345.117
345.062
345.009
344.958
344.908
344.86
344.814
344.769
344.727
344.686
344.646
344.609
344.573
344.539
344.506
344.476
344.447
344.419
344.393
344.369
344.347
344.326
344.307
344.29
344.275
344.261
344.248
344.237
344.228
344.221
344.215
344.211
344.209
344.208
393.22
382.292
374.555
369.204
365.43
362.676
360.59
358.953
357.631
356.534
355.603
354.798
354.091
353.461
352.893
352.376
351.901
351.461
351.05
350.665
350.303
349.959
349.632
349.321
349.022
348.736
348.46
348.195
347.938
347.69
347.449
347.216
346.989
346.768
346.554
346.345
346.141
345.943
345.749
345.56
345.376
345.195
345.02
344.848
344.68
344.516
344.356
344.199
344.047
343.897
343.752
343.609
343.47
343.335
343.203
343.074
342.948
342.826
342.706
342.59
342.477
342.367
342.261
342.157
342.056
341.958
341.864
341.772
341.683
341.598
341.515
341.435
341.358
341.284
341.213
341.144
341.079
341.016
340.956
340.9
340.846
340.794
340.746
340.7
340.657
340.617
340.58
340.546
340.514
340.485
340.459
340.436
340.415
340.398
340.383
340.37
340.361
340.354
340.35
340.349
395.204
386.552
379.552
374.129
369.96
366.72
364.153
362.075
360.357
358.909
357.665
356.579
355.619
354.759
353.981
353.269
352.614
352.006
351.437
350.904
350.4
349.922
349.468
349.034
348.618
348.219
347.834
347.464
347.106
346.759
346.423
346.097
345.78
345.472
345.172
344.88
344.596
344.318
344.047
343.783
343.525
343.273
343.027
342.787
342.552
342.323
342.099
341.88
341.666
341.458
341.254
341.055
340.861
340.671
340.486
340.306
340.13
339.959
339.792
339.629
339.471
339.317
339.168
339.023
338.882
338.745
338.613
338.484
338.36
338.24
338.124
338.012
337.905
337.801
337.701
337.606
337.514
337.427
337.343
337.263
337.188
337.116
337.048
336.984
336.925
336.869
336.817
336.768
336.724
336.684
336.647
336.615
336.586
336.561
336.54
336.523
336.509
336.5
336.494
336.492
396.248
389.159
382.97
377.802
373.562
370.091
367.228
364.838
362.816
361.08
359.569
358.237
357.049
355.978
355.004
354.109
353.283
352.513
351.793
351.115
350.474
349.866
349.286
348.732
348.201
347.691
347.199
346.725
346.266
345.822
345.392
344.974
344.568
344.173
343.788
343.414
343.048
342.692
342.345
342.006
341.675
341.351
341.035
340.727
340.426
340.131
339.843
339.562
339.288
339.02
338.758
338.502
338.253
338.009
337.772
337.54
337.314
337.094
336.88
336.671
336.468
336.27
336.078
335.892
335.711
335.535
335.365
335.2
335.04
334.886
334.737
334.593
334.455
334.322
334.194
334.071
333.953
333.841
333.733
333.631
333.534
333.442
333.355
333.273
333.196
333.124
333.057
332.995
332.938
332.886
332.839
332.797
332.76
332.728
332.701
332.679
332.662
332.65
332.643
332.64
396.883
390.863
385.37
380.546
376.396
372.854
369.831
367.236
364.991
363.029
361.298
359.754
358.365
357.104
355.949
354.885
353.897
352.975
352.11
351.293
350.52
349.785
349.083
348.412
347.768
347.149
346.552
345.975
345.418
344.877
344.353
343.845
343.35
342.869
342.4
341.944
341.499
341.064
340.641
340.227
339.823
339.429
339.044
338.667
338.299
337.94
337.589
337.246
336.911
336.584
336.264
335.952
335.647
335.35
335.06
334.777
334.501
334.233
333.971
333.716
333.468
333.227
332.992
332.764
332.543
332.329
332.121
331.92
331.725
331.536
331.355
331.179
331.01
330.847
330.691
330.541
330.397
330.26
330.129
330.004
329.885
329.772
329.666
329.566
329.472
329.384
329.302
329.227
329.157
329.094
329.037
328.985
328.94
328.901
328.868
328.841
328.82
328.805
328.796
328.794
397.304
392.039
387.103
382.618
378.622
375.1
372.006
369.286
366.884
364.75
362.84
361.119
359.555
358.125
356.808
355.588
354.45
353.385
352.381
351.433
350.532
349.675
348.855
348.07
347.316
346.59
345.89
345.213
344.558
343.923
343.307
342.709
342.127
341.56
341.008
340.471
339.946
339.434
338.935
338.448
337.971
337.506
337.052
336.608
336.174
335.75
335.336
334.931
334.536
334.15
333.773
333.404
333.045
332.694
332.352
332.018
331.692
331.375
331.066
330.765
330.472
330.188
329.911
329.642
329.381
329.128
328.882
328.645
328.415
328.192
327.977
327.77
327.571
327.379
327.194
327.017
326.847
326.685
326.53
326.382
326.242
326.109
325.984
325.866
325.755
325.651
325.554
325.465
325.383
325.308
325.241
325.18
325.127
325.081
325.042
325.01
324.985
324.967
324.957
324.953
397.601
392.885
388.386
384.202
380.377
376.919
373.811
371.02
368.512
366.249
364.198
362.329
360.616
359.038
357.575
356.212
354.937
353.737
352.604
351.53
350.508
349.533
348.6
347.704
346.843
346.013
345.212
344.437
343.686
342.958
342.252
341.565
340.896
340.245
339.611
338.993
338.39
337.802
337.228
336.667
336.119
335.584
335.061
334.55
334.05
333.562
333.085
332.619
332.164
331.719
331.285
330.86
330.446
330.042
329.648
329.263
328.888
328.522
328.166
327.82
327.482
327.154
326.835
326.525
326.224
325.933
325.65
325.376
325.111
324.854
324.607
324.368
324.138
323.917
323.704
323.5
323.304
323.117
322.938
322.768
322.607
322.454
322.309
322.173
322.045
321.925
321.814
321.711
321.617
321.53
321.452
321.382
321.321
321.268
321.223
321.186
321.158
321.137
321.125
321.121
397.819
393.512
389.357
385.427
381.766
378.391
375.299
372.475
369.897
367.54
365.377
363.387
361.547
359.839
358.247
356.755
355.352
354.028
352.774
351.581
350.444
349.356
348.314
347.312
346.347
345.416
344.516
343.645
342.801
341.982
341.186
340.412
339.658
338.924
338.209
337.512
336.831
336.167
335.518
334.885
334.266
333.661
333.07
332.492
331.928
331.376
330.836
330.31
329.795
329.291
328.8
328.32
327.852
327.394
326.948
326.513
326.089
325.675
325.272
324.88
324.498
324.127
323.766
323.415
323.075
322.744
322.424
322.114
321.814
321.524
321.244
320.974
320.713
320.462
320.222
319.99
319.769
319.557
319.355
319.163
318.98
318.806
318.643
318.488
318.344
318.208
318.082
317.966
317.859
317.761
317.673
317.594
317.524
317.464
317.413
317.371
317.339
317.316
317.302
317.298
397.983
393.989
390.103
386.384
382.87
379.581
376.522
373.688
371.065
368.638
366.389
364.299
362.351
360.53
358.822
357.215
355.696
354.257
352.888
351.584
350.337
349.143
347.995
346.891
345.825
344.796
343.801
342.836
341.901
340.992
340.109
339.249
338.412
337.597
336.801
336.025
335.268
334.529
333.807
333.101
332.412
331.738
331.08
330.436
329.807
329.192
328.59
328.003
327.429
326.868
326.32
325.785
325.262
324.752
324.254
323.769
323.295
322.834
322.385
321.947
321.521
321.106
320.704
320.312
319.932
319.564
319.207
318.86
318.526
318.202
317.889
317.588
317.297
317.017
316.748
316.49
316.243
316.007
315.781
315.566
315.362
315.169
314.986
314.814
314.652
314.501
314.36
314.23
314.111
314.002
313.903
313.815
313.737
313.67
313.613
313.567
313.531
313.505
313.49
313.485
398.108
394.356
390.684
387.138
383.751
380.543
377.523
374.691
372.041
369.563
367.245
365.073
363.034
361.115
359.304
357.591
355.967
354.421
352.947
351.538
350.188
348.891
347.643
346.44
345.278
344.154
343.066
342.01
340.985
339.989
339.02
338.077
337.157
336.261
335.387
334.534
333.701
332.888
332.093
331.316
330.557
329.815
329.09
328.381
327.688
327.01
326.347
325.7
325.067
324.448
323.844
323.254
322.678
322.115
321.566
321.031
320.509
320
319.504
319.021
318.551
318.094
317.65
317.218
316.799
316.392
315.998
315.616
315.246
314.889
314.544
314.211
313.89
313.582
313.285
313
312.728
312.467
312.218
311.981
311.755
311.542
311.34
311.15
310.971
310.805
310.649
310.506
310.374
310.254
310.145
310.048
309.962
309.888
309.825
309.774
309.734
309.706
309.689
309.683
398.206
394.642
391.14
387.735
384.456
381.32
378.339
375.516
372.85
370.333
367.96
365.719
363.601
361.597
359.695
357.888
356.166
354.522
352.95
351.442
349.994
348.6
347.256
345.958
344.703
343.488
342.309
341.165
340.053
338.972
337.919
336.894
335.894
334.919
333.967
333.038
332.13
331.244
330.377
329.53
328.703
327.893
327.102
326.328
325.571
324.831
324.108
323.4
322.709
322.034
321.374
320.729
320.1
319.485
318.885
318.3
317.729
317.173
316.631
316.104
315.59
315.09
314.604
314.132
313.674
313.23
312.799
312.381
311.977
311.587
311.209
310.845
310.495
310.157
309.833
309.521
309.223
308.938
308.666
308.406
308.16
307.926
307.706
307.498
307.303
307.12
306.951
306.794
306.65
306.518
306.399
306.293
306.199
306.118
306.049
305.993
305.949
305.918
305.9
305.894
398.283
394.867
391.499
388.209
385.019
381.946
379.001
376.189
373.512
370.966
368.547
366.249
364.063
361.982
359.999
358.106
356.295
354.561
352.896
351.296
349.755
348.269
346.834
345.445
344.101
342.797
341.531
340.301
339.105
337.94
336.806
335.7
334.621
333.568
332.54
331.536
330.555
329.597
328.66
327.743
326.847
325.971
325.114
324.276
323.457
322.655
321.872
321.105
320.356
319.624
318.909
318.21
317.528
316.862
316.211
315.577
314.958
314.355
313.767
313.195
312.638
312.096
311.569
311.057
310.56
310.078
309.61
309.157
308.719
308.295
307.886
307.491
307.111
306.744
306.392
306.055
305.731
305.422
305.126
304.845
304.577
304.324
304.085
303.859
303.647
303.449
303.265
303.095
302.938
302.796
302.666
302.551
302.449
302.361
302.287
302.226
302.179
302.145
302.125
302.118
398.343
395.044
391.783
388.584
385.467
382.446
379.532
376.732
374.047
371.477
369.02
366.671
364.426
362.278
360.222
358.25
356.358
354.539
352.789
351.102
349.473
347.9
346.377
344.902
343.471
342.082
340.731
339.418
338.139
336.894
335.679
334.495
333.339
332.21
331.107
330.03
328.977
327.947
326.94
325.955
324.992
324.05
323.129
322.227
321.346
320.483
319.64
318.815
318.009
317.221
316.451
315.698
314.964
314.246
313.546
312.862
312.196
311.546
310.913
310.296
309.696
309.112
308.544
307.993
307.457
306.937
306.433
305.945
305.473
305.016
304.575
304.149
303.739
303.345
302.965
302.601
302.252
301.919
301.6
301.297
301.009
300.736
300.477
300.234
300.006
299.793
299.594
299.41
299.242
299.088
298.948
298.824
298.714
298.619
298.539
298.473
298.423
298.386
298.365
298.358
398.39
395.183
392.006
388.88
385.822
382.843
379.955
377.163
374.471
371.881
369.391
366.998
364.7
362.491
360.367
358.324
356.357
354.46
352.629
350.86
349.149
347.492
345.886
344.327
342.813
341.342
339.91
338.516
337.157
335.832
334.54
333.279
332.047
330.844
329.668
328.518
327.394
326.294
325.219
324.167
323.138
322.131
321.145
320.181
319.238
318.315
317.413
316.531
315.668
314.824
314
313.194
312.407
311.639
310.889
310.157
309.443
308.747
308.069
307.408
306.765
306.139
305.531
304.94
304.366
303.809
303.269
302.746
302.24
301.75
301.277
300.821
300.382
299.959
299.552
299.162
298.788
298.43
298.089
297.764
297.455
297.162
296.885
296.625
296.38
296.151
295.938
295.742
295.561
295.396
295.246
295.113
294.995
294.893
294.807
294.737
294.682
294.644
294.62
294.613
398.426
395.291
392.18
389.111
386.099
383.153
380.285
377.499
374.801
372.191
369.67
367.238
364.891
362.627
360.442
358.333
356.295
354.325
352.419
350.572
348.783
347.047
345.361
343.722
342.129
340.578
339.067
337.594
336.158
334.757
333.388
332.052
330.746
329.47
328.222
327.001
325.807
324.639
323.496
322.378
321.283
320.212
319.164
318.138
317.134
316.152
315.191
314.252
313.333
312.434
311.556
310.697
309.859
309.04
308.241
307.461
306.7
305.958
305.235
304.531
303.845
303.178
302.53
301.9
301.288
300.694
300.118
299.56
299.02
298.498
297.994
297.508
297.039
296.588
296.154
295.738
295.339
294.957
294.593
294.246
293.917
293.605
293.309
293.031
292.77
292.526
292.299
292.089
291.896
291.72
291.561
291.419
291.293
291.184
291.093
291.018
290.959
290.918
290.893
290.885
398.455
395.374
392.314
389.289
386.311
383.391
380.536
377.753
375.047
372.418
369.869
367.4
365.008
362.693
360.451
358.28
356.177
354.138
352.161
350.241
348.377
346.565
344.803
343.088
341.418
339.79
338.203
336.654
335.143
333.667
332.224
330.815
329.436
328.089
326.77
325.48
324.218
322.982
321.773
320.589
319.43
318.296
317.185
316.098
315.035
313.994
312.975
311.979
311.004
310.052
309.12
308.21
307.32
306.452
305.603
304.776
303.968
303.181
302.414
301.666
300.939
300.23
299.542
298.873
298.223
297.593
296.981
296.389
295.816
295.261
294.726
294.209
293.712
293.232
292.772
292.33
291.906
291.501
291.114
290.746
290.396
290.064
289.751
289.455
289.178
288.919
288.678
288.455
288.25
288.063
287.893
287.742
287.609
287.494
287.396
287.316
287.254
287.21
287.184
287.176
398.476
395.437
392.414
389.422
386.47
383.567
380.721
377.937
375.22
372.573
369.997
367.492
365.059
362.695
360.4
358.171
356.006
353.903
351.858
349.869
347.934
346.05
344.215
342.426
340.682
338.98
337.319
335.696
334.112
332.563
331.048
329.567
328.118
326.7
325.313
323.955
322.625
321.323
320.048
318.8
317.578
316.381
315.21
314.063
312.94
311.841
310.765
309.713
308.684
307.677
306.693
305.731
304.791
303.873
302.977
302.102
301.248
300.416
299.605
298.814
298.045
297.296
296.568
295.86
295.173
294.506
293.86
293.233
292.627
292.041
291.474
290.928
290.401
289.894
289.407
288.939
288.491
288.062
287.653
287.263
286.893
286.542
286.21
285.898
285.604
285.33
285.075
284.839
284.622
284.424
284.245
284.085
283.944
283.822
283.719
283.634
283.569
283.522
283.495
283.485
398.491
395.482
392.487
389.518
386.583
383.691
380.848
378.06
375.331
372.664
370.06
367.522
365.049
362.64
360.294
358.01
355.787
353.622
351.513
349.458
347.455
345.501
343.596
341.736
339.921
338.148
336.415
334.721
333.065
331.445
329.861
328.31
326.792
325.305
323.85
322.425
321.03
319.663
318.324
317.012
315.728
314.47
313.238
312.032
310.85
309.694
308.562
307.455
306.372
305.312
304.276
303.263
302.273
301.306
300.362
299.44
298.541
297.664
296.809
295.976
295.165
294.376
293.609
292.863
292.139
291.436
290.754
290.094
289.455
288.837
288.239
287.663
287.108
286.573
286.06
285.567
285.094
284.642
284.211
283.8
283.409
283.039
282.689
282.36
282.05
281.761
281.492
281.243
281.014
280.806
280.617
280.448
280.299
280.17
280.062
279.973
279.904
279.854
279.825
279.816
398.502
395.513
392.536
389.582
386.657
383.77
380.926
378.13
375.386
372.698
370.068
367.496
364.984
362.531
360.137
357.802
355.522
353.298
351.128
349.01
346.942
344.922
342.949
341.021
339.137
337.294
335.492
333.729
332.004
330.315
328.662
327.043
325.458
323.905
322.383
320.893
319.432
318.001
316.599
315.226
313.88
312.562
311.27
310.005
308.767
307.554
306.367
305.205
304.068
302.956
301.868
300.805
299.765
298.75
297.759
296.791
295.846
294.925
294.027
293.153
292.301
291.472
290.665
289.882
289.121
288.382
287.666
286.972
286.3
285.65
285.023
284.417
283.834
283.272
282.732
282.213
281.717
281.242
280.788
280.356
279.946
279.556
279.189
278.842
278.517
278.213
277.93
277.668
277.428
277.208
277.01
276.832
276.676
276.54
276.426
276.332
276.26
276.208
276.177
276.167
398.508
395.532
392.566
389.619
386.699
383.811
380.961
378.154
375.394
372.684
370.025
367.421
364.871
362.376
359.935
357.549
355.216
352.936
350.707
348.528
346.397
344.314
342.276
340.282
338.331
336.421
334.552
332.722
330.929
329.174
327.453
325.768
324.117
322.498
320.912
319.357
317.833
316.34
314.876
313.441
312.035
310.657
309.307
307.985
306.69
305.421
304.179
302.963
301.774
300.61
299.471
298.358
297.27
296.207
295.169
294.155
293.166
292.201
291.261
290.344
289.452
288.583
287.738
286.917
286.12
285.346
284.595
283.868
283.164
282.483
281.825
281.19
280.579
279.99
279.424
278.88
278.36
277.862
277.386
276.933
276.503
276.095
275.709
275.346
275.005
274.686
274.39
274.115
273.863
273.633
273.425
273.239
273.075
272.933
272.813
272.715
272.638
272.584
272.552
272.541
398.511
395.54
392.578
389.633
386.711
383.818
380.959
378.138
375.359
372.625
369.939
367.301
364.714
362.177
359.692
357.257
354.873
352.538
350.252
348.015
345.824
343.678
341.578
339.52
337.505
335.53
333.596
331.7
329.842
328.021
326.235
324.485
322.769
321.087
319.437
317.819
316.233
314.678
313.153
311.659
310.193
308.757
307.35
305.971
304.619
303.296
302
300.731
299.489
298.274
297.086
295.923
294.787
293.677
292.592
291.533
290.5
289.492
288.509
287.552
286.619
285.711
284.829
283.97
283.137
282.328
281.543
280.783
280.047
279.335
278.647
277.984
277.344
276.728
276.136
275.568
275.024
274.503
274.006
273.532
273.082
272.656
272.252
271.872
271.516
271.182
270.872
270.585
270.321
270.081
269.863
269.669
269.497
269.348
269.223
269.12
269.041
268.984
268.95
268.939
398.511
395.54
392.576
389.627
386.699
383.797
380.925
378.087
375.287
372.528
369.813
367.142
364.517
361.94
359.41
356.929
354.494
352.107
349.767
347.472
345.223
343.018
340.856
338.737
336.659
334.622
332.624
330.664
328.742
326.858
325.009
323.195
321.416
319.671
317.959
316.28
314.633
313.017
311.433
309.879
308.356
306.862
305.398
303.963
302.557
301.179
299.83
298.509
297.216
295.95
294.712
293.501
292.317
291.16
290.03
288.927
287.85
286.799
285.775
284.776
283.804
282.857
281.937
281.042
280.173
279.329
278.511
277.718
276.95
276.208
275.49
274.798
274.131
273.488
272.871
272.278
271.71
271.167
270.648
270.154
269.685
269.239
268.819
268.422
268.05
267.702
267.379
267.079
266.804
266.553
266.326
266.123
265.944
265.789
265.658
265.551
265.468
265.408
265.373
265.362
398.509
395.531
392.561
389.604
386.666
383.75
380.862
378.005
375.183
372.398
369.652
366.948
364.286
361.669
359.096
356.567
354.084
351.646
349.253
346.903
344.598
342.335
340.114
337.935
335.796
333.697
331.637
329.616
327.632
325.685
323.774
321.899
320.058
318.252
316.479
314.74
313.033
311.358
309.715
308.103
306.523
304.973
303.453
301.963
300.503
299.072
297.67
296.298
294.954
293.638
292.351
291.092
289.862
288.659
287.483
286.336
285.215
284.123
283.057
282.018
281.007
280.022
279.064
278.133
277.228
276.35
275.499
274.673
273.874
273.102
272.355
271.634
270.94
270.271
269.628
269.011
268.42
267.854
267.314
266.8
266.311
265.848
265.409
264.997
264.609
264.247
263.91
263.598
263.312
263.05
262.814
262.602
262.416
262.254
262.118
262.006
261.92
261.858
261.822
261.809
398.504
395.516
392.535
389.566
386.614
383.682
380.776
377.897
375.05
372.237
369.46
366.722
364.024
361.366
358.75
356.177
353.646
351.158
348.713
346.31
343.949
341.63
339.352
337.114
334.917
332.758
330.639
328.557
326.512
324.505
322.533
320.597
318.697
316.83
314.998
313.199
311.434
309.701
308
306.332
304.695
303.089
301.515
299.971
298.457
296.974
295.521
294.097
292.703
291.339
290.004
288.698
287.42
286.172
284.952
283.761
282.598
281.464
280.357
279.279
278.228
277.206
276.211
275.244
274.304
273.392
272.508
271.651
270.821
270.018
269.242
268.494
267.772
267.077
266.409
265.768
265.154
264.566
264.005
263.47
262.962
262.481
262.025
261.597
261.194
260.818
260.467
260.143
259.845
259.574
259.328
259.108
258.914
258.747
258.605
258.489
258.399
258.335
258.297
258.284
398.497
395.496
392.5
389.516
386.546
383.596
380.668
377.765
374.892
372.05
369.242
366.469
363.733
361.036
358.378
355.76
353.182
350.646
348.15
345.695
343.28
340.906
338.572
336.278
334.023
331.806
329.628
327.487
325.384
323.317
321.286
319.291
317.332
315.407
313.516
311.66
309.837
308.047
306.29
304.565
302.873
301.213
299.584
297.987
296.421
294.887
293.382
291.909
290.466
289.053
287.67
286.318
284.995
283.701
282.438
281.203
279.998
278.823
277.676
276.558
275.47
274.41
273.378
272.376
271.402
270.456
269.539
268.65
267.79
266.957
266.153
265.376
264.628
263.908
263.215
262.55
261.913
261.303
260.721
260.167
259.64
259.14
258.668
258.223
257.805
257.415
257.051
256.715
256.406
256.124
255.869
255.641
255.44
255.266
255.119
254.999
254.906
254.839
254.799
254.786
398.489
395.47
392.457
389.454
386.464
383.492
380.541
377.613
374.712
371.84
368.999
366.191
363.418
360.681
357.981
355.319
352.695
350.111
347.566
345.06
342.593
340.165
337.777
335.427
333.116
330.843
328.607
326.409
324.248
322.123
320.035
317.982
315.965
313.982
312.035
310.121
308.242
306.396
304.584
302.804
301.058
299.344
297.663
296.013
294.396
292.81
291.256
289.733
288.242
286.781
285.352
283.953
282.585
281.247
279.94
278.664
277.417
276.201
275.014
273.858
272.731
271.634
270.567
269.529
268.521
267.543
266.593
265.673
264.782
263.92
263.088
262.284
261.509
260.763
260.046
259.357
258.698
258.066
257.464
256.889
256.344
255.826
255.337
254.876
254.444
254.039
253.663
253.315
252.995
252.703
252.439
252.203
251.995
251.814
251.662
251.537
251.441
251.372
251.331
251.317
398.479
395.441
392.407
389.382
386.37
383.374
380.398
377.443
374.512
371.609
368.735
365.891
363.081
360.304
357.562
354.857
352.188
349.556
346.963
344.407
341.889
339.409
336.967
334.563
332.197
329.869
327.577
325.323
323.105
320.924
318.779
316.67
314.596
312.558
310.554
308.585
306.65
304.75
302.883
301.05
299.25
297.484
295.75
294.049
292.381
290.745
289.142
287.571
286.032
284.524
283.048
281.604
280.192
278.811
277.461
276.142
274.855
273.598
272.373
271.178
270.014
268.881
267.778
266.706
265.664
264.652
263.671
262.72
261.799
260.908
260.048
259.217
258.416
257.645
256.903
256.191
255.509
254.857
254.233
253.64
253.075
252.54
252.035
251.558
251.111
250.693
250.304
249.944
249.613
249.311
249.038
248.793
248.578
248.392
248.234
248.105
248.005
247.934
247.892
247.878
398.468
395.407
392.35
389.302
386.266
383.244
380.24
377.256
374.296
371.36
368.452
365.572
362.724
359.908
357.124
354.376
351.662
348.984
346.343
343.738
341.17
338.639
336.145
333.688
331.268
328.886
326.54
324.231
321.958
319.721
317.521
315.356
313.227
311.134
309.075
307.052
305.063
303.108
301.188
299.302
297.45
295.632
293.847
292.096
290.378
288.693
287.041
285.422
283.836
282.282
280.761
279.273
277.816
276.392
275
273.641
272.313
271.017
269.752
268.52
267.319
266.149
265.012
263.905
262.83
261.786
260.774
259.792
258.842
257.922
257.034
256.176
255.349
254.553
253.788
253.053
252.349
251.675
251.031
250.418
249.836
249.283
248.761
248.269
247.807
247.376
246.974
246.602
246.26
245.948
245.666
245.414
245.192
244.999
244.837
244.704
244.6
244.527
244.483
244.468
398.455
395.37
392.288
389.215
386.152
383.103
380.07
377.056
374.064
371.095
368.152
365.237
362.35
359.494
356.67
353.878
351.12
348.396
345.708
343.055
340.437
337.856
335.311
332.803
330.331
327.895
325.496
323.133
320.806
318.515
316.261
314.042
311.859
309.711
307.599
305.522
303.48
301.473
299.501
297.563
295.659
293.79
291.955
290.154
288.387
286.654
284.954
283.289
281.656
280.057
278.491
276.959
275.459
273.993
272.559
271.159
269.791
268.456
267.153
265.883
264.646
263.441
262.269
261.129
260.021
258.945
257.901
256.89
255.91
254.962
254.046
253.162
252.31
251.489
250.7
249.942
249.216
248.522
247.858
247.226
246.626
246.056
245.518
245.01
244.534
244.089
243.675
243.291
242.939
242.617
242.326
242.066
241.837
241.638
241.47
241.333
241.227
241.151
241.105
241.091
398.442
395.33
392.222
389.121
386.03
382.952
379.889
376.844
373.819
370.817
367.838
364.886
361.961
359.065
356.2
353.366
350.564
347.795
345.06
342.36
339.694
337.063
334.468
331.909
329.385
326.898
324.446
322.031
319.651
317.308
315
312.728
310.492
308.292
306.127
303.997
301.903
299.844
297.821
295.832
293.878
291.959
290.074
288.225
286.41
284.629
282.882
281.17
279.492
277.848
276.238
274.663
273.121
271.612
270.138
268.697
267.29
265.917
264.577
263.27
261.997
260.757
259.55
258.377
257.237
256.129
255.055
254.014
253.005
252.03
251.087
250.176
249.299
248.454
247.641
246.861
246.114
245.398
244.715
244.064
243.446
242.859
242.305
241.782
241.292
240.833
240.407
240.012
239.649
239.317
239.018
238.75
238.514
238.309
238.136
237.995
237.885
237.807
237.76
237.745
398.428
395.288
392.151
389.021
385.901
382.793
379.699
376.621
373.563
370.526
367.512
364.522
361.559
358.623
355.717
352.84
349.995
347.182
344.401
341.654
338.94
336.261
333.617
331.008
328.434
325.896
323.393
320.926
318.495
316.099
313.74
311.416
309.128
306.876
304.659
302.478
300.333
298.223
296.149
294.11
292.107
290.139
288.206
286.308
284.445
282.618
280.825
279.068
277.345
275.657
274.004
272.385
270.802
269.252
267.738
266.258
264.812
263.4
262.023
260.68
259.372
258.097
256.857
255.651
254.479
253.34
252.236
251.165
250.128
249.125
248.155
247.219
246.317
245.448
244.612
243.81
243.041
242.305
241.603
240.933
240.297
239.694
239.123
238.586
238.081
237.61
237.171
236.765
236.391
236.05
235.742
235.467
235.224
235.013
234.835
234.69
234.577
234.497
234.449
234.433
398.413
395.244
392.077
388.917
385.766
382.626
379.5
376.39
373.297
370.225
367.174
364.147
361.146
358.17
355.223
352.304
349.416
346.558
343.732
340.939
338.179
335.452
332.76
330.102
327.478
324.89
322.337
319.819
317.337
314.891
312.48
310.106
307.767
305.464
303.196
300.965
298.77
296.61
294.487
292.399
290.347
288.33
286.35
284.405
282.496
280.622
278.785
276.982
275.215
273.484
271.788
270.128
268.503
266.913
265.359
263.84
262.356
260.907
259.494
258.115
256.772
255.463
254.19
252.951
251.747
250.578
249.444
248.344
247.279
246.249
245.253
244.292
243.365
242.472
241.613
240.789
239.999
239.244
238.522
237.834
237.18
236.56
235.974
235.422
234.904
234.419
233.968
233.551
233.167
232.817
232.5
232.217
231.967
231.751
231.568
231.419
231.303
231.22
231.171
231.154
398.398
395.198
392
388.809
385.626
382.454
379.294
376.15
373.023
369.915
366.828
363.763
360.722
357.707
354.719
351.758
348.827
345.926
343.055
340.217
337.41
334.637
331.897
329.19
326.519
323.881
321.279
318.712
316.18
313.684
311.223
308.799
306.41
304.057
301.74
299.459
297.215
295.006
292.834
290.698
288.598
286.535
284.507
282.516
280.561
278.643
276.76
274.914
273.104
271.33
269.592
267.891
266.225
264.596
263.002
261.445
259.924
258.438
256.989
255.575
254.197
252.855
251.549
250.278
249.043
247.844
246.68
245.552
244.46
243.402
242.381
241.394
240.443
239.527
238.646
237.8
236.99
236.214
235.473
234.767
234.096
233.46
232.859
232.292
231.76
231.262
230.799
230.371
229.977
229.618
229.292
229.002
228.745
228.523
228.336
228.182
228.063
227.978
227.928
227.911
398.382
395.15
391.92
388.697
385.481
382.276
379.082
375.904
372.741
369.597
366.473
363.37
360.291
357.236
354.207
351.205
348.231
345.286
342.372
339.488
336.636
333.816
331.03
328.276
325.557
322.871
320.221
317.605
315.024
312.479
309.97
307.496
305.058
302.656
300.291
297.961
295.669
293.412
291.192
289.009
286.862
284.752
282.679
280.643
278.643
276.68
274.754
272.864
271.012
269.196
267.417
265.675
263.969
262.3
260.669
259.074
257.515
255.994
254.509
253.06
251.649
250.274
248.935
247.633
246.368
245.139
243.946
242.79
241.67
240.586
239.539
238.528
237.553
236.613
235.71
234.843
234.012
233.217
232.458
231.734
231.046
230.394
229.777
229.196
228.65
228.14
227.665
227.226
226.822
226.453
226.12
225.822
225.559
225.331
225.139
224.981
224.859
224.772
224.72
224.703
398.366
395.101
391.839
388.582
385.333
382.093
378.866
375.652
372.453
369.273
366.111
362.97
359.852
356.757
353.688
350.644
347.628
344.641
341.683
338.755
335.858
332.993
330.16
327.36
324.594
321.861
319.163
316.499
313.871
311.278
308.72
306.198
303.712
301.263
298.849
296.472
294.132
291.829
289.562
287.332
285.14
282.984
280.866
278.785
276.741
274.734
272.765
270.833
268.939
267.082
265.262
263.48
261.735
260.028
258.358
256.726
255.132
253.574
252.055
250.572
249.127
247.72
246.349
245.017
243.721
242.463
241.241
240.058
238.911
237.801
236.728
235.693
234.694
233.732
232.808
231.92
231.068
230.254
229.476
228.734
228.03
227.362
226.73
226.134
225.576
225.053
224.567
224.117
223.703
223.325
222.983
222.678
222.409
222.175
221.978
221.817
221.692
221.602
221.549
221.531
398.349
395.051
391.755
388.464
385.181
381.907
378.644
375.395
372.16
368.943
365.744
362.565
359.407
356.273
353.163
350.079
347.021
343.991
340.989
338.018
335.077
332.167
329.289
326.443
323.63
320.851
318.107
315.396
312.721
310.08
307.475
304.906
302.373
299.877
297.416
294.993
292.606
290.257
287.944
285.669
283.431
281.231
279.068
276.943
274.856
272.806
270.795
268.821
266.886
264.988
263.129
261.308
259.524
257.779
256.073
254.404
252.773
251.181
249.627
248.111
246.633
245.194
243.792
242.429
241.104
239.817
238.567
237.356
236.183
235.048
233.95
232.891
231.869
230.885
229.938
229.029
228.158
227.325
226.529
225.77
225.049
224.365
223.718
223.109
222.537
222.002
221.504
221.044
220.62
220.233
219.884
219.571
219.295
219.057
218.855
218.69
218.561
218.47
218.415
218.397
398.332
395
391.67
388.345
385.027
381.718
378.419
375.134
371.863
368.609
365.372
362.155
358.958
355.784
352.634
349.509
346.41
343.337
340.293
337.279
334.294
331.339
328.417
325.526
322.668
319.844
317.053
314.296
311.575
308.888