/*--------------------------------*- C++ -*----------------------------------*\
  =========                 |
  \\      /  F ield         | OpenFOAM: The Open Source CFD Toolbox
   \\    /   O peration     | Website:  https://openfoam.org
    \\  /    A nd           | Version:  10
     \\/     M anipulation  |
\*---------------------------------------------------------------------------*/
FoamFile
{
    format      ascii;
    class       volScalarField;
    location    "18";
    object      ddt0(T);
}
// * * * * * * * * * * * * * * * * * * * * * * * * * * * * * * * * * * * * * //

dimensions      [0 0 -1 1 0 0 0];

internalField   nonuniform List<scalar> 
10000
(
2220.86
633.432
748.349
761.813
761.304
761.222
761.3
761.337
761.35
761.356
761.359
761.363
761.366
761.369
761.372
761.375
761.378
761.381
761.384
761.386
761.389
761.392
761.394
761.396
761.399
761.401
761.403
761.405
761.407
761.409
761.411
761.413
761.415
761.417
761.419
761.42
761.422
761.423
761.425
761.426
761.427
761.429
761.43
761.431
761.432
761.433
761.434
761.435
761.436
761.436
761.437
761.438
761.438
761.439
761.439
761.44
761.44
761.441
761.441
761.441
761.441
761.441
761.442
761.442
761.442
761.442
761.442
761.442
761.442
761.442
761.442
761.442
761.442
761.441
761.441
761.441
761.441
761.441
761.441
761.441
761.44
761.44
761.44
761.44
761.44
761.439
761.439
761.439
761.439
761.439
761.439
761.439
761.438
761.438
761.44
761.455
761.405
759.1
734.057
755.958
771.117
-464.443
-229.74
-213.846
-217.425
-218.152
-218.126
-218.083
-218.065
-218.055
-218.045
-218.036
-218.027
-218.018
-218.009
-218.001
-217.992
-217.984
-217.976
-217.968
-217.96
-217.953
-217.945
-217.938
-217.931
-217.924
-217.917
-217.911
-217.905
-217.898
-217.892
-217.887
-217.881
-217.876
-217.871
-217.866
-217.861
-217.856
-217.852
-217.848
-217.844
-217.84
-217.837
-217.833
-217.83
-217.827
-217.824
-217.822
-217.819
-217.817
-217.815
-217.813
-217.811
-217.81
-217.808
-217.807
-217.806
-217.805
-217.804
-217.803
-217.802
-217.802
-217.801
-217.801
-217.801
-217.8
-217.8
-217.8
-217.8
-217.801
-217.801
-217.801
-217.801
-217.802
-217.802
-217.802
-217.803
-217.803
-217.804
-217.804
-217.805
-217.806
-217.806
-217.807
-217.807
-217.808
-217.808
-217.809
-217.809
-217.81
-217.81
-217.81
-217.811
-217.811
-217.805
-217.751
-217.522
-217.927
-229.169
-206.356
859.424
-260.05
-12.2234
0.929728
-3.76801
-4.64481
-4.60847
-4.55227
-4.52661
-4.50966
-4.49418
-4.479
-4.46401
-4.44921
-4.43462
-4.42026
-4.40614
-4.39227
-4.37868
-4.36537
-4.35235
-4.33963
-4.32721
-4.31508
-4.30327
-4.29176
-4.28056
-4.26967
-4.25911
-4.24886
-4.23893
-4.22933
-4.22006
-4.21112
-4.20251
-4.19423
-4.18629
-4.17868
-4.17141
-4.16447
-4.15786
-4.15158
-4.14563
-4.14
-4.13468
-4.12968
-4.12499
-4.12061
-4.11652
-4.11272
-4.1092
-4.10596
-4.10299
-4.10028
-4.09783
-4.09561
-4.09364
-4.09188
-4.09035
-4.08903
-4.0879
-4.08696
-4.08621
-4.08562
-4.08519
-4.08491
-4.08478
-4.08478
-4.08489
-4.08512
-4.08546
-4.08588
-4.08639
-4.08698
-4.08763
-4.08834
-4.0891
-4.0899
-4.09073
-4.09159
-4.09246
-4.09334
-4.09423
-4.09511
-4.09598
-4.09683
-4.09766
-4.09847
-4.09923
-4.09996
-4.10066
-4.10138
-4.10243
-4.10464
-4.10622
-4.07295
-3.8422
-3.59938
-9.45891
0.599573
870.491
-245.689
-0.472012
11.1544
6.11402
5.21278
5.26245
5.32862
5.36143
5.38468
5.40624
5.42741
5.4483
5.46891
5.48923
5.50923
5.5289
5.54822
5.56717
5.58573
5.6039
5.62167
5.63903
5.65597
5.67249
5.68858
5.70424
5.71946
5.73425
5.74858
5.76247
5.77589
5.78886
5.80137
5.81341
5.82498
5.83608
5.84672
5.85689
5.86659
5.87582
5.8846
5.89292
5.90079
5.90821
5.9152
5.92175
5.92788
5.93359
5.9389
5.94381
5.94834
5.95249
5.95627
5.9597
5.96279
5.96555
5.968
5.97014
5.97199
5.97356
5.97486
5.97592
5.97674
5.97733
5.97771
5.9779
5.9779
5.97773
5.9774
5.97693
5.97633
5.97562
5.9748
5.97388
5.97289
5.97182
5.9707
5.96954
5.96834
5.96711
5.96587
5.96463
5.96339
5.96216
5.96096
5.95979
5.95866
5.95757
5.95654
5.95556
5.9546
5.95331
5.95003
5.94102
5.93671
6.06103
6.57724
5.65711
7.89636
870.066
-248.691
-4.53715
6.7512
1.6657
0.775484
0.836492
0.910525
0.949835
0.979216
1.00679
1.03391
1.06069
1.08712
1.11319
1.13886
1.16412
1.18892
1.21326
1.23711
1.26046
1.2833
1.30561
1.32738
1.34862
1.36931
1.38944
1.40901
1.42801
1.44643
1.46427
1.48152
1.49818
1.51425
1.52971
1.54457
1.55883
1.57249
1.58554
1.598
1.60986
1.62112
1.6318
1.6419
1.65143
1.6604
1.66881
1.67667
1.68401
1.69082
1.69712
1.70292
1.70825
1.7131
1.7175
1.72146
1.725
1.72814
1.73088
1.73325
1.73526
1.73693
1.73828
1.73932
1.74008
1.74056
1.74079
1.74079
1.74057
1.74014
1.73954
1.73876
1.73783
1.73677
1.73559
1.73431
1.73294
1.7315
1.73
1.72845
1.72687
1.72528
1.72368
1.72209
1.72051
1.71896
1.71746
1.716
1.7146
1.71327
1.71202
1.71089
1.70976
1.70753
1.69945
1.67792
1.67522
1.85516
1.96464
2.42712
870
-249.309
-5.29952
5.96388
0.889121
0.0107885
0.0802695
0.161066
0.206595
0.242038
0.275608
0.308657
0.341305
0.373537
0.405329
0.436647
0.467458
0.497729
0.527433
0.556547
0.585052
0.612932
0.640175
0.666767
0.6927
0.717962
0.742544
0.766437
0.789634
0.812125
0.833904
0.854963
0.875298
0.894903
0.913775
0.931911
0.949311
0.965973
0.981901
0.997096
1.01156
1.02531
1.03834
1.05066
1.06228
1.07321
1.08347
1.09306
1.102
1.11031
1.11799
1.12507
1.13155
1.13747
1.14283
1.14766
1.15197
1.15578
1.15912
1.162
1.16445
1.16648
1.16812
1.16938
1.1703
1.17088
1.17116
1.17114
1.17087
1.17034
1.16959
1.16864
1.1675
1.1662
1.16475
1.16318
1.1615
1.15974
1.1579
1.15601
1.15408
1.15212
1.15017
1.14822
1.14629
1.1444
1.14255
1.14077
1.13906
1.13742
1.13589
1.13451
1.13336
1.13226
1.129
1.11623
1.09112
1.10022
1.17018
1.32006
870.068
-249.284
-5.26663
6.0093
0.945654
0.0757567
0.152112
0.239192
0.290815
0.332274
0.371803
0.410754
0.449241
0.487243
0.524729
0.56166
0.597996
0.633699
0.668737
0.703083
0.736714
0.76961
0.801755
0.833135
0.863735
0.893545
0.922552
0.950745
0.978115
1.00465
1.03035
1.05519
1.07918
1.1023
1.12456
1.14595
1.16647
1.18612
1.20491
1.22283
1.23988
1.25609
1.27145
1.28597
1.29967
1.31256
1.32465
1.33596
1.34649
1.35628
1.36533
1.37367
1.38131
1.38828
1.39459
1.40027
1.40535
1.40984
1.41376
1.41715
1.42002
1.42241
1.42433
1.42581
1.42688
1.42755
1.42787
1.42784
1.4275
1.42687
1.42598
1.42484
1.42349
1.42195
1.42023
1.41837
1.41638
1.41429
1.41211
1.40987
1.40759
1.40528
1.40296
1.40065
1.39837
1.39613
1.39395
1.39184
1.38982
1.38788
1.38606
1.38437
1.38292
1.38188
1.38089
1.37685
1.36345
1.34293
1.34154
1.43241
870.1
-249.246
-5.21589
6.06972
1.01387
0.15072
0.233357
0.326542
0.384193
0.431629
0.477081
0.521899
0.566189
0.609925
0.65307
0.695578
0.737403
0.778504
0.818841
0.858385
0.897108
0.934988
0.972004
1.00814
1.04338
1.07771
1.11111
1.14357
1.17509
1.20564
1.23523
1.26383
1.29145
1.31807
1.34369
1.36831
1.39193
1.41455
1.43617
1.45679
1.47642
1.49506
1.51274
1.52945
1.54521
1.56003
1.57394
1.58694
1.59906
1.61031
1.62072
1.6303
1.63909
1.64709
1.65435
1.66088
1.6667
1.67185
1.67636
1.68024
1.68354
1.68627
1.68846
1.69015
1.69136
1.69213
1.69247
1.69243
1.69202
1.69129
1.69024
1.68892
1.68735
1.68556
1.68357
1.68142
1.67911
1.67669
1.67418
1.67159
1.66894
1.66628
1.6636
1.66093
1.6583
1.65572
1.6532
1.65076
1.64842
1.64619
1.64408
1.6421
1.6403
1.63883
1.63792
1.63695
1.63251
1.61621
1.58677
1.67424
870.111
-249.229
-5.19157
6.10114
1.05177
0.194836
0.283569
0.382785
0.446419
0.49979
0.551126
0.601771
0.651824
0.701254
0.750016
0.79806
0.845335
0.891792
0.937391
0.982094
1.02587
1.0687
1.11055
1.15141
1.19125
1.23006
1.26783
1.30453
1.34016
1.3747
1.40814
1.44048
1.47169
1.50178
1.53074
1.55857
1.58526
1.61082
1.63525
1.65854
1.68072
1.70179
1.72175
1.74063
1.75843
1.77518
1.79088
1.80556
1.81924
1.83195
1.84369
1.85451
1.86442
1.87345
1.88163
1.88899
1.89556
1.90136
1.90644
1.91081
1.91451
1.91758
1.92004
1.92193
1.92328
1.92413
1.9245
1.92443
1.92395
1.9231
1.9219
1.92039
1.9186
1.91656
1.91429
1.91184
1.90922
1.90647
1.90361
1.90066
1.89767
1.89464
1.8916
1.88857
1.88559
1.88265
1.8798
1.87703
1.87438
1.87185
1.86946
1.86722
1.86513
1.86327
1.86188
1.86128
1.86049
1.84964
1.80194
1.90669
870.117
-249.218
-5.17482
6.12422
1.08098
0.230117
0.324872
0.430068
0.499641
0.558903
0.616079
0.672505
0.728276
0.783353
0.837688
0.891223
0.943902
0.995672
1.04649
1.09631
1.1451
1.19283
1.23947
1.28501
1.32942
1.37268
1.41477
1.45568
1.49539
1.53388
1.57115
1.60718
1.64196
1.67549
1.70775
1.73876
1.76849
1.79696
1.82417
1.85012
1.87482
1.89828
1.92051
1.94153
1.96135
1.97999
1.99747
2.01381
2.02904
2.04317
2.05624
2.06827
2.0793
2.08934
2.09843
2.10661
2.1139
2.12035
2.12598
2.13082
2.13493
2.13832
2.14104
2.14312
2.1446
2.14552
2.14591
2.14581
2.14525
2.14428
2.14292
2.14121
2.13919
2.1369
2.13435
2.1316
2.12866
2.12557
2.12237
2.11907
2.11571
2.11232
2.10892
2.10553
2.10219
2.09891
2.09571
2.09262
2.08966
2.08683
2.08416
2.08166
2.07933
2.07719
2.07539
2.07453
2.07519
2.06809
2.0016
2.13104
870.12
-249.209
-5.15933
6.14581
1.10861
0.263743
0.364466
0.475594
0.551056
0.61616
0.679126
0.741284
0.802722
0.863397
0.923253
0.982228
1.04026
1.09729
1.15328
1.20817
1.26192
1.31451
1.36591
1.41608
1.46501
1.51268
1.55905
1.60412
1.64787
1.69028
1.73134
1.77103
1.80934
1.84627
1.88181
1.91595
1.9487
1.98005
2.01001
2.03858
2.06577
2.0916
2.11607
2.13921
2.16102
2.18154
2.20077
2.21875
2.2355
2.25104
2.26541
2.27864
2.29076
2.30179
2.31178
2.32076
2.32877
2.33584
2.34201
2.34732
2.35181
2.35551
2.35848
2.36074
2.36234
2.36333
2.36373
2.36358
2.36294
2.36184
2.36032
2.35841
2.35616
2.3536
2.35077
2.34771
2.34445
2.34103
2.33747
2.33382
2.3301
2.32634
2.32258
2.31883
2.31513
2.3115
2.30797
2.30455
2.30127
2.29814
2.29519
2.29243
2.28987
2.28749
2.2854
2.28423
2.28564
2.28162
2.1967
2.35126
870.124
-249.2
-5.14411
6.16705
1.13581
0.296895
0.403533
0.520538
0.601835
0.672728
0.741429
0.809263
0.876312
0.942529
1.00785
1.07221
1.13554
1.19779
1.25889
1.31879
1.37746
1.43486
1.49096
1.54572
1.59913
1.65115
1.70176
1.75095
1.7987
1.84498
1.88978
1.93309
1.97489
2.01519
2.05396
2.09121
2.12693
2.16113
2.1938
2.22497
2.25462
2.28279
2.30947
2.3347
2.35848
2.38084
2.4018
2.42139
2.43964
2.45657
2.47222
2.48662
2.49981
2.51182
2.52269
2.53245
2.54116
2.54884
2.55554
2.56129
2.56616
2.57017
2.57337
2.5758
2.57751
2.57855
2.57895
2.57876
2.57802
2.57679
2.57509
2.57298
2.57049
2.56766
2.56455
2.56118
2.55759
2.55383
2.54992
2.54591
2.54182
2.5377
2.53357
2.52946
2.5254
2.52142
2.51754
2.51379
2.5102
2.50678
2.50354
2.50052
2.49772
2.49513
2.49278
2.49134
2.4932
2.49189
2.39091
2.56766
870.127
-249.191
-5.12907
6.18803
1.16271
0.329672
0.442166
0.56499
0.652064
0.728685
0.80306
0.87651
0.94911
1.02081
1.09154
1.16122
1.22979
1.29719
1.36334
1.42821
1.49174
1.55389
1.61464
1.67394
1.73177
1.7881
1.8429
1.89616
1.94786
1.99796
2.04647
2.09335
2.13861
2.18222
2.22419
2.2645
2.30316
2.34017
2.37553
2.40924
2.44133
2.47179
2.50066
2.52794
2.55366
2.57783
2.60049
2.62167
2.64139
2.65969
2.6766
2.69216
2.70639
2.71936
2.73108
2.74162
2.751
2.75927
2.76648
2.77267
2.7779
2.78219
2.78562
2.78821
2.79002
2.7911
2.79149
2.79124
2.79041
2.78903
2.78715
2.78482
2.78209
2.779
2.77558
2.7719
2.76798
2.76387
2.75961
2.75523
2.75078
2.74629
2.74179
2.73731
2.7329
2.72856
2.72435
2.72027
2.71636
2.71264
2.70913
2.70584
2.7028
2.69998
2.69742
2.69571
2.6978
2.69873
2.58512
2.77985
870.13
-249.182
-5.11421
6.20875
1.18927
0.362063
0.480348
0.608926
0.701711
0.783995
0.863979
0.942978
1.02106
1.09818
1.17424
1.24919
1.32294
1.39542
1.46658
1.53634
1.60467
1.67152
1.73685
1.80063
1.86283
1.92342
1.98236
2.03964
2.09523
2.14911
2.20127
2.25168
2.30034
2.34723
2.39235
2.43569
2.47724
2.51702
2.55502
2.59125
2.62573
2.65846
2.68947
2.71878
2.7464
2.77236
2.79669
2.81943
2.8406
2.86023
2.87837
2.89506
2.91033
2.92422
2.93678
2.94806
2.9581
2.96695
2.97466
2.98127
2.98683
2.99141
2.99504
2.99778
2.99967
3.00078
3.00116
3.00084
2.9999
2.99836
2.9963
2.99375
2.99077
2.9874
2.98368
2.97968
2.97543
2.97097
2.96635
2.9616
2.95678
2.95192
2.94705
2.9422
2.93743
2.93274
2.92818
2.92378
2.91955
2.91553
2.91174
2.90819
2.9049
2.90187
2.89909
2.89713
2.89929
2.90186
2.7793
2.98751
870.133
-249.173
-5.09955
6.2292
1.2155
0.394041
0.518048
0.652309
0.750734
0.838609
0.924132
1.00861
1.09211
1.17457
1.25591
1.33605
1.41491
1.49241
1.56849
1.64309
1.71616
1.78764
1.8575
1.9257
1.99221
2.05699
2.12002
2.18126
2.24069
2.2983
2.35406
2.40795
2.45996
2.51008
2.5583
2.60462
2.64902
2.69152
2.73212
2.77083
2.80766
2.84263
2.87574
2.90704
2.93653
2.96424
2.99022
3.01448
3.03706
3.05801
3.07736
3.09514
3.11142
3.12622
3.1396
3.1516
3.16228
3.17169
3.17987
3.18688
3.19277
3.1976
3.20143
3.2043
3.20627
3.2074
3.20774
3.20735
3.20629
3.20459
3.20233
3.19955
3.19631
3.19266
3.18864
3.18431
3.17972
3.1749
3.16992
3.16481
3.15961
3.15437
3.14913
3.14392
3.13878
3.13374
3.12884
3.1241
3.11956
3.11524
3.11117
3.10736
3.10383
3.10058
3.09759
3.0954
3.09748
3.10112
2.97305
3.19049
870.136
-249.164
-5.08509
6.24935
1.24135
0.425577
0.555228
0.695097
0.799086
0.892477
0.983461
1.07334
1.16218
1.24991
1.33645
1.42171
1.5056
1.58806
1.669
1.74836
1.8261
1.90215
1.97647
2.04903
2.11979
2.1887
2.25575
2.32089
2.38412
2.44539
2.5047
2.56201
2.61732
2.67062
2.72189
2.77114
2.81835
2.86353
2.90669
2.94783
2.98697
3.02412
3.05931
3.09255
3.12388
3.15331
3.18089
3.20665
3.23062
3.25284
3.27336
3.29223
3.30948
3.32516
3.33933
3.35204
3.36334
3.37328
3.38192
3.38931
3.39552
3.40059
3.40459
3.40758
3.40961
3.41075
3.41105
3.41057
3.40937
3.40751
3.40505
3.40203
3.39852
3.39458
3.39025
3.38559
3.38065
3.37548
3.37013
3.36464
3.35907
3.35345
3.34783
3.34225
3.33675
3.33135
3.32611
3.32104
3.31618
3.31157
3.30721
3.30314
3.29937
3.2959
3.29271
3.29031
3.29221
3.2964
3.16586
3.38871
870.139
-249.156
-5.07086
6.26919
1.26682
0.456637
0.591852
0.737246
0.846718
0.945543
1.04191
1.13711
1.23121
1.32413
1.41579
1.50609
1.59495
1.68228
1.76801
1.85207
1.9344
2.01494
2.09366
2.17051
2.24545
2.31843
2.38943
2.45842
2.52537
2.59026
2.65305
2.71373
2.77229
2.82871
2.88298
2.9351
2.98507
3.03288
3.07855
3.12208
3.16348
3.20278
3.24
3.27515
3.30827
3.33939
3.36854
3.39575
3.42108
3.44455
3.46622
3.48613
3.50433
3.52087
3.53581
3.5492
3.56109
3.57154
3.58062
3.58837
3.59487
3.60017
3.60434
3.60743
3.60951
3.61064
3.61088
3.6103
3.60896
3.60692
3.60424
3.60098
3.5972
3.59295
3.58831
3.58331
3.57802
3.57248
3.56676
3.5609
3.55495
3.54895
3.54295
3.537
3.53113
3.52538
3.51979
3.51439
3.50922
3.5043
3.49966
3.49533
3.49133
3.48764
3.48426
3.48165
3.48329
3.4876
3.35717
3.58216
870.142
-249.147
-5.05687
6.2887
1.29186
0.487192
0.627884
0.778717
0.893585
0.997759
1.09942
1.19986
1.29914
1.39717
1.49386
1.58913
1.68287
1.77499
1.86543
1.95411
2.04096
2.12593
2.20897
2.29004
2.36908
2.44607
2.52097
2.59373
2.66434
2.73277
2.79899
2.86298
2.92473
2.98421
3.04143
3.09637
3.14904
3.19944
3.24756
3.29343
3.33706
3.37846
3.41766
3.45468
3.48955
3.52232
3.553
3.58164
3.60828
3.63297
3.65575
3.67668
3.6958
3.71317
3.72885
3.74289
3.75535
3.7663
3.77579
3.78389
3.79066
3.79617
3.80048
3.80365
3.80577
3.80688
3.80705
3.80636
3.80487
3.80264
3.79973
3.79621
3.79215
3.7876
3.78263
3.77729
3.77164
3.76574
3.75964
3.7534
3.74706
3.74068
3.7343
3.72797
3.72174
3.71563
3.70969
3.70396
3.69847
3.69326
3.68834
3.68375
3.67951
3.67561
3.67203
3.66922
3.67056
3.67465
3.54641
3.77081
870.145
-249.139
-5.04313
6.30786
1.31647
0.517217
0.663293
0.819474
0.939648
1.04908
1.15595
1.26154
1.36591
1.46896
1.57061
1.67075
1.76928
1.86613
1.96119
2.05441
2.1457
2.23502
2.32231
2.40752
2.4906
2.57152
2.65023
2.72671
2.80092
2.87282
2.9424
3.00964
3.07451
3.13701
3.19711
3.25482
3.31014
3.36306
3.41359
3.46175
3.50755
3.551
3.59214
3.63099
3.66758
3.70194
3.73411
3.76414
3.79207
3.81794
3.8418
3.86372
3.88373
3.9019
3.91829
3.93296
3.94597
3.95738
3.96727
3.97569
3.98271
3.98841
3.99284
3.99609
3.99822
3.99929
3.99939
3.99857
3.99691
3.99448
3.99134
3.98756
3.98321
3.97834
3.97304
3.96735
3.96133
3.95506
3.94858
3.94195
3.93523
3.92846
3.9217
3.91499
3.90839
3.90192
3.89564
3.88958
3.88377
3.87825
3.87306
3.86821
3.86373
3.85962
3.85585
3.85286
3.85384
3.85747
3.73306
3.95467
870.147
-249.131
-5.02966
6.32666
1.34062
0.546688
0.698053
0.859487
0.984873
1.09947
1.21146
1.32211
1.43147
1.53945
1.64596
1.75089
1.85414
1.95561
2.05522
2.15289
2.24855
2.34213
2.43359
2.52287
2.60991
2.69469
2.77715
2.85726
2.93499
3.01031
3.08318
3.1536
3.22153
3.28697
3.34991
3.41032
3.46823
3.52362
3.57651
3.62691
3.67483
3.72029
3.76332
3.80395
3.8422
3.87812
3.91175
3.94313
3.9723
3.99931
4.02423
4.04709
4.06796
4.08691
4.10398
4.11925
4.13278
4.14463
4.15489
4.16361
4.17086
4.17673
4.18128
4.18458
4.1867
4.18773
4.18773
4.18678
4.18494
4.18229
4.17891
4.17485
4.1702
4.16502
4.15937
4.15332
4.14694
4.14029
4.13342
4.1264
4.11929
4.11213
4.10499
4.0979
4.09092
4.08409
4.07746
4.07107
4.06494
4.05913
4.05365
4.04854
4.04382
4.0395
4.03556
4.03238
4.03298
4.03597
3.91662
4.13373
870.15
-249.123
-5.01646
6.3451
1.3643
0.575588
0.732143
0.89873
1.02923
1.1489
1.2659
1.38151
1.49578
1.6086
1.71988
1.82951
1.93738
2.04339
2.14745
2.24949
2.34943
2.4472
2.54274
2.636
2.72693
2.81548
2.90162
2.98529
3.06647
3.14513
3.22123
3.29476
3.36569
3.43401
3.49971
3.56277
3.62321
3.68102
3.7362
3.78878
3.83877
3.88619
3.93106
3.97342
4.0133
4.05074
4.08578
4.11846
4.14884
4.17696
4.20288
4.22667
4.24837
4.26805
4.28578
4.30162
4.31564
4.32792
4.33851
4.34751
4.35498
4.36099
4.36563
4.36897
4.37108
4.37204
4.37193
4.37082
4.36879
4.36592
4.36228
4.35794
4.35298
4.34747
4.34147
4.33506
4.32831
4.32127
4.31401
4.3066
4.29909
4.29154
4.284
4.27653
4.26918
4.26199
4.25501
4.24828
4.24184
4.23572
4.22997
4.2246
4.21965
4.21512
4.21099
4.20763
4.20783
4.21007
4.09663
4.308
870.153
-249.116
-5.00354
6.36315
1.38749
0.603901
0.765543
0.937182
1.07269
1.19733
1.31925
1.43973
1.5588
1.67636
1.79232
1.90655
2.01894
2.12941
2.23784
2.34415
2.44828
2.55015
2.64969
2.74685
2.84158
2.93384
3.02356
3.11072
3.19528
3.2772
3.35646
3.43303
3.50689
3.57802
3.64642
3.71207
3.77497
3.83513
3.89256
3.94727
3.99927
4.04859
4.09526
4.1393
4.18076
4.21966
4.25607
4.29002
4.32156
4.35075
4.37765
4.40232
4.42481
4.4452
4.46355
4.47994
4.49442
4.50709
4.51801
4.52726
4.53492
4.54106
4.54577
4.54912
4.5512
4.55208
4.55184
4.55057
4.54834
4.54523
4.54132
4.53669
4.53141
4.52556
4.51921
4.51243
4.50529
4.49786
4.49021
4.4824
4.47449
4.46654
4.45861
4.45076
4.44303
4.43548
4.42814
4.42108
4.41432
4.4079
4.40187
4.39624
4.39105
4.38631
4.38201
4.37848
4.37827
4.37968
4.27268
4.47746
870.155
-249.108
-4.9909
6.38081
1.41019
0.631615
0.798237
0.974823
1.11524
1.24474
1.37147
1.49672
1.62049
1.7427
1.86323
1.98197
2.0988
2.21361
2.32632
2.43682
2.54504
2.65092
2.75438
2.85536
2.95381
3.04967
3.14291
3.23348
3.32134
3.40645
3.48879
3.56832
3.64504
3.71892
3.78994
3.85811
3.92342
3.98588
4.04549
4.10226
4.15622
4.20739
4.2558
4.30147
4.34446
4.38479
4.42252
4.45769
4.49036
4.52058
4.54841
4.57393
4.59718
4.61824
4.63719
4.65408
4.66901
4.68204
4.69326
4.70274
4.71056
4.71681
4.72157
4.72492
4.72694
4.72772
4.72735
4.72589
4.72345
4.72009
4.7159
4.71097
4.70536
4.69916
4.69245
4.68529
4.67776
4.66994
4.66188
4.65367
4.64536
4.63701
4.62868
4.62044
4.61234
4.60442
4.59673
4.58933
4.58225
4.57553
4.56922
4.56334
4.55792
4.55297
4.54848
4.54478
4.54416
4.54471
4.44442
4.64209
870.158
-249.101
-4.97854
6.39809
1.43239
0.658717
0.830211
1.01163
1.15685
1.29111
1.42255
1.55245
1.68083
1.80758
1.93258
2.05573
2.17689
2.29596
2.41284
2.52744
2.63967
2.74946
2.85674
2.96145
3.06353
3.16293
3.2596
3.35349
3.44456
3.53279
3.61813
3.70056
3.78006
3.85661
3.9302
4.00082
4.06847
4.13316
4.19489
4.25367
4.30953
4.3625
4.41259
4.45985
4.50431
4.54602
4.58502
4.62137
4.65512
4.68633
4.71506
4.74138
4.76536
4.78706
4.80657
4.82395
4.83928
4.85265
4.86414
4.87382
4.88179
4.88812
4.89291
4.89624
4.89819
4.89886
4.89832
4.89668
4.894
4.89038
4.88591
4.88066
4.87471
4.86816
4.86107
4.85353
4.8456
4.83738
4.82892
4.8203
4.81158
4.80282
4.7941
4.78547
4.77698
4.76869
4.76066
4.75292
4.74552
4.7385
4.73191
4.72577
4.72011
4.71495
4.7103
4.70643
4.7054
4.70509
4.61154
4.80188
870.16
-249.093
-4.96647
6.41496
1.45409
0.685197
0.861451
1.0476
1.19751
1.33642
1.47246
1.60691
1.73978
1.87097
2.00035
2.12779
2.25319
2.37642
2.49738
2.61597
2.73211
2.84572
2.95673
3.06508
3.1707
3.27354
3.37355
3.47069
3.5649
3.65616
3.74442
3.82967
3.91188
3.99103
4.06712
4.14012
4.21005
4.2769
4.34068
4.40141
4.45912
4.51382
4.56554
4.61433
4.66022
4.70325
4.74348
4.78097
4.81576
4.84791
4.8775
4.90459
4.92926
4.95157
4.9716
4.98943
5.00514
5.01882
5.03055
5.04041
5.0485
5.0549
5.05969
5.06298
5.06484
5.06538
5.06467
5.06281
5.0599
5.056
5.05122
5.04565
5.03936
5.03244
5.02497
5.01703
5.00871
5.00007
4.9912
4.98217
4.97303
4.96387
4.95475
4.94573
4.93686
4.9282
4.91981
4.91173
4.90401
4.89669
4.88982
4.88342
4.87753
4.87217
4.86734
4.8633
4.86189
4.86073
4.77379
4.95678
870.162
-249.086
-4.95469
6.43144
1.47526
0.711044
0.891946
1.08271
1.2372
1.38064
1.52118
1.66007
1.79733
1.93284
2.06648
2.19813
2.32765
2.45494
2.57987
2.70236
2.82232
2.93966
3.05431
3.1662
3.27527
3.38146
3.48473
3.58501
3.68228
3.77649
3.8676
3.95559
4.04043
4.12211
4.20061
4.27593
4.34806
4.41701
4.48279
4.54541
4.60489
4.66127
4.71457
4.76483
4.81209
4.85641
4.89782
4.93639
4.97217
5.00523
5.03564
5.06346
5.08878
5.11166
5.13218
5.15043
5.16649
5.18045
5.1924
5.20241
5.2106
5.21703
5.22182
5.22504
5.2268
5.22718
5.22629
5.22421
5.22103
5.21685
5.21176
5.20584
5.19919
5.1919
5.18404
5.17571
5.16698
5.15793
5.14864
5.13918
5.12964
5.12006
5.11054
5.10112
5.09186
5.08283
5.07408
5.06567
5.05763
5.05001
5.04285
5.0362
5.03008
5.02451
5.0195
5.01531
5.01351
5.01155
4.93096
5.10676
870.165
-249.079
-4.9432
6.4475
1.4959
0.73625
0.921683
1.11695
1.2759
1.42377
1.56868
1.7119
1.85344
1.99317
2.13097
2.26671
2.40025
2.53149
2.6603
2.78658
2.91025
3.03122
3.14941
3.26475
3.37718
3.48663
3.59307
3.69642
3.79665
3.89372
3.9876
4.07825
4.16565
4.24978
4.33063
4.40818
4.48245
4.55343
4.62113
4.68558
4.74678
4.80478
4.8596
4.91128
4.95986
5.0054
5.04795
5.08755
5.12429
5.15821
5.18939
5.21791
5.24383
5.26725
5.28823
5.30687
5.32325
5.33746
5.34959
5.35974
5.36799
5.37444
5.37919
5.38233
5.38397
5.38418
5.38308
5.38076
5.37731
5.37283
5.36741
5.36115
5.35413
5.34646
5.3382
5.32946
5.32031
5.31084
5.30113
5.29125
5.28129
5.2713
5.26137
5.25155
5.24191
5.2325
5.2234
5.21464
5.20628
5.19836
5.19093
5.18402
5.17766
5.17189
5.16671
5.16235
5.1602
5.15748
5.08286
5.25178
870.167
-249.073
-4.93201
6.46316
1.51602
0.760806
0.950652
1.1503
1.3136
1.46577
1.61495
1.76239
1.90809
2.05193
2.19378
2.3335
2.47096
2.60604
2.73862
2.8686
2.99588
3.12037
3.242
3.3607
3.47639
3.58901
3.69852
3.80485
3.90796
4.00781
4.10437
4.1976
4.28747
4.37398
4.4571
4.53682
4.61315
4.68609
4.75566
4.82186
4.88473
4.94428
5.00056
5.0536
5.10345
5.15017
5.19379
5.23439
5.27203
5.30677
5.33868
5.36785
5.39435
5.41826
5.43967
5.45866
5.47533
5.48976
5.50206
5.5123
5.5206
5.52705
5.53174
5.53478
5.53627
5.5363
5.53497
5.5324
5.52866
5.52387
5.51811
5.51149
5.5041
5.49603
5.48737
5.47821
5.46864
5.45874
5.4486
5.4383
5.42791
5.4175
5.40716
5.39694
5.38691
5.37713
5.36767
5.35857
5.34989
5.34167
5.33395
5.32679
5.3202
5.31422
5.30887
5.30435
5.30187
5.29846
5.22939
5.39177
870.169
-249.066
-4.92112
6.47839
1.5356
0.784702
0.978842
1.18276
1.35028
1.50665
1.65998
1.81151
1.96126
2.1091
2.25488
2.39847
2.53974
2.67856
2.8148
2.94836
3.07915
3.20707
3.33205
3.454
3.57285
3.68855
3.80104
3.91026
4.01616
4.11871
4.21786
4.31358
4.40585
4.49465
4.57997
4.66179
4.74011
4.81495
4.8863
4.9542
5.01866
5.07971
5.13739
5.19174
5.2428
5.29064
5.33529
5.37683
5.41533
5.45084
5.48345
5.51323
5.54026
5.56464
5.58643
5.60575
5.62267
5.63729
5.64972
5.66004
5.66836
5.67477
5.67939
5.68231
5.68363
5.68346
5.68189
5.67904
5.67501
5.66989
5.66378
5.65679
5.64901
5.64054
5.63146
5.62188
5.61188
5.60156
5.59098
5.58025
5.56943
5.5586
5.54784
5.53722
5.5268
5.51665
5.50682
5.49738
5.48838
5.47985
5.47186
5.46444
5.45762
5.45144
5.44592
5.44125
5.43844
5.4344
5.37044
5.5267
870.171
-249.06
-4.91053
6.4932
1.55463
0.807932
1.00625
1.2143
1.38594
1.54638
1.70373
1.85926
2.01294
2.16465
2.31426
2.46161
2.60657
2.74902
2.88882
3.02586
3.16005
3.2913
3.41951
3.54461
3.66654
3.78522
3.90059
4.01261
4.12121
4.22636
4.32802
4.42616
4.52075
4.61176
4.69919
4.78303
4.86327
4.93993
5.01301
5.08254
5.14853
5.21101
5.27003
5.32563
5.37786
5.42676
5.47239
5.51483
5.55413
5.59037
5.62363
5.65398
5.68151
5.7063
5.72846
5.74806
5.7652
5.77999
5.79252
5.80288
5.8112
5.81756
5.82208
5.82485
5.82599
5.82559
5.82378
5.82064
5.81629
5.81083
5.80436
5.79699
5.78881
5.77992
5.77043
5.76042
5.74998
5.73922
5.72821
5.71703
5.70578
5.69453
5.68335
5.67233
5.66151
5.65099
5.6408
5.63102
5.62169
5.61286
5.60459
5.59692
5.58987
5.58349
5.57779
5.57296
5.56987
5.56526
5.50594
5.65651
870.173
-249.054
-4.90025
6.50759
1.57311
0.830487
1.03285
1.24493
1.42056
1.58495
1.74621
1.9056
2.0631
2.21858
2.37189
2.52289
2.67144
2.81739
2.96064
3.10106
3.23855
3.37301
3.50436
3.63252
3.75742
3.87898
3.99714
4.11186
4.22308
4.33074
4.43483
4.53529
4.63211
4.72526
4.81473
4.90051
4.9826
5.06101
5.13574
5.20683
5.27428
5.33814
5.39845
5.45523
5.50856
5.55847
5.60504
5.64832
5.68838
5.7253
5.75916
5.79005
5.81803
5.84322
5.86569
5.88554
5.90288
5.91779
5.9304
5.94079
5.94907
5.95535
5.95975
5.96236
5.96329
5.96266
5.96057
5.95713
5.95245
5.94664
5.93979
5.93203
5.92344
5.91413
5.90421
5.89376
5.88288
5.87167
5.86022
5.8486
5.83692
5.82524
5.81364
5.80221
5.791
5.78009
5.76955
5.75942
5.74977
5.74064
5.73209
5.72416
5.71689
5.7103
5.70443
5.69945
5.69609
5.69098
5.63585
5.78116
870.175
-249.048
-4.89028
6.52154
1.59103
0.852361
1.05865
1.27463
1.45412
1.62234
1.7874
1.95054
2.11173
2.27085
2.42776
2.58229
2.73431
2.88367
3.03025
3.17393
3.31461
3.45219
3.58657
3.71769
3.84545
3.9698
4.09066
4.20798
4.32172
4.43181
4.53823
4.64094
4.7399
4.83511
4.92654
5.01418
5.09805
5.17813
5.25445
5.32703
5.39589
5.46106
5.52258
5.5805
5.63487
5.68575
5.73319
5.77726
5.81804
5.8556
5.89002
5.92139
5.94979
5.97533
5.99808
6.01815
6.03565
6.05067
6.06332
6.0737
6.08193
6.08811
6.09236
6.09478
6.09549
6.0946
6.09223
6.08847
6.08345
6.07726
6.07004
6.06187
6.05286
6.04313
6.03276
6.02187
6.01054
5.99888
5.98698
5.97492
5.96279
5.95068
5.93866
5.92682
5.91522
5.90393
5.89302
5.88255
5.87257
5.86315
5.85432
5.84614
5.83864
5.83185
5.82581
5.82068
5.81706
5.81151
5.76015
5.9006
870.177
-249.042
-4.88061
6.53506
1.60839
0.873549
1.08364
1.30339
1.48663
1.65856
1.82729
1.99405
2.15882
2.32147
2.48185
2.6398
2.79517
2.94782
3.09763
3.24447
3.38823
3.52881
3.66613
3.80009
3.93062
4.05765
4.18112
4.30095
4.41711
4.52954
4.63821
4.74307
4.8441
4.94128
5.03459
5.12403
5.20959
5.29128
5.36912
5.44312
5.51331
5.57973
5.64241
5.7014
5.75676
5.80854
5.85681
5.90162
5.94307
5.98122
6.01616
6.04798
6.07676
6.1026
6.1256
6.14586
6.16348
6.17857
6.19124
6.20159
6.20974
6.2158
6.21988
6.22209
6.22256
6.2214
6.21871
6.21462
6.20924
6.20268
6.19505
6.18647
6.17704
6.16686
6.15605
6.14471
6.13293
6.12081
6.10845
6.09594
6.08337
6.07083
6.05838
6.04613
6.03413
6.02246
6.01119
6.00037
5.99007
5.98035
5.97125
5.96281
5.95508
5.94809
5.94188
5.9366
5.93275
5.92682
5.87883
6.0148
870.179
-249.036
-4.87126
6.54813
1.62519
0.894044
1.10781
1.33122
1.51808
1.69359
1.86586
2.03612
2.20436
2.37042
2.53415
2.6954
2.85401
3.00984
3.16276
3.31264
3.45937
3.60286
3.743
3.87971
4.01291
4.14253
4.26849
4.39075
4.50924
4.62392
4.73474
4.84167
4.94468
5.04375
5.13887
5.23001
5.3172
5.40042
5.4797
5.55506
5.62652
5.69412
5.75791
5.81791
5.8742
5.92683
5.97587
6.02138
6.06345
6.10214
6.13756
6.16978
6.1989
6.22501
6.24823
6.26864
6.28635
6.30148
6.31414
6.32443
6.33247
6.33838
6.34227
6.34426
6.34447
6.34301
6.34
6.33557
6.32981
6.32286
6.31482
6.30581
6.29594
6.28532
6.27405
6.26225
6.25001
6.23743
6.22461
6.21165
6.19863
6.18565
6.17278
6.16011
6.14771
6.13566
6.12403
6.11287
6.10225
6.09222
6.08284
6.07415
6.0662
6.05901
6.05263
6.04721
6.04313
6.03688
5.9919
6.12373
870.181
-249.031
-4.86223
6.56077
1.64141
0.913844
1.13117
1.35809
1.54845
1.72742
1.90312
2.07676
2.24833
2.41768
2.58465
2.74908
2.91082
3.06971
3.22563
3.37845
3.52804
3.67432
3.81718
3.95653
4.0923
4.2244
4.35277
4.47735
4.59808
4.71492
4.82781
4.93672
5.04163
5.14251
5.23934
5.33213
5.42086
5.50554
5.5862
5.66284
5.73551
5.80423
5.86905
5.93001
5.98718
6.0406
6.09036
6.13652
6.17915
6.21835
6.25419
6.28678
6.31619
6.34255
6.36593
6.38646
6.40424
6.41938
6.432
6.4422
6.45012
6.45585
6.45953
6.46127
6.4612
6.45943
6.45608
6.45128
6.44514
6.43778
6.42933
6.41988
6.40956
6.39848
6.38676
6.37448
6.36178
6.34873
6.33545
6.32203
6.30856
6.29514
6.28184
6.26876
6.25596
6.24352
6.23152
6.22002
6.20908
6.19875
6.1891
6.18016
6.17198
6.16459
6.15805
6.15248
6.1482
6.14167
6.09939
6.22738
870.182
-249.026
-4.85351
6.57296
1.65707
0.932945
1.15369
1.38402
1.57774
1.76005
1.93905
2.11595
2.29074
2.46326
2.63335
2.80084
2.96559
3.12743
3.28624
3.44187
3.59423
3.74319
3.88866
4.03055
4.16878
4.30327
4.43395
4.56076
4.68364
4.80253
4.9174
5.02821
5.13493
5.23754
5.33601
5.43035
5.52056
5.60663
5.68859
5.76646
5.84026
5.91004
5.97583
6.03769
6.09567
6.14984
6.20027
6.24702
6.29018
6.32983
6.36606
6.39896
6.42864
6.45519
6.47872
6.49933
6.51714
6.53226
6.54481
6.5549
6.56266
6.5682
6.57164
6.57312
6.57275
6.57065
6.56695
6.56177
6.55523
6.54745
6.53856
6.52867
6.51789
6.50635
6.49415
6.48141
6.46822
6.45471
6.44096
6.42708
6.41316
6.39929
6.38556
6.37206
6.35886
6.34604
6.33368
6.32183
6.31057
6.29994
6.29001
6.28082
6.27242
6.26484
6.25813
6.25241
6.24795
6.24118
6.20131
6.32574
870.184
-249.021
-4.84511
6.5847
1.67215
0.951346
1.17539
1.40899
1.60596
1.79148
1.97366
2.1537
2.33158
2.50714
2.68023
2.85068
3.01831
3.18299
3.34457
3.50292
3.65792
3.80946
3.95744
4.10177
4.24236
4.37913
4.51202
4.64096
4.76589
4.88676
5.00352
5.11614
5.22459
5.32884
5.42887
5.52469
5.61629
5.70368
5.78687
5.86589
5.94077
6.01154
6.07825
6.14095
6.19969
6.25455
6.30559
6.35288
6.39652
6.43658
6.47315
6.50634
6.53623
6.56294
6.58657
6.60724
6.62505