/*--------------------------------*- C++ -*----------------------------------*\
  =========                 |
  \\      /  F ield         | OpenFOAM: The Open Source CFD Toolbox
   \\    /   O peration     | Website:  https://openfoam.org
    \\  /    A nd           | Version:  10
     \\/     M anipulation  |
\*---------------------------------------------------------------------------*/
FoamFile
{
    format      ascii;
    class       volScalarField;
    location    "18";
    object      T_0;
}
// * * * * * * * * * * * * * * * * * * * * * * * * * * * * * * * * * * * * * //

dimensions      [0 0 0 1 0 0 0];

internalField   nonuniform List<scalar> 
10000
(
374.967
361.251
356.546
354.47
353.333
352.607
352.093
351.705
351.396
351.141
350.924
350.736
350.57
350.421
350.285
350.16
350.044
349.936
349.834
349.737
349.646
349.559
349.475
349.395
349.318
349.244
349.172
349.103
349.036
348.97
348.907
348.846
348.786
348.728
348.672
348.617
348.563
348.511
348.46
348.411
348.363
348.316
348.271
348.226
348.183
348.141
348.1
348.06
348.021
347.984
347.947
347.912
347.877
347.844
347.811
347.78
347.749
347.719
347.691
347.663
347.636
347.61
347.585
347.561
347.537
347.515
347.493
347.472
347.452
347.433
347.414
347.396
347.379
347.363
347.347
347.332
347.318
347.305
347.292
347.28
347.269
347.258
347.248
347.238
347.229
347.221
347.213
347.206
347.2
347.194
347.189
347.184
347.18
347.177
347.174
347.171
347.17
347.168
347.168
347.167
388.574
374.744
367.015
362.478
359.594
357.614
356.162
355.041
354.14
353.391
352.752
352.195
351.701
351.256
350.851
350.478
350.132
349.808
349.503
349.215
348.941
348.68
348.43
348.19
347.96
347.737
347.522
347.314
347.113
346.917
346.728
346.544
346.365
346.191
346.022
345.857
345.697
345.54
345.388
345.24
345.096
344.956
344.819
344.686
344.556
344.43
344.308
344.188
344.072
343.959
343.85
343.743
343.639
343.539
343.441
343.347
343.255
343.166
343.08
342.997
342.916
342.838
342.763
342.69
342.62
342.552
342.487
342.424
342.364
342.306
342.25
342.197
342.146
342.097
342.05
342.006
341.963
341.923
341.884
341.848
341.814
341.781
341.751
341.723
341.696
341.671
341.648
341.627
341.608
341.59
341.575
341.561
341.549
341.538
341.529
341.522
341.517
341.513
341.512
341.511
393.165
382.132
374.289
368.831
364.951
362.09
359.899
358.158
356.731
355.53
354.496
353.589
352.781
352.051
351.384
350.769
350.197
349.661
349.157
348.679
348.225
347.791
347.376
346.977
346.594
346.224
345.866
345.52
345.185
344.86
344.545
344.238
343.941
343.651
343.369
343.095
342.828
342.568
342.315
342.068
341.828
341.594
341.367
341.145
340.929
340.719
340.515
340.316
340.122
339.934
339.752
339.574
339.402
339.234
339.072
338.914
338.761
338.613
338.47
338.331
338.197
338.067
337.941
337.82
337.703
337.591
337.482
337.378
337.277
337.18
337.088
336.999
336.913
336.832
336.754
336.68
336.609
336.542
336.478
336.417
336.36
336.306
336.256
336.208
336.164
336.123
336.084
336.049
336.017
335.988
335.962
335.939
335.918
335.901
335.886
335.875
335.866
335.86
335.857
335.856
395.127
386.328
379.178
373.607
369.289
365.9
363.186
360.962
359.098
357.504
356.116
354.888
353.787
352.787
351.869
351.021
350.23
349.488
348.788
348.124
347.493
346.889
346.311
345.755
345.22
344.704
344.205
343.722
343.255
342.801
342.36
341.932
341.516
341.111
340.717
340.334
339.961
339.597
339.243
338.898
338.562
338.235
337.917
337.607
337.305
337.011
336.725
336.447
336.177
335.914
335.658
335.41
335.168
334.934
334.707
334.487
334.273
334.066
333.865
333.671
333.483
333.301
333.126
332.956
332.793
332.635
332.483
332.337
332.196
332.061
331.931
331.807
331.687
331.573
331.464
331.36
331.261
331.167
331.078
330.993
330.913
330.838
330.767
330.7
330.638
330.581
330.527
330.478
330.433
330.393
330.356
330.324
330.295
330.271
330.25
330.234
330.222
330.213
330.209
330.208
396.151
388.871
382.491
377.13
372.7
369.038
365.986
363.408
361.199
359.276
357.581
356.065
354.695
353.444
352.292
351.221
350.221
349.28
348.39
347.545
346.74
345.97
345.231
344.521
343.837
343.176
342.537
341.919
341.32
340.738
340.173
339.624
339.09
338.571
338.066
337.574
337.095
336.628
336.174
335.731
335.3
334.88
334.472
334.073
333.686
333.309
332.941
332.584
332.237
331.899
331.571
331.252
330.942
330.641
330.349
330.066
329.791
329.525
329.267
329.018
328.777
328.543
328.318
328.1
327.89
327.687
327.492
327.304
327.123
326.95
326.783
326.623
326.47
326.323
326.183
326.05
325.923
325.802
325.687
325.578
325.475
325.378
325.287
325.202
325.122
325.048
324.98
324.917
324.859
324.807
324.76
324.718
324.681
324.65
324.624
324.603
324.587
324.576
324.57
324.569
396.764
390.511
384.785
379.727
375.343
371.569
368.315
365.49
363.016
360.827
358.87
357.102
355.491
354.01
352.639
351.36
350.16
349.028
347.955
346.935
345.961
345.029
344.133
343.272
342.44
341.638
340.861
340.109
339.379
338.671
337.983
337.314
336.664
336.031
335.415
334.815
334.231
333.662
333.108
332.568
332.042
331.53
331.031
330.545
330.072
329.612
329.164
328.728
328.304
327.892
327.491
327.101
326.723
326.356
326
325.654
325.319
324.994
324.679
324.375
324.08
323.795
323.52
323.254
322.997
322.75
322.512
322.282
322.061
321.849
321.646
321.45
321.263
321.085
320.914
320.751
320.595
320.447
320.307
320.174
320.049
319.931
319.819
319.715
319.618
319.527
319.444
319.367
319.296
319.232
319.175
319.124
319.079
319.041
319.009
318.983
318.964
318.951
318.943
318.942
397.164
391.624
386.412
381.651
377.38
373.584
370.217
367.226
364.553
362.151
359.975
357.99
356.164
354.475
352.902
351.428
350.04
348.726
347.479
346.29
345.153
344.063
343.014
342.004
341.029
340.087
339.175
338.29
337.432
336.599
335.79
335.002
334.236
333.491
332.765
332.058
331.37
330.699
330.046
329.409
328.789
328.185
327.597
327.024
326.466
325.923
325.394
324.88
324.38
323.893
323.42
322.961
322.515
322.081
321.661
321.253
320.857
320.474
320.102
319.743
319.395
319.059
318.734
318.42
318.117
317.825
317.544
317.273
317.012
316.762
316.522
316.291
316.07
315.859
315.657
315.465
315.282
315.107
314.942
314.785
314.637
314.497
314.366
314.243
314.128
314.021
313.922
313.831
313.748
313.673
313.605
313.545
313.492
313.447
313.409
313.379
313.356
313.34
313.332
313.33
397.44
392.407
387.59
383.088
378.946
375.173
371.75
368.647
365.827
363.255
360.898
358.724
356.71
354.833
353.075
351.42
349.856
348.371
346.957
345.606
344.312
343.068
341.871
340.717
339.601
338.522
337.477
336.463
335.478
334.522
333.592
332.688
331.808
330.951
330.117
329.304
328.512
327.74
326.989
326.256
325.543
324.847
324.17
323.51
322.868
322.243
321.634
321.042
320.466
319.905
319.361
318.832
318.317
317.818
317.334
316.864
316.408
315.966
315.539
315.125
314.724
314.336
313.962
313.6
313.252
312.915
312.591
312.279
311.979
311.69
311.413
311.148
310.893
310.65
310.417
310.196
309.984
309.783
309.593
309.412
309.241
309.08
308.929
308.787
308.655
308.532
308.418
308.313
308.217
308.13
308.052
307.983
307.922
307.87
307.826
307.791
307.765
307.747
307.737
307.736
397.637
392.972
388.456
384.167
380.147
376.415
372.968
369.79
366.86
364.153
361.644
359.31
357.129
355.083
353.156
351.334
349.605
347.959
346.386
344.881
343.435
342.044
340.703
339.408
338.155
336.943
335.767
334.625
333.517
332.439
331.391
330.371
329.378
328.412
327.47
326.552
325.658
324.786
323.937
323.11
322.303
321.517
320.752
320.006
319.28
318.573
317.885
317.215
316.564
315.93
315.314
314.715
314.134
313.569
313.021
312.49
311.974
311.474
310.99
310.522
310.069
309.63
309.207
308.798
308.403
308.022
307.655
307.302
306.962
306.636
306.323
306.022
305.734
305.459
305.196
304.945
304.706
304.478
304.262
304.058
303.865
303.682
303.511
303.351
303.201
303.062
302.933
302.814
302.706
302.607
302.519
302.44
302.371
302.313
302.263
302.224
302.194
302.173
302.162
302.161
397.78
393.386
389.099
384.979
381.065
377.378
373.922
370.693
367.678
364.862
362.225
359.751
357.424
355.226
353.145
351.169
349.286
347.488
345.765
344.112
342.521
340.988
339.507
338.076
336.69
335.347
334.044
332.778
331.547
330.351
329.186
328.052
326.948
325.873
324.825
323.804
322.808
321.838
320.892
319.97
319.072
318.196
317.343
316.512
315.703
314.915
314.148
313.401
312.675
311.968
311.282
310.614
309.966
309.336
308.725
308.132
307.557
306.999
306.46
305.937
305.431
304.942
304.47
304.013
303.573
303.148
302.739
302.345
301.966
301.602
301.252
300.917
300.596
300.289
299.995
299.715
299.448
299.194
298.953
298.725
298.51
298.306
298.115
297.936
297.769
297.614
297.47
297.337
297.216
297.106
297.008
296.92
296.843
296.778
296.723
296.678
296.645
296.622
296.61
296.608
397.885
393.691
389.576
385.589
381.761
378.114
374.656
371.389
368.307
365.399
362.654
360.059
357.6
355.266
353.045
350.926
348.9
346.958
345.093
343.299
341.569
339.899
338.284
336.721
335.206
333.735
332.307
330.919
329.57
328.256
326.977
325.732
324.518
323.336
322.183
321.059
319.964
318.896
317.854
316.839
315.85
314.886
313.946
313.03
312.139
311.27
310.425
309.602
308.801
308.022
307.265
306.529
305.814
305.12
304.446
303.792
303.158
302.543
301.948
301.372
300.814
300.275
299.753
299.25
298.764
298.296
297.844
297.41
296.992
296.59
296.204
295.835
295.48
295.141
294.817
294.508
294.214
293.934
293.668
293.417
293.179
292.954
292.744
292.546
292.361
292.19
292.031
291.885
291.752
291.63
291.522
291.425
291.34
291.268
291.207
291.158
291.121
291.096
291.082
291.081
397.962
393.916
389.93
386.042
382.282
378.666
375.208
371.909
368.77
365.785
362.945
360.242
357.667
355.208
352.858
350.606
348.446
346.37
344.37
342.442
340.579
338.778
337.033
335.342
333.701
332.107
330.558
329.051
327.584
326.156
324.765
323.409
322.088
320.8
319.544
318.319
317.125
315.961
314.825
313.718
312.638
311.586
310.561
309.561
308.588
307.64
306.717
305.818
304.944
304.093
303.266
302.462
301.682
300.923
300.187
299.473
298.78
298.108
297.458
296.828
296.219
295.629
295.06
294.51
293.979
293.467
292.974
292.499
292.042
291.603
291.181
290.777
290.39
290.019
289.665
289.328
289.006
288.7
288.409
288.134
287.874
287.629
287.398
287.183
286.981
286.793
286.62
286.46
286.314
286.182
286.063
285.957
285.864
285.785
285.719
285.665
285.625
285.597
285.583
285.58
398.019
394.08
390.188
386.374
382.662
379.069
375.607
372.28
369.09
366.036
363.112
360.312
357.63
355.058
352.589
350.214
347.929
345.725
343.598
341.542
339.552
337.624
335.755
333.94
332.177
330.463
328.795
327.172
325.591
324.05
322.549
321.086
319.659
318.267
316.909
315.585
314.294
313.034
311.805
310.607
309.438
308.299
307.189
306.107
305.052
304.025
303.025
302.052
301.104
300.183
299.287
298.416
297.569
296.747
295.949
295.175
294.424
293.696
292.991
292.308
291.648
291.009
290.391
289.795
289.219
288.664
288.129
287.614
287.119
286.642
286.185
285.747
285.327
284.925
284.541
284.175
283.826
283.494
283.179
282.88
282.598
282.332
282.082
281.848
281.629
281.426
281.238
281.065
280.906
280.763
280.633
280.519
280.418
280.332
280.26
280.202
280.159
280.129
280.113
280.11
398.058
394.197
390.371
386.609
382.93
379.349
375.878
372.523
369.286
366.169
363.168
360.28
357.501
354.823
352.243
349.754
347.35
345.026
342.778
340.6
338.488
336.439
334.449
332.515
330.633
328.803
327.02
325.283
323.59
321.94
320.331
318.762
317.231
315.737
314.279
312.857
311.47
310.116
308.796
307.507
306.251
305.026
303.832
302.668
301.533
300.428
299.352
298.304
297.285
296.293
295.328
294.39
293.479
292.594
291.735
290.901
290.093
289.309
288.549
287.814
287.102
286.414
285.749
285.106
284.486
283.888
283.312
282.757
282.224
281.711
281.218
280.746
280.294
279.861
279.447
279.052
278.676
278.319
277.979
277.658
277.354
277.067
276.798
276.545
276.31
276.091
275.888
275.701
275.53
275.376
275.236
275.113
275.005
274.912
274.834
274.772
274.724
274.692
274.675
274.672
398.086
394.276
390.495
386.766
383.106
379.528
376.043
372.657
369.376
366.199
363.126
360.156
357.286
354.511
351.826
349.229
346.714
344.276
341.912
339.618
337.39
335.224
333.117
331.068
329.072
327.127
325.232
323.385
321.583
319.826
318.111
316.438
314.805
313.211
311.655
310.137
308.655
307.209
305.797
304.421
303.078
301.768
300.491
299.245
298.032
296.85
295.699
294.577
293.486
292.425
291.392
290.388
289.413
288.465
287.546
286.653
285.787
284.948
284.134
283.347
282.585
281.848
281.135
280.447
279.783
279.143
278.526
277.931
277.36
276.81
276.283
275.777
275.292
274.828
274.385
273.962
273.559
273.176
272.813
272.468
272.143
271.836
271.547
271.276
271.024
270.789
270.572
270.372
270.189
270.023
269.874
269.741
269.625
269.526
269.443
269.376
269.325
269.29
269.272
269.269
398.103
394.325
390.57
386.859
383.206
379.622
376.118
372.7
369.373
366.138
362.998
359.951
356.994
354.127
351.345
348.645
346.024
343.478
341.004
338.598
336.258
333.98
331.761
329.599
327.492
325.438
323.434
321.479
319.571
317.708
315.89
314.115
312.382
310.69
309.038
307.425
305.85
304.312
302.812
301.348
299.919
298.526
297.167
295.842
294.55
293.292
292.066
290.872
289.711
288.58
287.48
286.411
285.372
284.363
283.383
282.432
281.509
280.615
279.749
278.91
278.097
277.312
276.553
275.82
275.112
274.429
273.771
273.138
272.529
271.943
271.381
270.841
270.325
269.83
269.358
268.907
268.478
268.069
267.681
267.314
266.967
266.64
266.332
266.044
265.774
265.524
265.292
265.079
264.884
264.707
264.548
264.407
264.283
264.177
264.088
264.017
263.963
263.926
263.906
263.903
398.111
394.349
390.607
386.901
383.244
379.646
376.118
372.664
369.29
366
362.793
359.672
356.634
353.679
350.804
348.007
345.285
342.636
340.056
337.543
335.095
332.709
330.382
328.112
325.897
323.736
321.626
319.565
317.553
315.589
313.669
311.795
309.964
308.175
306.428
304.722
303.055
301.428
299.84
298.29
296.777
295.301
293.861
292.457
291.089
289.755
288.456
287.191
285.959
284.76
283.594
282.461
281.359
280.288
279.249
278.24
277.261
276.313
275.393
274.503
273.642
272.808
272.003
271.225
270.474
269.749
269.051
268.379
267.732
267.111
266.514
265.942
265.393
264.868
264.367
263.889
263.433
262.999
262.588
262.198
261.829
261.482
261.155
260.849
260.563
260.297
260.051
259.825
259.618
259.43
259.261
259.111
258.98
258.867
258.773
258.697
258.64
258.6
258.579
258.576
398.113
394.354
390.611
386.899
383.229
379.612
376.053
372.561
369.14
365.793
362.522
359.329
356.213
353.173
350.209
347.319
344.501
341.752
339.071
336.456
333.904
331.413
328.981
326.606
324.287
322.022
319.808
317.646
315.533
313.468
311.449
309.477
307.55
305.667
303.827
302.029
300.273
298.558
296.883
295.248
293.652
292.095
290.576
289.094
287.65
286.242
284.87
283.534
282.233
280.967
279.735
278.538
277.374
276.243
275.145
274.079
273.045
272.042
271.071
270.13
269.219
268.339
267.487
266.665
265.871
265.105
264.367
263.657
262.973
262.316
261.685
261.08
260.5
259.945
259.415
258.909
258.427
257.969
257.534
257.121
256.732
256.364
256.019
255.695
255.393
255.112
254.851
254.612
254.393
254.194
254.016
253.857
253.718
253.599
253.499
253.419
253.358
253.317
253.294
253.291
398.11
394.342
390.589
386.862
383.172
379.527
375.935
372.401
368.93
365.527
362.192
358.929
355.737
352.616
349.567
346.587
343.676
340.832
338.053
335.339
332.686
330.094
327.561
325.085
322.664
320.297
317.984
315.721
313.509
311.346
309.232
307.164
305.143
303.167
301.235
299.348
297.504
295.702
293.942
292.224
290.546
288.909
287.312
285.753
284.234
282.753
281.309
279.903
278.534
277.202
275.905
274.645
273.419
272.229
271.072
269.95
268.861
267.805
266.782
265.791
264.832
263.905
263.008
262.142
261.305
260.499
259.721
258.973
258.252
257.56
256.895
256.258
255.647
255.062
254.504
253.971
253.463
252.98
252.521
252.087
251.676
251.289
250.925
250.584
250.265
249.969
249.695
249.442
249.211
249.002
248.814
248.646
248.5
248.374
248.269
248.185
248.121
248.077
248.053
248.049
398.102
394.317
390.544
386.795
383.078
379.401
375.77
372.191
368.67
365.209
361.811
358.479
355.213
352.013
348.881
345.815
342.814
339.878
337.005
334.195
331.445
328.755
326.124
323.549
321.03
318.565
316.153
313.793
311.485
309.227
307.017
304.856
302.743
300.676
298.655
296.68
294.749
292.862
291.019
289.218
287.461
285.744
284.07
282.436
280.842
279.289
277.775
276.3
274.864
273.466
272.106
270.783
269.497
268.247
267.033
265.855
264.712
263.604
262.53
261.49
260.483
259.508
258.567
257.657
256.779
255.932
255.115
254.329
253.573
252.845
252.147
251.478
250.836
250.222
249.635
249.075
248.542
248.034
247.552
247.096
246.664
246.258
245.875
245.517
245.182
244.871
244.583
244.318
244.075
243.855
243.657
243.481
243.328
243.196
243.085
242.996
242.929
242.882
242.857
242.854
398.09
394.28
390.481
386.703
382.953
379.239
375.566
371.94
368.366
364.847
361.386
357.986
354.647
351.37
348.157
345.007
341.919
338.894
335.93
333.027
330.183
327.399
324.671
322.001
319.386
316.825
314.318
311.864
309.461
307.109
304.808
302.555
300.352
298.196
296.087
294.025
292.01
290.039
288.114
286.233
284.396
282.602
280.852
279.143
277.477
275.853
274.269
272.727
271.224
269.761
268.338
266.954
265.608
264.3
263.03
261.796
260.6
259.44
258.315
257.226
256.171
255.151
254.165
253.213
252.293
251.406
250.551
249.728
248.935
248.174
247.442
246.741
246.069
245.426
244.811
244.224
243.666
243.134
242.629
242.151
241.699
241.273
240.872
240.497
240.146
239.82
239.518
239.24
238.986
238.755
238.548
238.364
238.203
238.064
237.949
237.855
237.785
237.736
237.71
237.706
398.074
394.234
390.402
386.589
382.802
379.046
375.328
371.653
368.025
364.447
360.923
357.454
354.044
350.692
347.4
344.168
340.996
337.884
334.831
331.838
328.903
326.026
323.206
320.442
317.734
315.08
312.48
309.933
307.439
304.996
302.604
300.262
297.97
295.727
293.533
291.386
289.287
287.235
285.229
283.269
281.354
279.484
277.659
275.877
274.14
272.445
270.793
269.183
267.616
266.089
264.604
263.159
261.754
260.388
259.062
257.775
256.525
255.314
254.139
253.002
251.901
250.836
249.806
248.811
247.85
246.923
246.03
245.17
244.342
243.547
242.783
242.05
241.348
240.676
240.034
239.421
238.837
238.281
237.754
237.254
236.782
236.337
235.918
235.525
235.159
234.818
234.503
234.212
233.946
233.705
233.489
233.296
233.128
232.983
232.862
232.764
232.69
232.64
232.612
232.608
398.056
394.18
390.311
386.458
382.629
378.829
375.063
371.335
367.651
364.014
360.426
356.89
353.409
349.983
346.613
343.301
340.047
336.85
333.712
330.631
327.607
324.64
321.73
318.875
316.076
313.332
310.641
308.004
305.42
302.888
300.408
297.979
295.6
293.272
290.993
288.764
286.583
284.45
282.364
280.327
278.335
276.391
274.492
272.639
270.83
269.067
267.348
265.672
264.04
262.451
260.904
259.399
257.936
256.514
255.133
253.792
252.49
251.228
250.005
248.82
247.672
246.562
245.489
244.452
243.451
242.486
241.555
240.658
239.796
238.967
238.17
237.406
236.674
235.974
235.304
234.665
234.057
233.478
232.928
232.407
231.915
231.45
231.014
230.604
230.222
229.867
229.538
229.235
228.958
228.707
228.481
228.28
228.104
227.953
227.827
227.725
227.648
227.595
227.566
227.562
398.036
394.119
390.208
386.312
382.438
378.589
374.772
370.991
367.25
363.552
359.9
356.298
352.746
349.247
345.801
342.411
339.076
335.797
332.574
329.408
326.298
323.244
320.245
317.303
314.415
311.582
308.803
306.078
303.406
300.787
298.22
295.706
293.243
290.831
288.47
286.159
283.897
281.685
279.523
277.408
275.342
273.324
271.353
269.429
267.551
265.72
263.934
262.194
260.499
258.847
257.24
255.677
254.156
252.679
251.243
249.849
248.496
247.184
245.912
244.68
243.487
242.333
241.217
240.139
239.098
238.094
237.126
236.194
235.297
234.434
233.606
232.812
232.05
231.322
230.625
229.961
229.327
228.725
228.153
227.611
227.099
226.616
226.162
225.736
225.338
224.969
224.626
224.311
224.023
223.761
223.526
223.317
223.134
222.977
222.846
222.74
222.659
222.604
222.574
222.569
398.014
394.052
390.096
386.153
382.23
378.332
374.462
370.625
366.825
363.066
359.35
355.681
352.059
348.488
344.968
341.5
338.086
334.727
331.422
328.172
324.978
321.839
318.754
315.725
312.751
309.832
306.967
304.155
301.398
298.694
296.043
293.445
290.899
288.405
285.963
283.572
281.233
278.943
276.704
274.515
272.375
270.285
268.243
266.249
264.304
262.406
260.555
258.75
256.993
255.281
253.614
251.993
250.416
248.883
247.394
245.948
244.545
243.183
241.864
240.585
239.348
238.15
236.992
235.873
234.793
233.751
232.746
231.778
230.847
229.952
229.092
228.268
227.477
226.721
225.998
225.308
224.65
224.025
223.431
222.869
222.337
221.835
221.364
220.922
220.509
220.125
219.769
219.442
219.143
218.871
218.627
218.41
218.22
218.057
217.92
217.81
217.726
217.669
217.638
217.632
397.99
393.981
389.976
385.984
382.01
378.058
374.134
370.24
366.381
362.56
358.78
355.043
351.352
347.709
344.116
340.573
337.081
333.643
330.258
326.927
323.65
320.427
317.259
314.146
311.088
308.084
305.134
302.239
299.398
296.611
293.878
291.198
288.571
285.997
283.476
281.007
278.59
276.224
273.911
271.648
269.436
267.274
265.163
263.101
261.088
259.125
257.21
255.343
253.524
251.752
250.027
248.349
246.716
245.129
243.587
242.09
240.637
239.227
237.861
236.536
235.255
234.014
232.815
231.656
230.537
229.457
228.416
227.413
226.449
225.521
224.63
223.776
222.957
222.173
221.424
220.709
220.028
219.379
218.764
218.181
217.63
217.11
216.621
216.163
215.735
215.337
214.968
214.629
214.319
214.037
213.784
213.559
213.362
213.193
213.051
212.937
212.85
212.791
212.758
212.753
397.965
393.905
389.849
385.805
381.778
377.772
373.791
369.84
365.92
362.037
358.192
354.388
350.629
346.915
343.248
339.631
336.064
332.548
329.084
325.673
322.315
319.012
315.762
312.566
309.426
306.339
303.307
300.33
297.407
294.539
291.725
288.965
286.259
283.607
281.008
278.462
275.97
273.53
271.143
268.808
266.525
264.294
262.114
259.985
257.907
255.879
253.901
251.972
250.093
248.262
246.48
244.745
243.058
241.418
239.824
238.276
236.774
235.317
233.904
232.535
231.209
229.927
228.686
227.488
226.331
225.214
224.137
223.101
222.103
221.143
220.222
219.338
218.491
217.68
216.905
216.165
215.46
214.79
214.153
213.55
212.979
212.442
211.936
211.462
211.019
210.607
210.226
209.875
209.554
209.262
209
208.767
208.563
208.388
208.241
208.123
208.033
207.971
207.938
207.932
397.939
393.826
389.717
385.62
381.538
377.475
373.437
369.426
365.445
361.499
357.589
353.719
349.891
346.107
342.369
338.678
335.036
331.444
327.903
324.414
320.977
317.594
314.264
310.988
307.767
304.6
301.488
298.43
295.428
292.48
289.587
286.749
283.965
281.236
278.561
275.94
273.374
270.861
268.402
265.997
263.644
261.345
259.098
256.903
254.76
252.669
250.629
248.64
246.701
244.813
242.974
241.184
239.444
237.751
236.106
234.509
232.958
231.454
229.995
228.582
227.214
225.89
224.609
223.371
222.176
221.023
219.912
218.841
217.811
216.82
215.868
214.955
214.08
213.243
212.442
211.678
210.95
210.258
209.6
208.977
208.387
207.832
207.309
206.819
206.362
205.936
205.542
205.18
204.848
204.547
204.276
204.035
203.824
203.643
203.492
203.369
203.276
203.213
203.178
203.171
397.912
393.744
389.581
385.428
381.289
377.17
373.072
369.001
364.959
360.949
356.975
353.038
349.142
345.289
341.479
337.716
334
330.334
326.717
323.151
319.637
316.176
312.768
309.414
306.114
302.868
299.677
296.541
293.46
290.435
287.464
284.55
281.69
278.886
276.137
273.443
270.804
268.22
265.69
263.215
260.795
258.428
256.115
253.856
251.65
249.497
247.396
245.347
243.351
241.405
239.511
237.667
235.873
234.129
232.434
230.788
229.19
227.639
226.136
224.679
223.269
221.904
220.583
219.308
218.075
216.887
215.74
214.636
213.574
212.552
211.571
210.629
209.727
208.863
208.037
207.249
206.499
205.784
205.106
204.463
203.855
203.282
202.743
202.238
201.766
201.327
200.92
200.546
200.204
199.893
199.613
199.365
199.147
198.961
198.804
198.678
198.582
198.516
198.48
198.473
397.884
393.661
389.44
385.231
381.035
376.857
372.7
368.568
364.463
360.39
356.351
352.349
348.385
344.462
340.583
336.748
332.96
329.22
325.528
321.888
318.298
314.76
311.276
307.845
304.467
301.145
297.877
294.664
291.507
288.405
285.359
282.369
279.436
276.558
273.736
270.97
268.26
265.606
263.008
260.465
257.977
255.545
253.168
250.845
248.577
246.363
244.202
242.095
240.041
238.04
236.091
234.194
232.349
230.554
228.81
227.115
225.471
223.875
222.327
220.828
219.376
217.97
216.611
215.298
214.029
212.805
211.625
210.488
209.393
208.341
207.331
206.361
205.432
204.542
203.692
202.88
202.107
201.371
200.672
200.01
199.384
198.793
198.238
197.718
197.231
196.779
196.36
195.975
195.622
195.302
195.014
194.758
194.534
194.341
194.18
194.049
193.95
193.882
193.845
193.838
397.855
393.575
389.297
385.03
380.775
376.538
372.321
368.127
363.961
359.824
355.72
351.652
347.621
343.63
339.681
335.776
331.916
328.103
324.339
320.625
316.961
313.348
309.789
306.282
302.829
299.431
296.088
292.8
289.568
286.392
283.273
280.209
277.203
274.253
271.36
268.524
265.744
263.022
260.356
257.746
255.193
252.697
250.256
247.871
245.542
243.268
241.049
238.885
236.775
234.719
232.717
230.767
228.871
227.026
225.234
223.492
221.801
220.161
218.57
217.029
215.536
214.091
212.693
211.343
210.038
208.779
207.566
206.397
205.271
204.189
203.15
202.152
201.196
200.281
199.407
198.572
197.776
197.019
196.301
195.619
194.975
194.368
193.796
193.261
192.761
192.295
191.864
191.468
191.105
190.775
190.479
190.215
189.984
189.786
189.62
189.486
189.384
189.314
189.275
189.268
397.826
393.488
389.152
384.825
380.512
376.214
371.937
367.682
363.453
359.252
355.084
350.95
346.852
342.793
338.776
334.801
330.871
326.987
323.151
319.364
315.627
311.942
308.308
304.728
301.202
297.73
294.313
290.952
287.646
284.398
281.206
278.071
274.993
271.973
269.01
266.105
263.257
260.467
257.735
255.061
252.444
249.884
247.381
244.935
242.547
240.214
237.938
235.717
233.552
231.443
229.388
227.387
225.44
223.547
221.707
219.919
218.184
216.499
214.866
213.283
211.75
210.266
208.831
207.444
206.104
204.811
203.565
202.364
201.208
200.096
199.029
198.004
197.022
196.082
195.184
194.326
193.508
192.731
191.992
191.292
190.63
190.006
189.419
188.869
188.354
187.876
187.433
187.025
186.652
186.314
186.009
185.738
185.501
185.297
185.126
184.988
184.883
184.811
184.771
184.764
397.797
393.4
389.005
384.619
380.246
375.888
371.549
367.232
362.941
358.677
354.444
350.245
346.081
341.955
337.87
333.826
329.827
325.873
321.966
318.108
314.3
310.542
306.837
303.184
299.585
296.041
292.552
289.119
285.742
282.422
279.16
275.955
272.807
269.718
266.687
263.714
260.8
257.945
255.148
252.409
249.729
247.108
244.544
242.039
239.592
237.202
234.869
232.594
230.375
228.212
226.106
224.055
222.059
220.118
218.231
216.398
214.618
212.891
211.216
209.592
208.02
206.498
205.026
203.603
202.228
200.902
199.623
198.391
197.205
196.064
194.969
193.917
192.91
191.945
191.023
190.143
189.304
188.506
187.748
187.029
186.35
185.709
185.107
184.542
184.014
183.523
183.068
182.65
182.267
181.919
181.606
181.328
181.084
180.875
180.7
180.558
180.45
180.376
180.335
180.327
397.767
393.311
388.856
384.411
379.977
375.559
371.159
366.78
362.426
358.099
353.802
349.538
345.309
341.117
336.964
332.853
328.785
324.762
320.786
316.858
312.979
309.151
305.375
301.652
297.982
294.367
290.808
287.304
283.857
280.468
277.136
273.862
270.647
267.49
264.392
261.354
258.374
255.454
252.594
249.793
247.052
244.369
241.747
239.183
236.678
234.232
231.844
229.514
227.243
225.029
222.872
220.771
218.727
216.739
214.807
212.929
211.106
209.336
207.62
205.957
204.346
202.786
201.278
199.819
198.411
197.052
195.741
194.478
193.263
192.094
190.971
189.893
188.861
187.872
186.927
186.024
185.164
184.346
183.569
182.832
182.136
181.479
180.861
180.282
179.741
179.237
178.771
178.342
177.949
177.592
177.271
176.986
176.736
176.521
176.341
176.196
176.085
176.009
175.967
175.958
397.737
393.221
388.707
384.202
379.708
375.229
370.768
366.327
361.911
357.521
353.16
348.831
344.537
340.279
336.061
331.883
327.747
323.657
319.612
315.615
311.668
307.771
303.925
300.132
296.393
292.709
289.081
285.508
281.993
278.535
275.135
271.794
268.512
265.29
262.127
259.023
255.98
252.997
250.075
247.213
244.411
241.67
238.989
236.368
233.806
231.305
228.863
226.481
224.158
221.893
219.686
217.538
215.446
213.412
211.435
209.513
207.648
205.837
204.08
202.378
200.729
199.133
197.588
196.096
194.654
193.262
191.921
190.628
189.383
188.186
187.036
185.933
184.875
183.863
182.895
181.971
181.09
180.252
179.456
178.702
177.989
177.316
176.683
176.09
175.535
175.02
174.542
174.102
173.7
173.334
173.006
172.713
172.457
172.237
172.052
171.903
171.79
171.711
171.668
171.659
397.707
393.132
388.558
383.992
379.438
374.898
370.376
365.874
361.395
356.942
352.519
348.126
343.767
339.445
335.161
330.917
326.715
322.557
318.446
314.381
310.366
306.401
302.488
298.627
294.82
291.068
287.372
283.732
280.15
276.625
273.159
269.752
266.405
263.118
259.891
256.725
253.619
250.575
247.592
244.67
241.809
239.01
236.271
233.594
230.978
228.423
225.928
223.494
221.12
218.806
216.55
214.354
212.217
210.138
208.116
206.152
204.244
202.393
200.597
198.856
197.17
195.538
193.959
192.432
190.958
189.534
188.162
186.84
185.566
184.342
183.166
182.037
180.955
179.92
178.929
177.984
177.083
176.225
175.411
174.639
173.909
173.221
172.573
171.966
171.399
170.871
170.382
169.932
169.52
169.146
168.81
168.51
168.248
168.023
167.834
167.681
167.565
167.484
167.44
167.43
397.678
393.042
388.408
383.783
379.168
374.568
369.984
365.421
360.881
356.366
351.879
347.424
343.001
338.614
334.265
329.956
325.689
321.466
317.288
313.158
309.076
305.045
301.065
297.137
293.264
289.445
285.683
281.977
278.329
274.739
271.209
267.737
264.326
260.976
257.687
254.459
251.292
248.187
245.145
242.164
239.246
236.39
233.596
230.864
228.194
225.586
223.04
220.555
218.131
215.768
213.465
211.223
209.04
206.917
204.852
202.846
200.897
199.006
197.172
195.393
193.67
192.003
190.389
188.83
187.323
185.869
184.466
183.115
181.814
180.563
179.361
178.207
177.101
176.042
175.03
174.064
173.143
172.266
171.434
170.645
169.899
169.195
168.533
167.912
167.332
166.793
166.293
165.833
165.411
165.029
164.685
164.379
164.11
163.88
163.686
163.53
163.411
163.328
163.283
163.273
397.648
392.953
388.259
383.574
378.899
374.238
369.594
364.97
360.368
355.791
351.243
346.725
342.239
337.789
333.376
329.003
324.672
320.384
316.141
311.946
307.799
303.702
299.657