/*--------------------------------*- C++ -*----------------------------------*\
| =========                 |                                                 |
| \\      /  F ield         | OpenFOAM: The Open Source CFD Toolbox           |
|  \\    /   O peration     | Version:  2406                                  |
|   \\  /    A nd           | Website:  www.openfoam.com                      |
|    \\/     M anipulation  |                                                 |
\*---------------------------------------------------------------------------*/
FoamFile
{
    version     2.0;
    format      ascii;
    arch        "LSB;label=32;scalar=64";
    class       volScalarField;
    location    "36";
    object      p;
}
// * * * * * * * * * * * * * * * * * * * * * * * * * * * * * * * * * * * * * //

dimensions      [0 2 -2 0 0 0 0];

internalField   nonuniform List<scalar> 
1176
(
0.79699977
0.79702264
0.7970463
0.79705397
0.79702244
0.79692774
0.79677051
0.79658434
0.79640514
0.79623799
0.79608336
0.79598776
0.79598775
0.79608336
0.79623798
0.79640512
0.7965843
0.79677044
0.79692763
0.79702228
0.79705376
0.79704605
0.79702237
0.7969995
0.77385134
0.77380438
0.77375662
0.77373972
0.77380222
0.77400458
0.7743699
0.7748343
0.77526516
0.77555126
0.77567066
0.77570491
0.77570491
0.77567065
0.77555127
0.77526519
0.77483437
0.77437001
0.77400475
0.77380244
0.77373997
0.77375689
0.77380465
0.77385159
0.75676658
0.75678859
0.75680839
0.75680648
0.75674741
0.75658624
0.75631447
0.75598652
0.75568031
0.75546752
0.75535671
0.75530789
0.75530789
0.7553567
0.7554675
0.75568028
0.75598649
0.75631443
0.75658618
0.75674734
0.75680639
0.7568083
0.75678851
0.7567665
0.74009469
0.74010381
0.74011587
0.74013227
0.74015482
0.74017239
0.74014015
0.74000674
0.73977463
0.73950206
0.73927786
0.73915736
0.73915736
0.73927786
0.73950207
0.73977463
0.74000674
0.74014015
0.74017237
0.74015479
0.74013224
0.74011583
0.74010377
0.74009464
0.72367564
0.72367959
0.72368459
0.72369065
0.72370035
0.72372062
0.72375681
0.72379832
0.72381999
0.72379611
0.72373399
0.72368136
0.72368136
0.72373399
0.72379611
0.72381999
0.72379832
0.7237568
0.72372062
0.72370035
0.72369065
0.72368458
0.72367959
0.72367564
0.70721398
0.7072164
0.70721964
0.70722369
0.7072286
0.70723543
0.7072496
0.70728091
0.7073309
0.70738815
0.70743085
0.70744751
0.7074475
0.70743085
0.70738815
0.7073309
0.70728091
0.70724959
0.70723542
0.70722859
0.70722368
0.70721964
0.7072164
0.70721398
0.69080818
0.69081031
0.69081312
0.69081655
0.69082045
0.69082396
0.69082603
0.6908282
0.69083675
0.69085398
0.69087188
0.6908836
0.69088359
0.69087188
0.69085398
0.69083675
0.6908282
0.69082603
0.69082396
0.69082045
0.69081655
0.69081312
0.69081031
0.69080818
0.67442831
0.67443007
0.67443239
0.67443531
0.67443899
0.67444336
0.67444781
0.67445097
0.6744522
0.67445382
0.67445086
0.67444835
0.67444835
0.67445086
0.67445382
0.6744522
0.67445097
0.67444781
0.67444336
0.67443899
0.67443532
0.6744324
0.67443007
0.67442831
0.65807402
0.65807548
0.65807741
0.65807982
0.65808283
0.65808662
0.65809167
0.65809871
0.6581074
0.65811743
0.65812519
0.65812878
0.65812878
0.65812519
0.65811743
0.6581074
0.65809871
0.65809167
0.65808662
0.65808284
0.65807982
0.65807741
0.65807548
0.65807403
0.64173633
0.64173753
0.64173914
0.64174118
0.64174374
0.64174692
0.64175108
0.64175747
0.64176763
0.64178077
0.64179509
0.6418044
0.6418044
0.64179509
0.64178077
0.64176763
0.64175747
0.64175108
0.64174692
0.64174374
0.64174118
0.64173914
0.64173754
0.64173633
0.62541195
0.62541298
0.62541435
0.6254161
0.62541831
0.62542104
0.62542443
0.62542928
0.62543714
0.6254478
0.62546036
0.6254695
0.6254695
0.62546036
0.6254478
0.62543714
0.62542928
0.62542443
0.62542104
0.62541831
0.6254161
0.62541436
0.62541298
0.62541196
0.60909848
0.60909937
0.60910057
0.60910209
0.60910403
0.60910643
0.60910939
0.6091134
0.60911962
0.60912828
0.60913885
0.6091463
0.6091463
0.60913885
0.60912828
0.60911962
0.6091134
0.60910939
0.60910643
0.60910404
0.60910209
0.60910057
0.60909937
0.60909848
0.59279428
0.59279507
0.59279613
0.59279747
0.59279919
0.59280132
0.59280396
0.5928075
0.5928129
0.59282065
0.59283034
0.59283702
0.59283702
0.59283034
0.59282065
0.5928129
0.5928075
0.59280396
0.59280133
0.5927992
0.59279748
0.59279613
0.59279507
0.59279429
0.57649806
0.57649876
0.5764997
0.57650091
0.57650244
0.57650435
0.5765067
0.57650983
0.5765146
0.57652158
0.57653024
0.57653633
0.57653633
0.57653024
0.57652158
0.5765146
0.57650983
0.5765067
0.57650435
0.57650245
0.57650091
0.57649971
0.57649877
0.57649807
0.56020879
0.56020942
0.56021027
0.56021135
0.56021273
0.56021445
0.56021655
0.56021931
0.56022347
0.5602296
0.56023713
0.56024253
0.56024253
0.56023713
0.5602296
0.56022347
0.56021931
0.56021655
0.56021445
0.56021273
0.56021135
0.56021027
0.56020943
0.5602088
0.54392567
0.54392624
0.543927
0.54392798
0.54392924
0.54393079
0.54393269
0.54393514
0.54393878
0.54394415
0.54395069
0.54395548
0.54395548
0.54395069
0.54394415
0.54393878
0.54393514
0.54393269
0.54393079
0.54392924
0.54392799
0.54392701
0.54392625
0.54392568
0.52764804
0.52764856
0.52764926
0.52765015
0.52765129
0.52765271
0.52765443
0.52765663
0.52765985
0.52766462
0.52767034
0.52767463
0.52767463
0.52767034
0.52766462
0.52765985
0.52765663
0.52765443
0.52765271
0.5276513
0.52765015
0.52764926
0.52764857
0.52764805
0.51137537
0.51137584
0.51137647
0.51137729
0.51137834
0.51137964
0.51138121
0.5113832
0.51138607
0.51139032
0.51139537
0.51139924
0.51139924
0.51139537
0.51139032
0.51138607
0.5113832
0.51138121
0.51137964
0.51137834
0.5113773
0.51137648
0.51137585
0.51137537
0.49510717
0.4951076
0.49510819
0.49510894
0.4951099
0.49511109
0.49511253
0.49511434
0.49511692
0.49512072
0.49512522
0.49512871
0.49512871
0.49512522
0.49512072
0.49511692
0.49511434
0.49511253
0.4951111
0.49510991
0.49510894
0.4951082
0.49510761
0.49510718
0.47884306
0.47884346
0.478844
0.47884469
0.47884558
0.47884668
0.478848
0.47884965
0.47885197
0.4788554
0.47885943
0.47886259
0.47886259
0.47885943
0.4788554
0.47885197
0.47884965
0.478848
0.47884668
0.47884558
0.4788447
0.47884401
0.47884347
0.47884307
0.46258269
0.46258306
0.46258356
0.4625842
0.46258502
0.46258604
0.46258726
0.46258877
0.46259087
0.46259397
0.46259762
0.46260048
0.46260048
0.46259762
0.46259397
0.46259087
0.46258877
0.46258726
0.46258604
0.46258502
0.4625842
0.46258356
0.46258307
0.4625827
0.44632576
0.4463261
0.44632656
0.44632715
0.44632791
0.44632886
0.44632999
0.44633138
0.44633329
0.44633611
0.44633943
0.44634204
0.44634204
0.44633943
0.44633611
0.44633329
0.44633138
0.44632999
0.44632886
0.44632792
0.44632716
0.44632656
0.4463261
0.44632576
0.43007199
0.43007231
0.43007274
0.43007329
0.430074
0.43007488
0.43007593
0.43007721
0.43007896
0.43008153
0.43008456
0.43008695
0.43008695
0.43008456
0.43008153
0.43007896
0.43007721
0.43007593
0.43007488
0.430074
0.43007329
0.43007274
0.43007231
0.43007199
0.41382116
0.41382145
0.41382185
0.41382237
0.41382303
0.41382384
0.41382482
0.41382601
0.41382761
0.41382997
0.41383276
0.41383494
0.41383494
0.41383276
0.41382997
0.41382761
0.41382601
0.41382482
0.41382384
0.41382303
0.41382237
0.41382185
0.41382145
0.41382116
0.39757304
0.39757332
0.39757369
0.39757417
0.39757478
0.39757555
0.39757646
0.39757756
0.39757904
0.3975812
0.39758378
0.39758578
0.39758578
0.39758378
0.3975812
0.39757904
0.39757756
0.39757646
0.39757555
0.39757478
0.39757417
0.39757369
0.39757331
0.39757304
0.38132745
0.3813277
0.38132805
0.3813285
0.38132908
0.38132979
0.38133064
0.38133167
0.38133303
0.38133503
0.38133741
0.38133926
0.38133926
0.38133741
0.38133503
0.38133303
0.38133167
0.38133064
0.38132979
0.38132907
0.3813285
0.38132805
0.3813277
0.38132744
0.3650842
0.36508445
0.36508477
0.36508519
0.36508573
0.3650864
0.36508719
0.36508815
0.36508942
0.36509126
0.36509347
0.36509517
0.36509517
0.36509347
0.36509126
0.36508942
0.36508815
0.36508719
0.36508639
0.36508572
0.36508518
0.36508476
0.36508443
0.36508419
0.34884315
0.34884338
0.34884368
0.34884408
0.34884458
0.34884521
0.34884595
0.34884685
0.34884802
0.34884973
0.34885178
0.34885336
0.34885336
0.34885178
0.34884973
0.34884802
0.34884685
0.34884595
0.3488452
0.34884457
0.34884406
0.34884367
0.34884336
0.34884313
0.33260415
0.33260436
0.33260465
0.33260502
0.33260549
0.33260608
0.33260678
0.33260761
0.33260871
0.33261029
0.3326122
0.33261367
0.33261367
0.3326122
0.33261029
0.33260871
0.33260761
0.33260678
0.33260607
0.33260548
0.332605
0.33260462
0.33260433
0.33260412
0.31636706
0.31636726
0.31636753
0.31636787
0.31636832
0.31636887
0.31636953
0.31637031
0.31637133
0.3163728
0.31637459
0.31637595
0.31637595
0.31637459
0.3163728
0.31637133
0.31637031
0.31636953
0.31636886
0.3163683
0.31636785
0.3163675
0.31636722
0.31636702
0.30013176
0.30013195
0.3001322
0.30013253
0.30013295
0.30013347
0.30013408
0.30013481
0.30013577
0.30013714
0.30013881
0.30014008
0.30014008
0.30013881
0.30013714
0.30013577
0.30013482
0.30013408
0.30013345
0.30013292
0.30013249
0.30013216
0.3001319
0.30013171
0.28389815
0.28389832
0.28389856
0.28389887
0.28389926
0.28389975
0.28390033
0.28390102
0.28390191
0.28390318
0.28390475
0.28390593
0.28390593
0.28390475
0.28390319
0.28390191
0.28390102
0.28390033
0.28389973
0.28389923
0.28389882
0.28389851
0.28389826
0.28389808
0.26766611
0.26766627
0.2676665
0.26766679
0.26766716
0.26766762
0.26766816
0.26766881
0.26766964
0.26767084
0.2676723
0.26767341
0.26767341
0.2676723
0.26767084
0.26766965
0.26766881
0.26766816
0.2676676
0.26766712
0.26766673
0.26766643
0.2676662
0.26766603
0.25143555
0.25143571
0.25143592
0.25143619
0.25143654
0.25143697
0.25143748
0.25143809
0.25143887
0.25143999
0.25144136
0.25144239
0.25144239
0.25144136
0.25144
0.25143888
0.2514381
0.25143748
0.25143695
0.25143649
0.25143612
0.25143584
0.25143561
0.25143545
0.23520639
0.23520653
0.23520673
0.23520699
0.23520732
0.23520772
0.23520821
0.23520878
0.23520951
0.23521056
0.23521185
0.23521282
0.23521282
0.23521185
0.23521057
0.23520953
0.23520879
0.2352082
0.23520769
0.23520726
0.2352069
0.23520663
0.23520642
0.23520626
0.21897853
0.21897867
0.21897886
0.2189791
0.21897941
0.21897979
0.21898025
0.21898079
0.21898147
0.21898245
0.21898366
0.21898457
0.21898457
0.21898367
0.21898246
0.21898149
0.2189808
0.21898024
0.21897976
0.21897934
0.218979
0.21897874
0.21897853
0.21897838
0.20275191
0.20275204
0.20275221
0.20275244
0.20275273
0.2027531
0.20275353
0.20275403
0.20275468
0.2027556
0.20275674
0.20275759
0.20275759
0.20275675
0.20275561
0.2027547
0.20275405
0.20275352
0.20275305
0.20275265
0.20275232
0.20275208
0.20275188
0.20275173
0.18652645
0.18652657
0.18652674
0.18652695
0.18652723
0.18652757
0.18652798
0.18652845
0.18652906
0.18652992
0.18653099
0.18653178
0.18653178
0.18653099
0.18652994
0.18652909
0.18652847
0.18652797
0.18652752
0.18652713
0.18652681
0.18652657
0.18652638
0.18652624
0.17030208
0.17030219
0.17030235
0.17030255
0.17030282
0.17030314
0.17030352
0.17030397
0.17030454
0.17030536
0.17030636
0.17030711
0.17030711
0.17030637
0.17030537
0.17030457
0.170304
0.17030351
0.17030308
0.1703027
0.1703024
0.17030216
0.17030198
0.17030184
0.15407875
0.15407886
0.15407901
0.1540792
0.15407944
0.15407975
0.15408011
0.15408054
0.15408107
0.15408183
0.15408277
0.15408346
0.15408346
0.15408277
0.15408185
0.15408111
0.15408056
0.1540801
0.15407968
0.15407931
0.15407901
0.15407879
0.15407861
0.15407847
0.13785638
0.13785649
0.13785663
0.13785681
0.13785704
0.13785733
0.13785767
0.13785807
0.13785858
0.13785929
0.13786018
0.13786083
0.13786082
0.13786018
0.13785931
0.13785862
0.1378581
0.13785766
0.13785725
0.13785689
0.1378566
0.13785638
0.1378562
0.13785607
0.12163495
0.12163505
0.12163518
0.12163535
0.12163557
0.12163585
0.12163617
0.12163655
0.12163702
0.12163767
0.12163848
0.12163907
0.12163907
0.12163849
0.1216377
0.12163707
0.12163659
0.12163616
0.12163576
0.12163541
0.12163512
0.1216349
0.12163473
0.1216346
0.10541437
0.10541446
0.10541458
0.10541475
0.10541496
0.10541521
0.10541552
0.10541587
0.10541632
0.10541693
0.10541769
0.10541823
0.10541823
0.10541769
0.10541696
0.10541637
0.10541592
0.10541552
0.10541512
0.10541477
0.10541449
0.10541427
0.1054141
0.10541397
0.08919465
0.089194738
0.089194857
0.089195011
0.089195208
0.089195453
0.089195741
0.089196073
0.089196476
0.089197014
0.08919766
0.089198116
0.089198115
0.089197669
0.089197055
0.089196544
0.089196131
0.089195739
0.089195356
0.089195009
0.089194724
0.089194515
0.089194343
0.08919422
0.072975642
0.072975725
0.072975837
0.072975982
0.072976171
0.072976406
0.072976683
0.072977
0.072977377
0.07297787
0.072978445
0.07297883
0.072978828
0.072978455
0.072977916
0.072977455
0.072977068
0.072976685
0.072976303
0.072975957
0.072975674
0.072975469
0.072975302
0.072975182
0.056757519
0.0567576
0.056757708
0.056757847
0.056758023
0.05675824
0.056758494
0.056758781
0.056759103
0.056759475
0.056759842
0.056760043
0.056760041
0.056759852
0.056759526
0.05675919
0.056758858
0.056758502
0.056758137
0.056757804
0.056757531
0.056757333
0.05675717
0.056757052
0.04053973
0.040539801
0.040539899
0.040540029
0.040540206
0.040540432
0.040540698
0.040540992
0.040541319
0.040541723
0.04054218
0.040542472
0.040542469
0.040542189
0.040541774
0.04054141
0.040541075
0.040540711
0.040540333
0.040539994
0.040539726
0.040539541
0.040539395
0.040539293
0.02432346
0.024323543
0.02432365
0.024323778
0.024323926
0.024324089
0.024324264
0.024324449
0.024324616
0.024324691
0.024324593
0.024324345
0.024324341
0.024324599
0.024324739
0.024324703
0.024324527
0.024324274
0.024323998
0.024323737
0.024323516
0.024323347
0.024323207
0.024323103
0.0081053644
0.0081054349
0.0081055281
0.0081056499
0.0081058115
0.0081060122
0.0081062343
0.0081064752
0.0081068541
0.0081076878
0.0081091585
0.0081105149
0.0081105103
0.0081091577
0.008107715
0.0081069105
0.0081065284
0.0081062415
0.0081059502
0.0081056848
0.0081054779
0.0081053344
0.0081052248
0.0081051446
)
;

boundaryField
{
    INLET
    {
        type            zeroGradient;
    }
    OUTLET
    {
        type            fixedValue;
        value           uniform 0;
    }
    WALL
    {
        type            zeroGradient;
    }
    frontAndBackPlanes
    {
        type            empty;
    }
}


// ************************************************************************* //
