/*--------------------------------*- C++ -*----------------------------------*\
| =========                 |                                                 |
| \\      /  F ield         | OpenFOAM: The Open Source CFD Toolbox           |
|  \\    /   O peration     | Version:  2406                                  |
|   \\  /    A nd           | Website:  www.openfoam.com                      |
|    \\/     M anipulation  |                                                 |
\*---------------------------------------------------------------------------*/
FoamFile
{
    version     2.0;
    format      ascii;
    arch        "LSB;label=32;scalar=64";
    class       surfaceScalarField;
    location    "36";
    object      phi;
}
// * * * * * * * * * * * * * * * * * * * * * * * * * * * * * * * * * * * * * //

dimensions      [0 3 -1 0 0 0 0];

oriented        oriented;

internalField   nonuniform List<scalar> 
2279
(
2.3617501e-08
1.0148926e-05
2.0509769e-07
4.982375e-05
6.9331774e-07
0.00014252872
1.5784718e-06
0.00034353082
2.6788483e-06
0.00075378089
3.3472923e-06
0.0015415573
3.0435215e-06
0.0029497096
2.1516864e-06
0.005249171
1.4318068e-06
0.008582269
9.8959564e-07
0.012685995
5.126715e-07
0.016666385
4.8298133e-12
0.01918202
-5.1265804e-07
0.01918202
-9.8956475e-07
0.016666385
-1.4317305e-06
0.012685995
-2.1515246e-06
0.0085822689
-3.0432596e-06
0.0052491708
-3.3469633e-06
0.0029497094
-2.6785202e-06
0.0015415571
-1.5782055e-06
0.00075378078
-6.9313809e-07
0.00034353078
-2.0500051e-07
0.00014252871
-2.3579783e-08
4.9823749e-05
1.0148926e-05
-9.5248461e-08
1.0244175e-05
-5.3794004e-07
5.0266441e-05
-1.6230011e-06
0.00014361378
-3.5389522e-06
0.00034544677
-5.9201862e-06
0.00075616213
-7.4055018e-06
0.0015430426
-6.5847261e-06
0.0029488888
-3.9361574e-06
0.0052465224
-1.3883851e-06
0.0085797213
-6.5113326e-08
0.012684671
2.4241337e-07
0.016666078
3.5192953e-12
0.019182263
-2.424157e-07
0.019182263
6.5078815e-08
0.016666078
1.3882846e-06
0.012684671
3.9359487e-06
0.0085797214
6.5843944e-06
0.0052465226
7.4051048e-06
0.002948889
5.9198359e-06
0.0015430428
3.5387214e-06
0.00075616223
1.6228863e-06
0.00034544682
5.3789968e-07
0.0001436138
9.5245003e-08
5.026645e-05
1.0244177e-05
5.0139839e-08
1.0194035e-05
2.63345e-07
5.0053236e-05
7.4910723e-07
0.00014312802
1.5314585e-06
0.00034466442
2.336656e-06
0.00075535693
2.5476626e-06
0.0015428316
1.8390973e-06
0.0029495974
9.756766e-07
0.0052473858
6.7696144e-07
0.00858002
6.7179195e-07
0.012684677
4.8417474e-07
0.016666266
2.1968442e-11
0.019182747
-4.8412376e-07
0.019182747
-6.7172403e-07
0.016666265
-6.7687564e-07
0.012684676
-9.7558468e-07
0.0085800199
-1.8390099e-06
0.0052473858
-2.5475842e-06
0.0029495974
-2.3365989e-06
0.0015428316
-1.5314325e-06
0.00075535691
-7.4910524e-07
0.00034466441
-2.6335191e-07
0.00014312801
-5.0146924e-08
5.0053233e-05
1.0194034e-05
1.9586693e-08
1.0174448e-05
1.1184921e-07
4.9960974e-05
3.6128427e-07
0.00014287858
9.0504784e-07
0.00034412066
1.8716602e-06
0.00075439032
3.0948241e-06
0.0015416085
3.8987248e-06
0.0029487935
3.7285558e-06
0.005247556
2.9242109e-06
0.0085808243
1.9733738e-06
0.012685627
1.0127683e-06
0.016667226
-4.452948e-12
0.01918376
-1.0127796e-06
0.01918376
-1.9733901e-06
0.016667226
-2.9242304e-06
0.012685627
-3.7285697e-06
0.0085808243
-3.8987159e-06
0.005247556
-3.094791e-06
0.0029487935
-1.8716208e-06
0.0015416084
-9.0501732e-07
0.0007543903
-3.6126705e-07
0.00034412065
-1.1184208e-07
0.00014287858
-1.9585195e-08
4.9960972e-05
1.0174448e-05
8.083908e-09
1.0166364e-05
4.7141428e-08
4.9921916e-05
1.5494687e-07
0.00014277078
3.9846324e-07
0.00034387714
8.7979498e-07
0.00075390899
1.7015172e-06
0.0015407867
2.7512767e-06
0.0029477437
3.4623638e-06
0.0052468449
3.470865e-06
0.0085808158
2.8006902e-06
0.012686298
1.5505192e-06
0.016668476
5.5017085e-12
0.01918531
-1.5505085e-06
0.01918531
-2.8006807e-06
0.016668476
-3.470858e-06
0.012686298
-3.4623604e-06
0.0085808158
-2.751274e-06
0.0052468449
-1.701515e-06
0.0029477437
-8.7979459e-07
0.0015407867
-3.9846404e-07
0.00075390899
-1.5494761e-07
0.00034387714
-4.7141815e-08
0.00014277078
-8.0839146e-09
4.9921916e-05
1.0166364e-05
4.9358556e-09
1.0161429e-05
2.8698837e-08
4.9898153e-05
9.5121458e-08
0.00014270436
2.4921445e-07
0.00034372305
5.6360966e-07
0.00075359459
1.1213754e-06
0.001540229
1.9184585e-06
0.0029469467
2.6588222e-06
0.0052461046
2.8930611e-06
0.0085805816
2.4787694e-06
0.012686712
1.4344301e-06
0.016669521
5.5513162e-12
0.019186745
-1.4344195e-06
0.019186745
-2.47876e-06
0.016669521
-2.8930529e-06
0.012686712
-2.6588141e-06
0.0085805816
-1.9184501e-06
0.0052461046
-1.1213683e-06
0.0029469467
-5.6360578e-07
0.001540229
-2.4921336e-07
0.00075359459
-9.5121669e-08
0.00034372305
-2.8699271e-08
0.00014270436
-4.9361401e-09
4.9898153e-05
1.0161429e-05
4.4123398e-09
1.0157016e-05
2.5525637e-08
4.987704e-05
8.383006e-08
0.00014264605
2.1689405e-07
0.00034358999
4.8450096e-07
0.00075332698
9.5636055e-07
0.0015397571
1.6413734e-06
0.0029462616
2.3245824e-06
0.0052454214
2.5939538e-06
0.0085803122
2.2393641e-06
0.012687066
1.3066756e-06
0.016670453
3.1918295e-12
0.019188051
-1.30667e-06
0.019188051
-2.2393606e-06
0.016670453
-2.593953e-06
0.012687066
-2.3245829e-06
0.0085803122
-1.6413735e-06
0.0052454214
-9.5636079e-07
0.0029462616
-4.8450144e-07
0.0015397571
-2.1689437e-07
0.00075332698
-8.3830036e-08
0.00034358999
-2.5525445e-08
0.00014264605
-4.4121577e-09
4.987704e-05
1.0157016e-05
3.6255299e-09
1.0153391e-05
2.103656e-08
4.9859629e-05
6.943803e-08
0.00014259765
1.8114127e-07
0.00034347828
4.0971388e-07
0.00075309841
8.23903e-07
0.0015393429
1.4539912e-06
0.0029456316
2.1430743e-06
0.0052447323
2.4674723e-06
0.0085799878
2.1883931e-06
0.012687346
1.2866431e-06
0.016671355
1.432457e-12
0.019189338
-1.2866409e-06
0.019189338
-2.1883924e-06
0.016671355
-2.4674733e-06
0.012687346
-2.1430763e-06
0.0085799878
-1.4539939e-06
0.0052447323
-8.2390688e-07
0.0029456316
-4.0971771e-07
0.0015393429
-1.8114384e-07
0.00075309841
-6.9439179e-08
0.00034347828
-2.1036832e-08
0.00014259765
-3.6254406e-09
4.9859629e-05
1.0153391e-05
2.9831345e-09
1.0150408e-05
1.7346986e-08
4.9845265e-05
5.7377209e-08
0.00014255762
1.500736e-07
0.00034338559
3.4097059e-07
0.00075290751
6.9193074e-07
0.001538992
1.2441071e-06
0.0029450794
1.9041841e-06
0.0052440722
2.301599e-06
0.0085795904
2.0975069e-06
0.01268755
1.2520097e-06
0.016672201
-2.717726e-13
0.01919059
-1.2520106e-06
0.01919059
-2.0975086e-06
0.016672201
-2.3016013e-06
0.01268755
-1.9041861e-06
0.0085795904
-1.2441096e-06
0.0052440722
-6.9193399e-07
0.0029450794
-3.4097371e-07
0.001538992
-1.5007577e-07
0.00075290751
-5.7378291e-08
0.00034338559
-1.7347334e-08
0.00014255762
-2.9831383e-09
4.9845265e-05
1.0150408e-05
2.4654288e-09
1.0147942e-05
1.4363105e-08
4.9833367e-05
4.7626414e-08
0.00014252436
1.2502848e-07
0.00034330818
2.8558847e-07
0.00075274695
5.8417852e-07
0.0015386934
1.0641829e-06
0.0029445994
1.6641559e-06
0.0052434722
2.0898725e-06
0.0085791647
1.9528928e-06
0.012687687
1.1802434e-06
0.016672973
-1.0731109e-12
0.01919177
-1.1802457e-06
0.01919177
-1.9528955e-06
0.016672973
-2.0898755e-06
0.012687687
-1.6641584e-06
0.0085791647
-1.0641855e-06
0.0052434722
-5.8418126e-07
0.0029445994
-2.8559091e-07
0.0015386934
-1.2503022e-07
0.00075274695
-4.762733e-08
0.00034330818
-1.4363429e-08
0.00014252436
-2.4654543e-09
4.9833367e-05
1.0147942e-05
2.1024474e-09
1.014584e-05
1.2258048e-08
4.9823212e-05
4.0688206e-08
0.00014249593
1.0699004e-07
0.00034324188
2.4507808e-07
0.00075260886
5.0385219e-07
0.0015384346
9.2623342e-07
0.002944177
1.4715094e-06
0.0052429269
1.8909063e-06
0.0085787453
1.8050207e-06
0.012687772
1.1036885e-06
0.016673675
-1.341134e-12
0.019192874
-1.1036912e-06
0.019192874
-1.8050236e-06
0.016673675
-1.8909093e-06
0.012687772
-1.471512e-06
0.0085787453
-9.2623595e-07
0.005242927
-5.038547e-07
0.002944177
-2.450804e-07
0.0015384346
-1.0699181e-07
0.00075260887
-4.0689202e-08
0.00034324188
-1.2258428e-08
0.00014249593
-2.102494e-09
4.9823212e-05
1.014584e-05
1.8282299e-09
1.0144011e-05
1.0665481e-08
4.9814374e-05
3.5430254e-08
0.00014247116
9.3282865e-08
0.00034318403
2.141388e-07
0.00075248801
4.4192681e-07
0.0015382068
8.1811226e-07
0.0029438008
1.3163789e-06
0.0052424287
1.7244919e-06
0.0085783372
1.6780409e-06
0.012687819
1.0378029e-06
0.016674315
-1.3623366e-12
0.019193912
-1.0378057e-06
0.019193912
-1.6780437e-06
0.016674315
-1.7244947e-06
0.012687819
-1.3163814e-06
0.0085783372
-8.1811473e-07
0.0052424287
-4.4192939e-07
0.0029438008
-2.1414134e-07
0.0015382068
-9.3284876e-08
0.00075248801
-3.5431405e-08
0.00034318403
-1.0665922e-08
0.00014247116
-1.8282819e-09
4.9814374e-05
1.0144011e-05
1.6104869e-09
1.0142401e-05
9.3996626e-09
4.9806585e-05
3.1244392e-08
0.00014244932
8.2340296e-08
0.00034313293
1.8932037e-07
0.00075238103
3.9182235e-07
0.0015380043
7.2924036e-07
0.0029434634
1.1851441e-06
0.0052419728
1.5781735e-06
0.0085779441
1.5623376e-06
0.012687835
9.7669664e-07
0.0166749
-1.2573865e-12
0.019194888
-9.7669917e-07
0.019194888
-1.5623402e-06
0.0166749
-1.578176e-06
0.012687835
-1.1851465e-06
0.0085779442
-7.2924299e-07
0.0052419728
-3.9182538e-07
0.0029434634
-1.8932346e-07
0.0015380043
-8.2342733e-08
0.00075238103
-3.1245758e-08
0.00034313293
-9.4001652e-09
0.00014244932
-1.6105313e-09
4.9806585e-05
1.0142401e-05
1.4323187e-09
1.0140969e-05
8.3630377e-09
4.9799655e-05
2.781264e-08
0.00014242987
7.3352766e-08
0.00034308739
1.6886862e-07
0.00075228551
3.502676e-07
0.0015378229
6.545823e-07
0.0029431591
1.0720581e-06
0.0052415553
1.446432e-06
0.0085775698
1.4548747e-06
0.012687826
9.1880811e-07
0.016675437
-1.1262516e-12
0.019195807
-9.1881034e-07
0.019195807
-1.4548769e-06
0.016675437
-1.4464343e-06
0.012687826
-1.0720604e-06
0.0085775698
-6.5458519e-07
0.0052415553
-3.5027125e-07
0.0029431591
-1.6887241e-07
0.0015378229
-7.3355708e-08
0.00075228551
-2.7814251e-08
0.00034308739
-8.3636099e-09
0.00014242987
-1.4323552e-09
4.9799655e-05
1.0140969e-05
1.2850142e-09
1.0139684e-05
7.5051205e-09
4.9793434e-05
2.4968914e-08
0.0001424124
6.5891193e-08
0.00034304647
1.5183808e-07
0.00075219957
3.1548529e-07
0.0015376593
5.9149643e-07
0.0029428831
9.7478648e-07
0.005241172
1.3297038e-06
0.0085772149
1.3567859e-06
0.012687799
8.6525078e-07
0.016675928
-1.0473729e-12
0.019196672
-8.652528e-07
0.019196672
-1.3567878e-06
0.016675928
-1.3297057e-06
0.012687799
-9.7478865e-07
0.0085772149
-5.9149958e-07
0.005241172
-3.1548953e-07
0.0029428831
-1.5184252e-07
0.0015376593
-6.5894608e-08
0.00075219957
-2.4970756e-08
0.00034304647
-7.5057592e-09
0.0001424124
-1.2850449e-09
4.9793434e-05
1.0139684e-05
1.161503e-09
1.0138522e-05
6.7852531e-09
4.9787811e-05
2.2580546e-08
0.00014239661
5.9615515e-08
0.00034300944
1.3748123e-07
0.0007521217
2.8604683e-07
0.0015375107
5.3771122e-07
0.0029426314
8.9070605e-07
0.005240819
1.2263973e-06
0.0085768792
1.2674887e-06
0.012687758
8.1592561e-07
0.01667638
-1.0233059e-12
0.019197488
-8.1592754e-07
0.019197488
-1.2674905e-06
0.01667638
-1.2263989e-06
0.012687758
-8.9070809e-07
0.0085768792
-5.3771456e-07
0.005240819
-2.8605154e-07
0.0029426314
-1.3748619e-07
0.0015375107
-5.961931e-08
0.0007521217
-2.2582572e-08
0.00034300944
-6.7859445e-09
0.00014239661
-1.1615284e-09
4.9787811e-05
1.0138522e-05
1.0561632e-09
1.0137466e-05
6.1710273e-09
4.9782696e-05
2.0541427e-08
0.00014238224
5.4252229e-08
0.00034297572
1.2519092e-07
0.00075205076
2.6076822e-07
0.0015373751
4.9125208e-07
0.0029424009
8.1722541e-07
0.005240493
1.1341834e-06
0.0085765622
1.1857899e-06
0.012687707
7.7021372e-07
0.016676795
-1.0518506e-12
0.019198259
-7.7021565e-07
0.019198259
-1.1857914e-06
0.016676795
-1.1341847e-06
0.012687707
-8.172273e-07
0.0085765622
-4.9125551e-07
0.005240493
-2.6077323e-07
0.0029424009
-1.2519624e-07
0.0015373751
-5.4256281e-08
0.00075205076
-2.0543574e-08
0.00034297572
-6.1717491e-09
0.00014238224
-1.0561816e-09
4.9782696e-05
1.0137466e-05
9.6516056e-10
1.0136501e-05
5.640206e-09
4.9778021e-05
1.8778331e-08
0.0001423691
4.9611318e-08
0.00034294489
1.1454175e-07
0.00075198583
2.3881116e-07
0.0015372509
4.5070429e-07
0.002942189
7.5248301e-07
0.0052401913
1.0514996e-06
0.0085762632
1.1108308e-06
0.012687647
7.2768751e-07
0.016677178
-1.1177362e-12
0.019198986
-7.276895e-07
0.019198986
-1.1108323e-06
0.016677178
-1.0515008e-06
0.012687647
-7.5248473e-07
0.0085762632
-4.507077e-07
0.0052401913
-2.3881631e-07
0.002942189
-1.1454724e-07
0.0015372509
-4.9615486e-08
0.00075198583
-1.8780518e-08
0.00034294489
-5.6409285e-09
0.0001423691
-9.6516866e-10
4.9778021e-05
1.0136501e-05
8.8581612e-10
1.0135615e-05
5.1772264e-09
4.9773729e-05
1.7239875e-08
0.00014235704
4.555891e-08
0.00034291657
1.0523223e-07
0.00075192616
2.1957652e-07
0.0015371365
4.1504236e-07
0.0029419936
6.9508913e-07
0.0052399112
9.7709376e-07
0.0085759812
1.0418664e-06
0.012687582
6.8800374e-07
0.016677532
-1.2148389e-12
0.019199674
-6.8800585e-07
0.019199674
-1.0418678e-06
0.016677532
-9.7709472e-07
0.012687582
-6.9509066e-07
0.0085759812
-4.1504566e-07
0.0052399112
-2.1958164e-07
0.0029419936
-1.052377e-07
0.0015371365
-4.5563032e-08
0.00075192616
-1.7242009e-08
0.00034291657
-5.1779134e-09
0.00014235704
-8.8580948e-10
4.9773729e-05
1.0135615e-05
8.1603351e-10
1.0134799e-05
4.769925e-09
4.9769775e-05
1.5885934e-08
0.00014234592
4.1990482e-08
0.00034289047
9.7026681e-08
0.00075187112
2.0259343e-07
0.0015370309
3.834487e-07
0.0029418127
6.4389528e-07
0.0052396508
9.0984199e-07
0.0085757152
9.7823468e-07
0.012687514
6.5086475e-07
0.01667786
-1.3440429e-12
0.019200325
-6.5086705e-07
0.019200325
-9.7823615e-07
0.01667786
-9.0984283e-07
0.012687514
-6.4389661e-07
0.0085757152
-3.8345179e-07
0.0052396508
-2.0259832e-07
0.0029418127
-9.7031908e-08
0.0015370309
-4.1994365e-08
0.00075187112
-1.5887904e-08
0.00034289047
-4.7705344e-09
0.00014234592
-8.1600779e-10
4.9769776e-05
1.0134799e-05
7.5416159e-10
1.0134045e-05
4.4087132e-09
4.9766121e-05
1.4684842e-08
0.00014233564
3.8823419e-08
0.00034286633
8.9738286e-08
0.00075182021
1.8748662e-07
0.0015369332
3.5526491e-07
0.0029416449
5.9795758e-07
0.0052394081
8.4878726e-07
0.0085754644
9.1936516e-07
0.012687443
6.160087e-07
0.016678163
-1.4951436e-12
0.019200941
-6.1601127e-07
0.019200941
-9.1936676e-07
0.016678163
-8.4878806e-07
0.012687443
-5.9795873e-07
0.0085754644
-3.5526769e-07
0.0052394081
-1.8749108e-07
0.0029416449
-8.9742992e-08
0.0015369332
-3.8826833e-08
0.00075182021
-1.4686515e-08
0.00034286633
-4.4091956e-09
0.00014233564
-7.541127e-10
4.9766121e-05
1.0134045e-05
6.9891113e-10
1.0133346e-05
4.0860949e-09
4.9762734e-05
1.3611808e-08
0.00014232612
3.599289e-08
0.00034284395
8.3219937e-08
0.00075177298
1.7395899e-07
0.0015368425
3.2996445e-07
0.0029414889
5.5650624e-07
0.0052391815
7.931192e-07
0.0085752278
8.6476638e-07
0.012687372
5.8322959e-07
0.016678444
-1.7040502e-12
0.019201524
-5.8323253e-07
0.019201524
-8.6476822e-07
0.016678444
-7.9312006e-07
0.012687372
-5.5650722e-07
0.0085752278
-3.2996681e-07
0.0052391815
-1.7396275e-07
0.0029414889
-8.3223786e-08
0.0015368425
-3.5995554e-08
0.00075177298
-1.3613024e-08
0.00034284395
-4.0863927e-09
0.00014232612
-6.9883505e-10
4.9762734e-05
1.0133346e-05
6.4926577e-10
1.0132697e-05
3.7961568e-09
4.9759587e-05
1.2647253e-08
0.00014231727
3.3447629e-08
0.00034282315
7.7355049e-08
0.00075172907
1.6177418e-07
0.001536758
3.0712578e-07
0.0029413436
5.1891807e-07
0.0052389697
7.42171e-07
0.0085750045
8.1401183e-07
0.0126873
5.5234033e-07
0.016678706
-1.969048e-12
0.019202077
-5.5234377e-07
0.019202077
-8.1401406e-07
0.016678706
-7.4217205e-07
0.0126873
-5.1891892e-07
0.0085750045
-3.0712755e-07
0.0052389697
-1.6177689e-07
0.0029413436
-7.7357633e-08
0.001536758
-3.3449207e-08
0.00075172907
-1.2647825e-08
0.00034282315
-3.7962023e-09
0.00014231727
-6.491584e-10
4.9759587e-05
1.0132697e-05
6.0441144e-10
1.0132092e-05
3.5341598e-09
4.9756657e-05
1.1775478e-08
0.00014230903
3.1146478e-08
0.00034280378
7.2049846e-08
0.00075168817
1.5074145e-07
0.0015366793
2.8640648e-07
0.0029412079
4.8467994e-07
0.0052387715
6.9537866e-07
0.0085747938
7.6674155e-07
0.012687229
5.2320219e-07
0.01667895
-2.2884009e-12
0.0192026
-5.2320626e-07
0.0192026
-7.6674432e-07
0.01667895
-6.9538002e-07
0.012687229
-4.8468066e-07
0.0085747938
-2.8640747e-07
0.0052387715
-1.5074272e-07
0.0029412079
-7.2050678e-08
0.0015366793
-3.1146575e-08
0.00075168817
-1.1775185e-08
0.00034280378
-3.5338749e-09
0.00014230903
-6.0426833e-10
4.9756657e-05
1.0132092e-05
5.6368957e-10
1.0131528e-05
3.2962685e-09
4.9753925e-05
1.0983771e-08
0.00014230134
2.9056089e-08
0.0003427857
6.7228261e-08
0.00075165
1.4070574e-07
0.0015366059
2.6752713e-07
0.0029410811
4.5337038e-07
0.0052385856
6.522733e-07
0.0085745949
7.2263368e-07
0.012687158
4.9567161e-07
0.016679177
-2.6542346e-12
0.019203096
-4.9567642e-07
0.019203096
-7.2263713e-07
0.016679177
-6.522751e-07
0.012687158
-4.5337096e-07
0.0085745949
-2.6752708e-07
0.0052385856
-1.4070507e-07
0.0029410811
-6.722677e-08
0.0015366059
-2.9054244e-08
0.00075165
-1.0982359e-08
0.00034278571
-3.2955635e-09
0.00014230134
-5.6350573e-10
4.9753925e-05
1.0131529e-05
5.2656094e-10
1.0131002e-05
3.0793416e-09
4.9751372e-05
1.0261714e-08
0.00014229416
2.7149109e-08
0.00034276882
6.2827815e-08
0.00075161432
1.3153938e-07
0.0015365372
2.5025638e-07
0.0029409624
4.2463581e-07
0.0052384112
6.1245078e-07
0.0085744071
6.814204e-07
0.012687089
4.6965465e-07
0.016679388
-3.0671209e-12
0.019203565
-4.6966031e-07
0.019203565
-6.8142467e-07
0.016679388
-6.1245313e-07
0.012687089
-4.2463622e-07
0.0085744071
-2.5025499e-07
0.0052384112
-1.3153621e-07
0.0029409624
-6.2823342e-08
0.0015365372
-2.7144798e-08
0.00075161432
-1.0258895e-08
0.00034276882
-3.0781144e-09
0.00014229416
-5.2633078e-10
4.9751372e-05
1.0131002e-05
4.92581e-10
1.0130509e-05
2.8807883e-09
4.9748984e-05
9.6007136e-09
0.00014228744
2.5402972e-08
0.00034275302
5.8796937e-08
0.00075158092
1.2313687e-07
0.0015364728
2.344028e-07
0.0029408511
3.981833e-07
0.0052382475
5.7557459e-07
0.0085742297
6.4284956e-07
0.012687022
4.4502997e-07
0.016679586
-3.5182899e-12
0.01920401
-4.4503656e-07
0.01920401
-6.4285477e-07
0.016679586
-5.7557759e-07
0.012687022
-3.9818346e-07
0.0085742297
-2.343997e-07
0.0052382475
-1.2313053e-07
0.0029408511
-5.8788731e-08
0.0015364728
-2.5395596e-08
0.00075158093
-9.596159e-09
0.00034275302
-2.8789236e-09
0.00014228744
-4.922983e-10
4.9748984e-05
1.0130509e-05
4.6137823e-10
1.0130048e-05
2.6984432e-09
4.9746747e-05
8.9935857e-09
0.00014228114
2.3798793e-08
0.00034273821
5.5092408e-08
0.00075154963
1.1540959e-07
0.0015364125
2.1980461e-07
0.0029407467
3.7376144e-07
0.0052380935
5.4134724e-07
0.0085740621
6.0672095e-07
0.012686957
4.2173806e-07
0.016679771
-3.9857699e-12
0.019204432
-4.2174565e-07
0.019204432
-6.0672722e-07
0.016679771
-5.4135099e-07
0.012686957
-3.7376127e-07
0.0085740621
-2.1979936e-07
0.0052380935
-1.1539933e-07
0.0029407467
-5.5079619e-08
0.0015364125
-2.3787682e-08
0.00075154963
-8.9869283e-09
0.00034273821
-2.695812e-09
0.00014228114
-4.6103606e-10
4.9746747e-05
1.0130048e-05
4.3264027e-10
1.0129615e-05
2.5304847e-09
4.9744649e-05
8.4342848e-09
0.00014227524
2.2320691e-08
0.00034272432
5.1677909e-08
0.00075152027
1.0828308e-07
0.0015363559
2.0632603e-07
0.0029406487
3.511602e-07
0.0052379487
5.0952059e-07
0.0085739038
5.7282679e-07
0.012686893
3.9966437e-07
0.016679944
-4.4521109e-12
0.019204832
-3.9967299e-07
0.019204832
-5.7283422e-07
0.016679944
-5.0952517e-07
0.012686893
-3.5115959e-07
0.0085739038
-2.0631816e-07
0.0052379487
-1.0826807e-07
0.0029406487
-5.1659588e-08
0.0015363559
-2.2305095e-08
0.00075152028
-8.4251147e-09
0.00034272432
-2.526943e-09
0.00014227524
-4.3223106e-10
4.9744649e-05
1.0129615e-05
4.0610186e-10
1.0129209e-05
2.3753673e-09
4.9742679e-05
7.917681e-09
0.0001422697
2.0955165e-08
0.00034271129
4.8522472e-08
0.00075149271
1.0169363e-07
0.0015363027
1.9385003e-07
0.0029405565
3.3019498e-07
0.0052378123
4.7986959e-07
0.0085737541
5.410205e-07
0.012686832
3.7878111e-07
0.016680107
-4.9020164e-12
0.01920521
-3.7879077e-07
0.01920521
-5.4102917e-07
0.016680107
-4.7987509e-07
0.012686832
-3.3019379e-07
0.0085737541
-1.93839e-07
0.0052378123
-1.0167293e-07
0.0029405565
-4.8497564e-08
0.0015363027
-2.093425e-08
0.00075149271
-7.9055432e-09
0.00034271129
-2.3707557e-09
0.0001422697
-4.0561739e-10
4.974268e-05
1.0129209e-05
3.8153543e-10
1.0128828e-05
2.2317619e-09
4.9740829e-05
7.4393628e-09
0.00014226449
1.9690632e-08
0.00034269903
4.5599623e-08
0.0007514668
9.558693e-08
0.0015362527
1.8227718e-07
0.0029404698
3.1071059e-07
0.0052376839
4.5220582e-07
0.0085736126
5.1111885e-07
0.012686773
3.5896708e-07
0.016680259
-5.3224287e-12
0.019205569
-3.5897777e-07
0.019205569
-5.1112885e-07
0.016680259
-4.5221232e-07
0.012686773
-3.1070868e-07
0.0085736126
-1.8226238e-07
0.0052376839
-9.5559502e-08
0.0029404698
-4.5566961e-08
0.0015362527
-1.9663477e-08
0.0007514668
-7.4237544e-09
0.00034269904
-2.2259044e-09
0.00014226449
-3.8096687e-10
4.974083e-05
1.0128828e-05
3.5874685e-10
1.0128469e-05
2.0985396e-09
4.9739089e-05
6.9955806e-09
0.00014225959
1.8517198e-08
0.00034268751
4.2886582e-08
0.00075144243
8.9915892e-08
0.0015362057
1.7152048e-07
0.0029403882
2.9256807e-07
0.0052375628
4.2635646e-07
0.0085734788
4.8302409e-07
0.012686717
3.4023021e-07
0.016680402
-5.6942677e-12
0.01920591
-3.4024189e-07
0.01920591
-4.8303549e-07
0.016680402
-4.2636405e-07
0.012686717
-2.9256527e-07
0.0085734788
-1.7150127e-07
0.0052375628
-8.9880603e-08
0.0029403882
-4.284488e-08
0.0015362057
-1.8482788e-08
0.00075144243
-6.9759472e-09
0.00034268751
-2.0912426e-09
0.00014225959
-3.5808488e-10
4.973909e-05
1.0128469e-05
3.3756408e-10
1.0128131e-05
1.9746918e-09
4.9737452e-05
6.5829867e-09
0.00014225498
1.7426098e-08
0.00034267667
4.0363386e-08
0.00075141949
8.4639639e-08
0.0015361614
1.6150485e-07
0.0029403113
2.7564905e-07
0.0052374487
4.0217243e-07
0.0085733523
4.56559e-07
0.012686662
3.2242793e-07
0.016680536
-6.0031332e-12
0.019206232
-3.2244055e-07
0.019206232
-4.5657187e-07
0.016680536
-4.0218119e-07
0.012686662
-2.7564519e-07
0.0085733523
-1.614805e-07
0.0052374487
-8.4595233e-08
0.0029403114
-4.0311226e-08
0.0015361614
-1.7383312e-08
0.00075141949
-6.5587176e-09
0.00034267667
-1.9657421e-09
0.00014225498
-3.3679848e-10
4.9737453e-05
1.0128132e-05
3.1784427e-10
1.0127813e-05
1.8593928e-09
4.9735911e-05
6.1988361e-09
0.00014225064
1.6410037e-08
0.00034266646
3.801308e-08
0.00075139789
7.9722823e-08
0.0015361197
1.5216462e-07
0.0029402389
2.5984804e-07
0.005237341
3.7952309e-07
0.0085732326
4.3167891e-07
0.01268661
3.0561487e-07
0.016680662
-6.2187206e-12
0.019206538
-3.0562831e-07
0.019206538
-4.316933e-07
0.016680662
-3.795331e-07
0.01268661
-2.598429e-07
0.0085732326
-1.5213434e-07
0.005237341
-7.966792e-08
0.0029402389
-3.7948904e-08
0.0015361197
-1.6357648e-08
0.00075139789
-6.1692624e-09
0.00034266646
-1.8485577e-09
0.00014225064
-3.1696449e-10
4.9735912e-05
1.0127814e-05
2.9945036e-10
1.0127514e-05
1.7518308e-09
4.9734458e-05
5.8404355e-09
0.00014224655
1.5462028e-08
0.00034265684
3.5819944e-08
0.00075137753
7.5133514e-08
0.0015360804
1.4344091e-07
0.0029401706
2.450702e-07
0.0052372394
3.5828079e-07
0.0085731194
4.0819021e-07
0.01268656
2.8960768e-07
0.01668078
-6.3227352e-12
0.019206827
-2.8962181e-07
0.019206827
-4.0820614e-07
0.01668078
-3.5829211e-07
0.01268656
-2.4506356e-07
0.0085731194
-1.4340381e-07
0.0052372394
-7.5066599e-08
0.0029401706
-3.5742048e-08
0.0015360804
-1.5398696e-08
0.00075137753
-5.8048307e-09
0.00034265684
-1.7388591e-09
0.00014224656
-2.9844614e-10
4.9734459e-05
1.0127514e-05
2.822826e-10
1.0127232e-05
1.6514422e-09
4.9733089e-05
5.5059049e-09
0.0001422427
1.4576957e-08
0.00034264777
3.3771719e-08
0.00075135833
7.084556e-08
0.0015360433
1.3528497e-07
0.0029401061
2.3123864e-07
0.0052371434
3.3835746e-07
0.0085730123
3.8611749e-07
0.012686512
2.745278e-07
0.016680892
-6.2693179e-12
0.019207102
-2.7454239e-07
0.019207102
-3.8613494e-07
0.016680892
-3.3837015e-07
0.012686512
-2.3123021e-07
0.0085730123
-1.3524008e-07
0.0052371434
-7.0764974e-08
0.0029401062
-3.3678246e-08
0.0015360433
-1.4501227e-08
0.00075135834
-5.463483e-09
0.00034264777
-1.6360634e-09
0.0001422427
-2.8114383e-10
4.973309e-05
1.0127232e-05
2.6621995e-10
1.0126965e-05
1.557491e-09
4.9731798e-05
5.1928082e-09
0.00014223906
1.3748652e-08
0.00034263921
3.1854996e-08
0.00075134023
6.6832418e-08
0.0015360084
1.2764744e-07
0.0029400453
2.1826944e-07
0.0052370528
3.196252e-07
0.0085729109
3.6521838e-07
0.012686467
2.6012287e-07
0.016680997
-6.0442251e-12
0.019207362
-2.6013769e-07
0.019207362
-3.6523732e-07
0.016680997
-3.1963928e-07
0.012686467
-2.182589e-07
0.0085729109
-1.2759369e-07
0.0052370528
-6.6736363e-08
0.0029400454
-3.1743936e-08
0.0015360084
-1.3658954e-08
0.00075134023
-5.142721e-09
0.00034263921
-1.539413e-09
0.00014223907
-2.6493518e-10
4.9731799e-05
1.0126966e-05
2.5121253e-10
1.0126714e-05
1.4697302e-09
4.9730579e-05
4.9003047e-09
0.00014223563
1.2974498e-08
0.00034263114
3.0062505e-08
0.00075132314
6.3077064e-08
0.0015359753
1.2049657e-07
0.0029399879
2.0611823e-07
0.0052369672
3.0205432e-07
0.008572815
3.4562167e-07
0.012686423
2.466149e-07
0.016681096
-5.5961986e-12
0.019207609
-2.4662962e-07
0.019207609
-3.4564203e-07
0.016681096
-3.0206983e-07
0.012686423
-2.0610526e-07
0.008572815
-1.2043286e-07
0.0052369672
-6.2963643e-08
0.0029399879
-2.9931749e-08
0.0015359754
-1.2869196e-08
0.00075132315
-4.8416804e-09
0.00034263114
-1.4486601e-09
0.00014223564
-2.4977596e-10
4.973058e-05
1.0126715e-05
2.3712679e-10
1.0126477e-05
1.3873097e-09
4.9729429e-05
4.6255954e-09
0.0001422324
1.2247732e-08
0.00034262351
2.8380618e-08
0.00075130701
5.9554221e-08
0.0015359442
1.137848e-07
0.0029399337
1.9469466e-07
0.0052368863
2.8548189e-07
0.0085727242
3.2698472e-07
0.012686382
2.3364006e-07
0.016681189
-4.9371208e-12
0.019207842
-2.336544e-07
0.019207842
-3.2700647e-07
0.016681189
-2.8549888e-07
0.012686382
-1.9467895e-07
0.0085727242
-1.1370998e-07
0.0052368863
-5.9421492e-08
0.0029399337
-2.8228028e-08
0.0015359442
-1.2125201e-08
0.00075130701
-4.5575917e-09
0.00034262351
-1.3629803e-09
0.0001422324
-2.3554595e-10
4.972943e-05
1.0126478e-05
2.2400389e-10
1.0126253e-05
1.3105757e-09
4.9728342e-05
4.36977e-09
0.00014222934
1.1570192e-08
0.00034261631
2.6810324e-08
0.00075129176
5.6260751e-08
0.0015359147
1.0750597e-07
0.0029398824
1.840078e-07
0.0052368098
2.6998187e-07
0.0085726383
3.096086e-07
0.012686342
2.2157672e-07
0.016681277
-4.0448842e-12
0.019208064
-2.2159036e-07
0.019208064
-3.0963176e-07
0.016681277
-2.7000051e-07
0.012686342
-1.8398914e-07
0.0085726382
-1.0741896e-07
0.0052368098
-5.6106764e-08
0.0029398825
-2.6633736e-08
0.0015359147
-1.1428788e-08
0.00075129177
-4.2915362e-09
0.00034261631
-1.282714e-09
0.00014222934
-2.2228244e-10
4.9728344e-05
1.0126254e-05
2.1162493e-10
1.0126041e-05
1.2380799e-09
4.9727316e-05
4.1281102e-09
0.00014222645
1.0931086e-08
0.00034260951
2.5331931e-08
0.00075127736
5.3164014e-08
0.0015358869
1.0159925e-07
0.002939834
1.7392758e-07
0.0052367375
2.55292e-07
0.0085725569
2.9296708e-07
0.012686304
2.0988688e-07
0.01668136
-2.9626152e-12
0.019208274
-2.0989961e-07
0.019208274
-2.929918e-07
0.01668136
-2.5531262e-07
0.012686304
-1.7390598e-07
0.0085725569
-1.0149923e-07
0.0052367375
-5.2987096e-08
0.0029398341
-2.5129413e-08
0.0015358869
-1.0769315e-08
0.00075127737
-4.0388621e-09
0.00034260951
-1.2064282e-09
0.00014222645
-2.0976133e-10
4.9727317e-05
1.0126042e-05
2.0027187e-10
1.0125841e-05
1.1717259e-09
4.9726344e-05
3.9067222e-09
0.00014222371
1.0343617e-08
0.00034260307
2.3966803e-08
0.00075126374
5.0293209e-08
0.0015358606
9.6114847e-08
0.0029397882
1.6457717e-07
0.005236669
2.4169653e-07
0.0085724798
2.7766279e-07
0.012686268
1.9919973e-07
0.016681439
-1.7067688e-12
0.019208473
-1.9921148e-07
0.019208473
-2.7768952e-07
0.016681439
-2.417199e-07
0.012686268
-1.6455312e-07
0.0085724797
-9.6001555e-08
0.005236669
-5.0092438e-08
0.0029397882
-2.3737304e-08
0.0015358606
-1.0160803e-08
0.00075126375
-3.8062496e-09
0.00034260307
-1.13632e-09
0.00014222371
-1.9835625e-10
4.9726346e-05
1.0125842e-05
1.8934311e-10
1.0125652e-05
1.1075924e-09
4.9725426e-05
3.693019e-09
0.00014222113
9.7797051e-09
0.00034259699
2.2666236e-08
0.00075125085
4.7574965e-08
0.0015358356
9.0929335e-08
0.0029397448
1.5570341e-07
0.0052366042
2.2870763e-07
0.0085724068
2.6286273e-07
0.012686234
1.8872151e-07
0.016681513
-3.1660679e-13
0.019208662
-1.8873219e-07
0.019208662
-2.6289196e-07
0.016681513
-2.2873487e-07
0.012686234
-1.5567795e-07
0.0085724067
-9.0803184e-08
0.0052366043
-4.7350288e-08
0.0029397449
-2.2409841e-08
0.0015358357
-9.5763217e-09
0.00075125086
-3.5819327e-09
0.00034259698
-1.0688754e-09
0.00014222112
-1.8757669e-10
4.9725427e-05
1.0125652e-05
1.799752e-10
1.0125472e-05
1.052933e-09
4.9724553e-05
3.5100587e-09
0.00014221867
9.290477e-09
0.0003425912
2.1518132e-08
0.00075123862
4.5138571e-08
0.001535812
8.6248697e-08
0.0029397037
1.4770424e-07
0.0052365428
2.1705745e-07
0.0085723374
2.4971828e-07
0.012686202
1.795026e-07
0.016681583
1.1321766e-12
0.019208841
-1.795123e-07
0.019208841
-2.4975078e-07
0.016681583
-2.1709045e-07
0.012686202
-1.4767982e-07
0.0085723374
-8.6111505e-08
0.0052365428
-4.4891097e-08
0.0029397038
-2.123596e-08
0.0015358121
-9.0678402e-09
0.00075123863
-3.3894254e-09
0.0003425912
-1.0114584e-09
0.00014221867
-1.7849878e-10
4.9724553e-05
1.0125472e-05
1.688792e-10
1.0125303e-05
9.8800976e-10
4.9723734e-05
3.2965998e-09
0.00014221636
8.7407786e-09
0.00034258576
2.0290666e-08
0.00075122707
4.2657746e-08
0.0015357897
8.1636465e-08
0.0029396647
1.3992236e-07
0.0052364845
2.0572341e-07
0.0085722716
2.3677343e-07
0.012686171
1.7032659e-07
0.01668165
2.4871488e-12
0.019209011
-1.7033505e-07
0.019209011
-2.3680891e-07
0.01668165
-2.0576359e-07
0.012686171
-1.3990287e-07
0.0085722716
-8.1493444e-08
0.0052364845
-4.2393027e-08
0.0029396648
-1.9988382e-08
0.0015357897
-8.5038319e-09
0.00075122707
-3.1696234e-09
0.00034258575
-9.4519207e-10
0.00014221635
-1.6796136e-10
4.9723733e-05
1.0125303e-05
1.6409577e-10
1.0125139e-05
9.601146e-10
4.9722938e-05