/*--------------------------------*- C++ -*----------------------------------*\
| =========                 |                                                 |
| \\      /  F ield         | OpenFOAM: The Open Source CFD Toolbox           |
|  \\    /   O peration     | Version:  2406                                  |
|   \\  /    A nd           | Website:  www.openfoam.com                      |
|    \\/     M anipulation  |                                                 |
\*---------------------------------------------------------------------------*/
FoamFile
{
    version     2.0;
    format      ascii;
    arch        "LSB;label=32;scalar=64";
    class       volVectorField;
    location    "36";
    object      U;
}
// * * * * * * * * * * * * * * * * * * * * * * * * * * * * * * * * * * * * * //

dimensions      [0 1 -1 0 0 0 0];

internalField   nonuniform List<vector> 
1176
(
(0.019493789 7.0786451e-07 0)
(0.066677318 8.1696567e-06 0)
(0.13357994 3.9503172e-05 0)
(0.22724701 0.00010873577 0)
(0.35591522 0.0002117603 0)
(0.52772023 0.00030396292 0)
(0.74780387 0.00031818031 0)
(1.0136216 0.00024904605 0)
(1.3093323 0.00016667018 0)
(1.6017081 0.00011264706 0)
(1.8421723 7.0214391e-05 0)
(1.9793239 2.3941106e-05 0)
(1.9793239 -2.3940079e-05 0)
(1.8421723 -7.02123e-05 0)
(1.6017081 -0.00011264195 0)
(1.3093323 -0.00016665844 0)
(1.0136215 -0.00024902413 0)
(0.74780385 -0.00031814819 0)
(0.52772021 -0.00030392604 0)
(0.35591521 -0.00021172854 0)
(0.22724701 -0.0001087124 0)
(0.13357995 -3.9500166e-05 0)
(0.066677328 -8.1541711e-06 0)
(0.019493793 -7.0996886e-07 0)
(0.020187017 -3.7419177e-06 0)
(0.068813532 -2.4638637e-05 0)
(0.13732107 -9.6548548e-05 0)
(0.23247391 -0.00024839459 0)
(0.36204617 -0.00047268779 0)
(0.53373556 -0.0006742118 0)
(0.75267407 -0.00069486937 0)
(1.0170176 -0.00049687355 0)
(1.3116385 -0.00023345896 0)
(1.6034438 -4.9824061e-05 0)
(1.8436588 1.9765241e-05 0)
(1.9807026 1.3428189e-05 0)
(1.9807026 -1.3427886e-05 0)
(1.8436588 -1.976686e-05 0)
(1.6034438 4.9817467e-05 0)
(1.3116385 0.00023344384 0)
(1.0170176 0.00049684672 0)
(0.75267406 0.0006948318 0)
(0.53373555 0.00067417258 0)
(0.36204616 0.00047265872 0)
(0.2324739 0.00024837816 0)
(0.13732108 9.6545249e-05 0)
(0.068813539 2.4633651e-05 0)
(0.02018702 3.7425396e-06 0)
(0.020018442 2.0918377e-06 0)
(0.068327405 1.2720773e-05 0)
(0.13655404 4.6877263e-05 0)
(0.23159544 0.0001138974 0)
(0.36138709 0.0001976927 0)
(0.53366969 0.0002390324 0)
(0.75344344 0.0002055982 0)
(1.0184881 0.00011361122 0)
(1.3134639 7.4313692e-05 0)
(1.6053464 7.9533095e-05 0)
(1.8455118 7.0517097e-05 0)
(1.9825245 2.7827005e-05 0)
(1.9825245 -2.7822737e-05 0)
(1.8455118 -7.0511577e-05 0)
(1.6053464 -7.9525615e-05 0)
(1.3134639 -7.430455e-05 0)
(1.0184882 -0.00011360165 0)
(0.75344346 -0.00020559083 0)
(0.53366971 -0.00023902586 0)
(0.3613871 -0.0001976892 0)
(0.23159545 -0.00011389673 0)
(0.13655405 -4.6876364e-05 0)
(0.068327406 -1.2722687e-05 0)
(0.020018442 -2.0914968e-06 0)
(0.019966547 7.0076692e-07 0)
(0.068159231 4.687038e-06 0)
(0.13624021 1.9355448e-05 0)
(0.2311194 5.645617e-05 0)
(0.36078093 0.00013444566 0)
(0.53306293 0.00025829318 0)
(0.75295637 0.00035344742 0)
(1.0181104 0.00036912 0)
(1.313184 0.00030758869 0)
(1.6051633 0.00022777231 0)
(1.8453995 0.00014555926 0)
(1.9824491 4.9996902e-05 0)
(1.9824491 -4.9997859e-05 0)
(1.8453995 -0.00014556058 0)
(1.6051633 -0.00022777386 0)
(1.313184 -0.00030759022 0)
(1.0181104 -0.00036912058 0)
(0.75295636 -0.00035344479 0)
(0.53306292 -0.00025828952 0)
(0.36078092 -0.00013444207 0)
(0.23111939 -5.6453818e-05 0)
(0.1362402 -1.9354737e-05 0)
(0.068159227 -4.6863262e-06 0)
(0.019966546 -7.0083249e-07 0)
(0.019942203 2.9077068e-07 0)
(0.068078703 1.9871963e-06 0)
(0.13608628 8.2361255e-06 0)
(0.23087699 2.369933e-05 0)
(0.36044744 5.688164e-05 0)
(0.53266448 0.00012306888 0)
(0.75256878 0.00022681822 0)
(1.017808 0.00032272227 0)
(1.3129044 0.00034572477 0)
(1.604912 0.00030730001 0)
(1.8452029 0.00021095343 0)
(1.9822898 7.4614931e-05 0)
(1.9822898 -7.4613999e-05 0)
(1.8452029 -0.00021095247 0)
(1.604912 -0.00030729892 0)
(1.3129044 -0.00034572414 0)
(1.017808 -0.00032272222 0)
(0.75256877 -0.00022681794 0)
(0.53266448 -0.00012306888 0)
(0.36044744 -5.6881683e-05 0)
(0.23087699 -2.3699394e-05 0)
(0.13608628 -8.2360422e-06 0)
(0.068078702 -1.9873234e-06 0)
(0.019942203 -2.9073755e-07 0)
(0.019933132 1.7181655e-07 0)
(0.068047755 1.1940707e-06 0)
(0.13602489 5.0652063e-06 0)
(0.23077535 1.4968865e-05 0)
(0.36029898 3.6219557e-05 0)
(0.5324792 7.6944261e-05 0)
(0.75239427 0.00014713774 0)
(1.0177222 0.00023749035 0)
(1.3129292 0.00028525609 0)
(1.6049746 0.00027441511 0)
(1.8452865 0.00019644651 0)
(1.9823834 7.1177411e-05 0)
(1.9823834 -7.1176449e-05 0)
(1.8452865 -0.00019644555 0)
(1.6049746 -0.0002744141 0)
(1.3129292 -0.00028525513 0)
(1.0177222 -0.00023748979 0)
(0.75239427 -0.00014713693 0)
(0.5324792 -7.6943672e-05 0)
(0.36029898 -3.6219323e-05 0)
(0.23077535 -1.4968842e-05 0)
(0.13602488 -5.0652827e-06 0)
(0.068047755 -1.1940649e-06 0)
(0.019933132 -1.718233e-07 0)
(0.0199234 1.5587685e-07 0)
(0.068015507 1.0700698e-06 0)
(0.13596286 4.4934667e-06 0)
(0.23067607 1.3195455e-05 0)
(0.36015773 3.1857111e-05 0)
(0.53230178 6.6958199e-05 0)
(0.75221429 0.00012411883 0)
(1.0176105 0.00019917048 0)
(1.3129358 0.00025490848 0)
(1.6050904 0.00024595183 0)
(1.8454579 0.00018127917 0)
(1.9825798 6.6548787e-05 0)
(1.9825798 -6.6548248e-05 0)
(1.8454579 -0.00018127869 0)
(1.6050904 -0.00024595156 0)
(1.3129358 -0.00025490851 0)
(1.0176105 -0.00019917055 0)
(0.75221429 -0.0001241188 0)
(0.53230178 -6.6958174e-05 0)
(0.36015773 -3.185712e-05 0)
(0.23067607 -1.3195442e-05 0)
(0.13596286 -4.4935805e-06 0)
(0.068015507 -1.0699323e-06 0)
(0.0199234 -1.5590825e-07 0)
(0.019915697 1.2758666e-07 0)
(0.067989792 8.7801414e-07 0)
(0.13591293 3.6959983e-06 0)
(0.23059503 1.090159e-05 0)
(0.36003987 2.661331e-05 0)
(0.53214753 5.7237034e-05 0)
(0.75204133 0.00010911035 0)
(1.0174723 0.00017936613 0)
(1.3128926 0.00023802469 0)
(1.6051414 0.00023746753 0)
(1.8455877 0.00017750685 0)
(1.9827514 6.5539528e-05 0)
(1.9827514 -6.5539302e-05 0)
(1.8455877 -0.00017750667 0)
(1.6051414 -0.00023746754 0)
(1.3128926 -0.0002380249 0)
(1.0174723 -0.00017936636 0)
(0.75204133 -0.00010911065 0)
(0.53214753 -5.7237395e-05 0)
(0.36003987 -2.6613609e-05 0)
(0.23059503 -1.0901744e-05 0)
(0.13591293 -3.6961286e-06 0)
(0.067989793 -8.7795204e-07 0)
(0.019915697 -1.2760712e-07 0)
(0.019909217 1.0465779e-07 0)
(0.067968141 7.2313826e-07 0)
(0.13587084 3.0520992e-06 0)
(0.23052654 9.0118184e-06 0)
(0.35993984 2.1999839e-05 0)
(0.53201542 4.7473341e-05 0)
(0.75188901 9.2013894e-05 0)
(1.0173341 0.00015618167 0)
(1.3128278 0.00021699657 0)
(1.6051595 0.00022709615 0)
(1.8456699 0.00017232625 0)
(1.982868 6.4147676e-05 0)
(1.982868 -6.4147749e-05 0)
(1.8456699 -0.00017232635 0)
(1.6051595 -0.00022709637 0)
(1.3128278 -0.00021699683 0)
(1.0173341 -0.00015618185 0)
(0.75188901 -9.2014151e-05 0)
(0.53201542 -4.7473649e-05 0)
(0.35993984 -2.2000094e-05 0)
(0.23052654 -9.0119591e-06 0)
(0.13587084 -3.0522084e-06 0)
(0.067968141 -7.2310563e-07 0)
(0.019909217 -1.0467223e-07 0)
(0.019903971 8.6126413e-08 0)
(0.067950552 5.9696533e-07 0)
(0.13583649 2.5273738e-06 0)
(0.2304703 7.4916065e-06 0)
(0.35985692 1.8376271e-05 0)
(0.53190436 3.9835619e-05 0)
(0.75175836 7.7712023e-05 0)
(1.0172122 0.00013432416 0)
(1.3127613 0.0001932335 0)
(1.6051772 0.00021058332 0)
(1.8457533 0.00016272961 0)
(1.9829863 6.1084166e-05 0)
(1.9829863 -6.1084368e-05 0)
(1.8457533 -0.00016272984 0)
(1.6051772 -0.00021058363 0)
(1.3127613 -0.00019323379 0)
(1.0172122 -0.00013432438 0)
(0.75175837 -7.7712274e-05 0)
(0.53190436 -3.9835868e-05 0)
(0.35985692 -1.837647e-05 0)
(0.2304703 -7.4917189e-06 0)
(0.13583649 -2.5274741e-06 0)
(0.067950553 -5.9693307e-07 0)
(0.019903971 -8.614005e-08 0)
(0.019899543 7.3356937e-08 0)
(0.067935688 5.0896198e-07 0)
(0.13580742 2.1568862e-06 0)
(0.23042259 6.4027584e-06 0)
(0.35978626 1.5747573e-05 0)
(0.5318089 3.4277776e-05 0)
(0.75164409 6.7204506e-05 0)
(1.0171021 0.00011722978 0)
(1.3126976 0.00017262446 0)
(1.6051928 0.00019308889 0)
(1.8458371 0.00015219854 0)
(1.9831061 5.7544681e-05 0)
(1.9831061 -5.7544927e-05 0)
(1.8458371 -0.00015219881 0)
(1.6051928 -0.0001930892 0)
(1.3126976 -0.00017262474 0)
(1.0171021 -0.00011723002 0)
(0.75164409 -6.7204747e-05 0)
(0.5318089 -3.4278003e-05 0)
(0.35978626 -1.5747765e-05 0)
(0.23042259 -6.4028752e-06 0)
(0.13580742 -2.1569991e-06 0)
(0.067935688 -5.089265e-07 0)
(0.019899543 -7.3371912e-08 0)
(0.019895721 6.3727933e-08 0)
(0.06792285 4.4251845e-07 0)
(0.13578228 1.8767386e-06 0)
(0.23038125 5.5765244e-06 0)
(0.35972483 1.3738672e-05 0)
(0.53172535 2.9997974e-05 0)
(0.75154264 5.9111487e-05 0)
(1.0170011 0.00010388807 0)
(1.3126344 0.00015540265 0)
(1.6052015 0.00017849512 0)
(1.8459125 0.00014271542 0)
(1.9832185 5.4330498e-05 0)
(1.9832185 -5.4330745e-05 0)
(1.8459125 -0.0001427157 0)
(1.6052015 -0.00017849542 0)
(1.3126345 -0.00015540292 0)
(1.0170011 -0.00010388831 0)
(0.75154264 -5.9111726e-05 0)
(0.53172535 -2.9998207e-05 0)
(0.35972483 -1.3738883e-05 0)
(0.23038125 -5.5766574e-06 0)
(0.13578228 -1.876876e-06 0)
(0.06792285 -4.4247103e-07 0)
(0.019895721 -6.3746731e-08 0)
(0.019892371 5.6091035e-08 0)
(0.067911586 3.897744e-07 0)
(0.13576021 1.6541274e-06 0)
(0.2303449 4.9187649e-06 0)
(0.35967069 1.2132008e-05 0)
(0.53165136 2.6542418e-05 0)
(0.7514519 5.2498722e-05 0)
(1.0169086 9.2875593e-05 0)
(1.3125728 0.00014061476 0)
(1.605205 0.00016529605 0)
(1.8459798 0.00013398918 0)
(1.9833221 5.1387345e-05 0)
(1.9833221 -5.1387569e-05 0)
(1.8459798 -0.00013398942 0)
(1.605205 -0.00016529632 0)
(1.3125728 -0.00014061501 0)
(1.0169086 -9.2875843e-05 0)
(0.7514519 -5.2498986e-05 0)
(0.53165136 -2.6542692e-05 0)
(0.35967069 -1.2132263e-05 0)
(0.2303449 -4.918924e-06 0)
(0.13576021 -1.6542953e-06 0)
(0.067911586 -3.8971107e-07 0)
(0.019892371 -5.61149e-08 0)
(0.019889403 4.9849712e-08 0)
(0.067901607 3.4661519e-07 0)
(0.13574064 1.4717672e-06 0)
(0.23031264 4.3793924e-06 0)
(0.35962253 1.0812311e-05 0)
(0.53158531 2.3691398e-05 0)
(0.75137029 4.6984104e-05 0)
(1.016824 8.354623e-05 0)
(1.3125139 0.00012773736 0)
(1.6052051 0.00015293337 0)
(1.8460415 0.00012582029 0)
(1.9834196 4.861641e-05 0)
(1.9834196 -4.8616606e-05 0)
(1.8460415 -0.00012582051 0)
(1.6052051 -0.0001529336 0)
(1.3125139 -0.0001277376 0)
(1.016824 -8.3546489e-05 0)
(0.75137029 -4.6984407e-05 0)
(0.53158531 -2.369173e-05 0)
(0.35962253 -1.0812621e-05 0)
(0.23031264 -4.3795828e-06 0)
(0.13574064 -1.4719664e-06 0)
(0.067901607 -3.4653706e-07 0)
(0.019889403 -4.9878598e-08 0)
(0.019886752 4.4699262e-08 0)
(0.067892685 3.109432e-07 0)
(0.13572313 1.3208206e-06 0)
(0.23028375 3.9322108e-06 0)
(0.35957935 9.7158871e-06 0)
(0.53152592 2.1315597e-05 0)
(0.75129648 4.2360254e-05 0)
(1.0167465 7.5619866e-05 0)
(1.3124581 0.00011654229 0)
(1.6052027 0.00014169865 0)
(1.8460982 0.00011827094 0)
(1.9835117 4.6031484e-05 0)
(1.9835117 -4.6031661e-05 0)
(1.8460982 -0.00011827113 0)
(1.6052027 -0.00014169886 0)
(1.3124581 -0.0001165425 0)
(1.0167465 -7.562013e-05 0)
(0.75129648 -4.2360595e-05 0)
(0.53152592 -2.1315985e-05 0)
(0.35957935 -9.716249e-06 0)
(0.23028375 -3.9324307e-06 0)
(0.13572313 -1.3210479e-06 0)
(0.067892685 -3.1085263e-07 0)
(0.019886752 -4.4732516e-08 0)
(0.019884362 4.0386546e-08 0)
(0.067884644 2.8103995e-07 0)
(0.13570735 1.1941579e-06 0)
(0.23025769 3.5564924e-06 0)
(0.35954035 8.7929055e-06 0)
(0.53147216 1.9310051e-05 0)
(0.75122934 3.8440188e-05 0)
(1.0166753 6.8838962e-05 0)
(1.3124053 0.00010678353 0)
(1.6051983 0.00013155225 0)
(1.8461504 0.00011132795 0)
(1.9835985 4.3631069e-05 0)
(1.9835985 -4.363124e-05 0)
(1.8461504 -0.00011132813 0)
(1.6051983 -0.00013155244 0)
(1.3124053 -0.00010678373 0)
(1.0166753 -6.8839229e-05 0)
(0.75122934 -3.8440558e-05 0)
(0.53147216 -1.9310485e-05 0)
(0.35954035 -8.7933095e-06 0)
(0.23025769 -3.5567361e-06 0)
(0.13570735 -1.1944074e-06 0)
(0.067884644 -2.8093962e-07 0)
(0.019884362 -4.0423205e-08 0)
(0.019882195 3.6711455e-08 0)
(0.067877349 2.5553945e-07 0)
(0.13569303 1.0860802e-06 0)
(0.23023403 3.2356351e-06 0)
(0.3595049 8.0035958e-06 0)
(0.5314232 1.7590957e-05 0)
(0.75116797 3.5067267e-05 0)
(1.0166096 6.2964188e-05 0)
(1.3123553 9.8203236e-05 0)
(1.6051923 0.00012233361 0)
(1.8461982 0.00010491309 0)
(1.9836803 4.1390373e-05 0)
(1.9836803 -4.1390547e-05 0)
(1.8461982 -0.00010491327 0)
(1.6051923 -0.00012233377 0)
(1.3123553 -9.8203415e-05 0)
(1.0166096 -6.2964451e-05 0)
(0.75116797 -3.5067654e-05 0)
(0.5314232 -1.7591421e-05 0)
(0.3595049 -8.0040281e-06 0)
(0.23023403 -3.2358946e-06 0)
(0.13569303 -1.0863443e-06 0)
(0.067877349 -2.5543213e-07 0)
(0.019882195 -3.6750384e-08 0)
(0.019880219 3.3538798e-08 0)
(0.067870695 2.3351137e-07 0)
(0.13567996 9.9267453e-07 0)
(0.23021243 2.9581581e-06 0)
(0.35947252 7.3203072e-06 0)
(0.53137842 1.6100162e-05 0)
(0.75111164 3.2133046e-05 0)
(1.0165488 5.7823441e-05 0)
(1.3123082 9.0602505e-05 0)
(1.6051852 0.00011395341 0)
(1.8462423 9.8955905e-05 0)
(1.9837576 3.9288853e-05 0)
(1.9837576 -3.9289037e-05 0)
(1.8462423 -9.8956082e-05 0)
(1.6051852 -0.00011395356 0)
(1.3123082 -9.0602667e-05 0)
(1.0165488 -5.7823694e-05 0)
(0.75111164 -3.2133438e-05 0)
(0.53137842 -1.6100639e-05 0)
(0.35947252 -7.3207526e-06 0)
(0.23021243 -2.958424e-06 0)
(0.13567996 -9.9294398e-07 0)
(0.067870695 -2.3340016e-07 0)
(0.019880219 -3.3578693e-08 0)
(0.019878409 3.0774387e-08 0)
(0.0678646 2.1430687e-07 0)
(0.13566798 9.1120375e-07 0)
(0.23019263 2.7159929e-06 0)
(0.35944282 6.723439e-06 0)
(0.53133728 1.4796036e-05 0)
(0.75105977 2.9559721e-05 0)
(1.0164925 5.3292576e-05 0)
(1.3122638 8.3831603e-05 0)
(1.6051772 0.00010632403 0)
(1.846283 9.3403158e-05 0)
(1.9838307 3.7312306e-05 0)
(1.9838307 -3.7312505e-05 0)
(1.846283 -9.3403341e-05 0)
(1.6051772 -0.00010632418 0)
(1.3122638 -8.3831748e-05 0)
(1.0164925 -5.3292813e-05 0)
(0.75105977 -2.9560104e-05 0)
(0.53133728 -1.479651e-05 0)
(0.35944282 -6.7238808e-06 0)
(0.23019263 -2.7162544e-06 0)
(0.13566798 -9.1146726e-07 0)
(0.0678646 -2.1419562e-07 0)
(0.019878409 -3.0813679e-08 0)
(0.019876745 2.8344363e-08 0)
(0.067858993 1.9741807e-07 0)
(0.13565697 8.3952877e-07 0)
(0.23017441 2.5028394e-06 0)
(0.35941547 6.1976681e-06 0)
(0.53129936 1.3645823e-05 0)
(0.75101183 2.7285341e-05 0)
(1.0164401 4.9271755e-05 0)
(1.3122219 7.776772e-05 0)
(1.6051688 9.9356098e-05 0)
(1.8463207 8.8213463e-05 0)
(1.9838998 3.5449358e-05 0)
(1.9838998 -3.5449579e-05 0)
(1.8463207 -8.8213659e-05 0)
(1.6051688 -9.935624e-05 0)
(1.3122219 -7.7767849e-05 0)
(1.0164401 -4.9271971e-05 0)
(0.75101183 -2.7285703e-05 0)
(0.53129936 -1.3646276e-05 0)
(0.35941547 -6.1980868e-06 0)
(0.23017441 -2.5030837e-06 0)
(0.13565697 -8.3977259e-07 0)
(0.067858993 -1.9731184e-07 0)
(0.019876745 -2.8381101e-08 0)
(0.019875208 2.6190672e-08 0)
(0.067853818 1.824448e-07 0)
(0.1356468 7.759629e-07 0)
(0.23015758 2.3137257e-06 0)
(0.3593902 5.7308947e-06 0)
(0.5312643 1.2623594e-05 0)
(0.75096742 2.5260378e-05 0)
(1.0163914 4.5679567e-05 0)
(1.3121824 7.2308066e-05 0)
(1.6051599 9.2973342e-05 0)
(1.8463555 8.3350212e-05 0)
(1.9839652 3.3689355e-05 0)
(1.9839652 -3.3689606e-05 0)
(1.8463555 -8.3350428e-05 0)
(1.6051599 -9.2973488e-05 0)
(1.3121824 -7.2308184e-05 0)
(1.0163914 -4.5679758e-05 0)
(0.75096742 -2.5260704e-05 0)
(0.5312643 -1.2624003e-05 0)
(0.3593902 -5.7312671e-06 0)
(0.23015758 -2.3139378e-06 0)
(0.1356468 -7.7617028e-07 0)
(0.067853818 -1.8235009e-07 0)
(0.019875209 -2.6222442e-08 0)
(0.019873787 2.4268123e-08 0)
(0.067849027 1.6907468e-07 0)
(0.13563738 7.1918748e-07 0)
(0.230142 2.144757e-06 0)
(0.35936679 5.3136163e-06 0)
(0.53123178 1.1708925e-05 0)
(0.75092616 2.3445609e-05 0)
(1.016346 4.2450562e-05 0)
(1.3121452 6.7367613e-05 0)
(1.6051509 8.7107491e-05 0)
(1.8463878 7.8785066e-05 0)
(1.9840271 3.2023718e-05 0)
(1.9840271 -3.202401e-05 0)
(1.8463878 -7.8785313e-05 0)
(1.6051509 -8.7107652e-05 0)
(1.3121452 -6.7367725e-05 0)
(1.016346 -4.2450722e-05 0)
(0.75092616 -2.3445882e-05 0)
(0.53123178 -1.1709263e-05 0)
(0.35936679 -5.3139138e-06 0)
(0.230142 -2.1449185e-06 0)
(0.13563738 -7.1933834e-07 0)
(0.067849027 -1.6899945e-07 0)
(0.019873787 -2.4291997e-08 0)
(0.019872467 2.2541155e-08 0)
(0.067844581 1.5706149e-07 0)
(0.13562864 6.6816223e-07 0)
(0.23012754 1.9928562e-06 0)
(0.35934505 4.9383104e-06 0)
(0.53120156 1.0885608e-05 0)
(0.75088776 2.1809814e-05 0)
(1.0163035 3.9532223e-05 0)
(1.31211 6.2876494e-05 0)
(1.6051418 8.1702042e-05 0)
(1.8464178 7.4491793e-05 0)
(1.9840857 3.0444302e-05 0)
(1.9840857 -3.0444646e-05 0)
(1.8464178 -7.4492083e-05 0)
(1.6051418 -8.1702231e-05 0)
(1.31211 -6.2876606e-05 0)
(1.0163035 -3.9532345e-05 0)
(0.75088776 -2.181001e-05 0)
(0.53120156 -1.0885843e-05 0)
(0.35934505 -4.9384987e-06 0)
(0.23012754 -1.9929452e-06 0)
(0.13562864 -6.6823286e-07 0)
(0.067844581 -1.5701522e-07 0)
(0.019872467 -2.2553663e-08 0)
(0.01987124 2.0981311e-08 0)
(0.067840446 1.4620803e-07 0)
(0.13562051 6.220536e-07 0)
(0.23011408 1.8555553e-06 0)
(0.35932481 4.5989333e-06 0)
(0.53117342 1.0140583e-05 0)
(0.75085195 2.0327736e-05 0)
(1.0162638 3.6881857e-05 0)
(1.3120768 5.8776998e-05 0)
(1.6051327 7.6706724e-05 0)
(1.8464458 7.0451277e-05 0)
(1.9841412 2.8945066e-05 0)
(1.9841412 -2.8945472e-05 0)
(1.8464458 -7.0451623e-05 0)
(1.6051327 -7.6706952e-05 0)
(1.3120768 -5.8777115e-05 0)
(1.0162638 -3.6881931e-05 0)
(0.75085195 -2.0327829e-05 0)
(0.53117342 -1.0140675e-05 0)
(0.35932481 -4.5989717e-06 0)
(0.23011408 -1.855546e-06 0)
(0.13562051 -6.2201642e-07 0)
(0.067840446 -1.4620172e-07 0)
(0.01987124 -2.0978412e-08 0)
(0.019870096 1.9565575e-08 0)
(0.067836592 1.3635476e-07 0)
(0.13561293 5.8018679e-07 0)
(0.23010153 1.7308553e-06 0)
(0.35930594 4.2905865e-06 0)
(0.53114716 9.4632519e-06 0)
(0.75081849 1.897882e-05 0)
(1.0162266 3.4464472e-05 0)
(1.3120455 5.5020993e-05 0)
(1.6051237 7.2080748e-05 0)
(1.8464718 6.6642747e-05 0)
(1.9841938 2.7519576e-05 0)
(1.9841938 -2.7520055e-05 0)
(1.8464718 -6.6643161e-05 0)
(1.6051237 -7.2081027e-05 0)
(1.3120455 -5.502112e-05 0)
(1.0162266 -3.4464486e-05 0)
(0.75081849 -1.8978775e-05 0)
(0.53114716 -9.4631529e-06 0)
(0.35930594 -4.2904273e-06 0)
(0.23010153 -1.730718e-06 0)
(0.13561293 -5.8001017e-07 0)
(0.067836592 -1.36401e-07 0)
(0.019870096 -1.9542635e-08 0)
(0.019869029 1.8275106e-08 0)
(0.067832994 1.2737112e-07 0)
(0.13560586 5.4200916e-07 0)
(0.23008981 1.6171181e-06 0)
(0.35928831 4.0092501e-06 0)
(0.53112262 8.844897e-06 0)
(0.75078719 1.7746115e-05 0)
(1.0161917 3.2251127e-05 0)
(1.312016 5.1568282e-05 0)
(1.6051149 6.7786274e-05 0)
(1.846496 6.3052982e-05 0)
(1.9842436 2.6163802e-05 0)
(1.9842436 -2.6164363e-05 0)
(1.846496 -6.3053475e-05 0)
(1.6051149 -6.7786616e-05 0)
(1.312016 -5.1568419e-05 0)
(1.0161917 -3.2251062e-05 0)
(0.75078719 -1.7745891e-05 0)
(0.53112262 -8.8445518e-06 0)
(0.35928832 -4.0088383e-06 0)
(0.23008981 -1.6168187e-06 0)
(0.13560586 -5.4165717e-07 0)
(0.067832995 -1.2748413e-07 0)
(0.019869029 -1.8226866e-08 0)
(0.019868031 1.709437e-08 0)
(0.067829631 1.1914949e-07 0)
(0.13559924 5.0706477e-07 0)
(0.23007886 1.5129921e-06 0)
(0.35927183 3.7516071e-06 0)
(0.53109966 8.2783255e-06 0)
(0.75075788 1.6615609e-05 0)
(1.0161589 3.0217732e-05 0)
(1.311988 4.8384831e-05 0)
(1.6051063 6.3793691e-05 0)
(1.8465187 5.9663786e-05 0)
(1.9842909 2.4872384e-05 0)
(1.9842909 -2.4873036e-05 0)
(1.8465187 -5.9664368e-05 0)
(1.6051063 -6.3794103e-05 0)
(1.311988 -4.838498e-05 0)
(1.0161589 -3.0217567e-05 0)
(0.75075788 -1.661516e-05 0)
(0.53109966 -8.2776706e-06 0)
(0.35927183 -3.7508803e-06 0)
(0.23007886 -1.5124918e-06 0)
(0.13559924 -5.0649693e-07 0)
(0.067829631 -1.1934518e-07 0)
(0.019868031 -1.7014906e-08 0)
(0.019867097 1.6010382e-08 0)
(0.067826482 1.1159996e-07 0)
(0.13559305 4.7497272e-07 0)
(0.2300686 1.417347e-06 0)
(0.35925639 3.5148794e-06 0)
(0.53107814 7.7574968e-06 0)
(0.75073038 1.557551e-05 0)
(1.0161281 2.8344031e-05 0)
(1.3119617 4.5441988e-05 0)
(1.6050979 6.0073482e-05 0)
(1.8465398 5.6466716e-05 0)
(1.9843356 2.3643007e-05 0)
(1.9843356 -2.3643754e-05 0)
(1.8465398 -5.6467394e-05 0)
(1.6050979 -6.0073974e-05 0)
(1.3119617 -4.5442145e-05 0)
(1.0161281 -2.834374e-05 0)
(0.75073038 -1.5574781e-05 0)
(0.53107814 -7.7564604e-06 0)
(0.35925639 -3.5137672e-06 0)
(0.2300686 -1.4166024e-06 0)
(0.13559305 -4.7414372e-07 0)
(0.067826483 -1.118961e-07 0)
(0.019867097 -1.5893065e-08 0)
(0.019866221 1.5012225e-08 0)
(0.067823531 1.0464689e-07 0)
(0.13558724 4.4541229e-07 0)
(0.23005898 1.329232e-06 0)
(0.35924191 3.2967324e-06 0)
(0.53105796 7.2773426e-06 0)
(0.75070457 1.4615912e-05 0)
(1.0160992 2.6612835e-05 0)
(1.3119367 4.2714911e-05 0)
(1.6050897 5.6603979e-05 0)
(1.8465596 5.3444194e-05 0)
(1.984378 2.2470693e-05 0)
(1.984378 -2.2471538e-05 0)
(1.8465596 -5.3444973e-05 0)
(1.6050897 -5.6604556e-05 0)
(1.3119367 -4.2715073e-05 0)
(1.0160992 -2.6612388e-05 0)
(0.75070457 -1.4614842e-05 0)
(0.53105796 -7.2758438e-06 0)
(0.35924191 -3.295156e-06 0)
(0.23005898 -1.3281944e-06 0)
(0.13558724 -4.4427165e-07 0)
(0.067823531 -1.0506324e-07 0)
(0.019866221 -1.4849662e-08 0)
(0.0198654 1.4090628e-08 0)
(0.067820762 9.8226174e-08 0)
(0.1355818 4.1811168e-07 0)
(0.23004996 1.2478396e-06 0)
(0.35922832 3.0951773e-06 0)
(0.53103901 6.8335259e-06 0)
(0.75068032 1.3728322e-05 0)
(1.0160719 2.5009512e-05 0)
(1.3119132 4.0182707e-05 0)
(1.6050818 5.336125e-05 0)
(1.8465781 5.0592407e-05 0)
(1.9844182 2.1354689e-05 0)
(1.9844182 -2.1355632e-05 0)
(1.8465781 -5.0593293e-05 0)
(1.6050818 -5.3361917e-05 0)
(1.3119132 -4.0182868e-05 0)
(1.0160719 -2.5008875e-05 0)
(0.75068032 -1.3726842e-05 0)
(0.53103901 -6.8314751e-06 0)
(0.35922832 -3.0930492e-06 0)
(0.23004996 -1.2464552e-06 0)
(0.1355818 -4.1660337e-07 0)
(0.067820762 -9.878465e-08 0)
(0.0198654 -1.38746e-08 0)
(0.019864628 1.323764e-08 0)
(0.067818161 9.2282622e-08 0)
(0.13557668 3.9283677e-07 0)
(0.23004148 1.1724762e-06 0)
(0.35921555 2.9085127e-06 0)
(0.5310212 6.4223547e-06 0)
(0.75065752 1.2905501e-05 0)
(1.0160463 2.3521358e-05 0)
(1.3118909 3.7826559e-05 0)
(1.6050743 5.0329473e-05 0)
(1.8465955 4.7892617e-05 0)
(1.9844563 2.0289686e-05 0)
(1.9844563 -2.0290726e-05 0)
(1.8465955 -4.789361e-05 0)
(1.6050743 -5.0330234e-05 0)
(1.3118909 -3.7826713e-05 0)
(1.0160463 -2.3520495e-05 0)
(0.75065752 -1.2903538e-05 0)
(0.5310212 -6.4196529e-06 0)
(0.35921556 -2.9057363e-06 0)
(0.23004148 -1.1706852e-06 0)
(0.13557668 -3.908988e-07 0)
(0.067818162 -9.3007503e-08 0)
(0.019864628 -1.2959024e-08 0)
(0.019863903 1.2446479e-08 0)
(0.067815716 8.6769439e-08 0)
(0.13557187 3.6938918e-07 0)
(0.23003351 1.1025511e-06 0)
(0.35920355 2.7352779e-06 0)
(0.53100445 6.0406278e-06 0)
(0.75063606 1.2141163e-05 0)
(1.0160221 2.2137569e-05 0)
(1.3118699 3.5631086e-05 0)
(1.6050669 4.7488607e-05 0)
(1.8466118 4.5346343e-05 0)
(1.9844924 1.9276641e-05 0)
(1.9844924 -1.9277773e-05 0)
(1.8466118 -4.5347444e-05 0)
(1.6050669 -4.7489467e-05 0)
(1.3118699 -3.5631224e-05 0)
(1.0160221 -2.2136439e-05 0)
(0.75063606 -1.2138634e-05 0)
(0.53100445 -6.0371659e-06 0)
(0.35920355 -2.7317466e-06 0)
(0.23003351 -1.1002878e-06 0)
(0.13557187 -3.6695317e-07 0)
(0.067815717 -8.7687565e-08 0)
(0.019863903 -1.2095177e-08 0)
(0.019863221 1.1711136e-08 0)
(0.067813417 8.1644725e-08 0)
(0.13556735 3.4759095e-07 0)
(0.23002601 1.0375382e-06 0)
(0.35919226 2.5741888e-06 0)
(0.53098868 5.6855699e-06 0)
(0.75061585 1.1429853e-05 0)
(1.0159993 2.08484e-05 0)
(1.31185 3.3581335e-05 0)
(1.6050599 4.4827129e-05 0)
(1.8466272 4.2931677e-05 0)
(1.9845266 1.8309127e-05 0)
(1.9845266 -1.8310344e-05 0)
(1.8466272 -4.2932884e-05 0)
(1.6050599 -4.4828091e-05 0)
(1.31185 -3.3581449e-05 0)
(1.0159993 -2.0846958e-05 0)
(0.75061585 -1.1426666e-05 0)
(0.53098869 -5.6812276e-06 0)
(0.35919226 -2.5697849e-06 0)
(0.23002601 -1.0347303e-06 0)
(0.13556735 -3.4458155e-07 0)
(0.067813418 -8.2785575e-08 0)
(0.019863221 -1.1275993e-08 0)
(0.019862579 1.1026625e-08 0)
(0.067811252 7.6874331e-08 0)
(0.13556309 3.2729748e-07 0)
(0.23001895 9.7700447e-07 0)
(0.35918162 2.4241621e-06 0)
(0.53097384 5.3547811e-06 0)
(0.75059681 1.0766842e-05 0)
(1.0159778 1.9645839e-05 0)
(1.3118312 3.1666232e-05 0)
(1.6050532 4.2328063e-05 0)
(1.8466415 4.0657047e-05 0)
(1.984559 1.7390328e-05 0)
(1.984559 -1.7391617e-05 0)
(1.8466415 -4.0658355e-05 0)
(1.6050532 -4.2329127e-05 0)
(1.3118312 -3.1666311e-05 0)
(1.0159778 -1.9644034e-05 0)
(0.75059682 -1.0762898e-05 0)
(0.53097384 -5.3494264e-06 0)
(0.35918162 -2.4187568e-06 0)
(0.23001895 -9.7357259e-07 0)
(0.13556309 -3.2363201e-07 0)
(0.067811253 -7.8270392e-08 0)
(0.019862579 -1.0495331e-08 0)
(0.019861974 1.0388158e-08 0)
(0.067809213 7.2424455e-08 0)
(0.13555908 3.083648e-07 0)
(0.2300123 9.2052758e-07 0)
(0.3591716 2.2841823e-06 0)
(0.53095985 5.0460959e-06 0)
(0.75057886 1.0147865e-05 0)
(1.0159575 1.8522017e-05 0)
(1.3118134 2.987297e-05 0)
(1.6050467 3.9982646e-05 0)
(1.8466551 3.849474e-05 0)
(1.9845898 1.6511685e-05 0)
(1.9845898 -1.6513032e-05 0)
(1.8466551 -3.8496141e-05 0)
(1.6050467 -3.9983811e-05 0)
(1.3118134 -2.9873001e-05 0)
(1.0159575 -1.8519795e-05 0)
(0.75057887 -1.0143054e-05 0)
(0.53095985 -5.0395839e-06 0)
(0.3591716 -2.2776348e-06 0)
(0.2300123 -9.1638545e-07 0)
(0.13555908 -3.0395325e-07 0)
(0.067809214 -7.4111324e-08 0)
(0.019861975 -9.7472159e-09 0)
(0.019861404 9.7922597e-09 0)
(0.067807292 6.8271951e-08 0)
(0.13555529 2.9069529e-07 0)
(0.23000603 8.6780904e-07 0)
(0.35916216 2.1534757e-06 0)
(0.53094666 4.7577442e-06 0)
(0.75056194 9.5694152e-06 0)
(1.0159384 1.747125e-05 0)
(1.3117965 2.8194505e-05 0)
(1.6050405 3.7777197e-05 0)
(1.8466678 3.64628e-05 0)
(1.9846188 1.5679625e-05 0)
(1.9846188 -1.5681005e-05 0)
(1.8466677 -3.6464279e-05 0)
(1.6050405 -3.7778458e-05 0)
(1.3117965 -2.8194469e-05 0)
(1.0159384 -1.7468548e-05 0)
(0.75056194 -9.5636167e-06 0)
(0.53094666 -4.7499171e-06 0)
(0.35916216 -2.1456328e-06 0)
(0.23000603 -8.6286315e-07 0)
(0.1355553 -2.8544044e-07 0)
(0.067807293 -7.0288068e-08 0)
(0.019861405 -9.0270406e-09 0)
(0.019860867 9.2346882e-09 0)
(0.067805479 6.438601e-08 0)
(0.13555173 2.7415698e-07 0)
(0.23000012 8.1846936e-07 0)
(0.35915325 2.0311639e-06 0)
(0.53093422 4.4879228e-06 0)
(0.75054596 9.0279493e-06 0)
(1.0159203 1.64866e-05 0)
(1.3117806 2.6618367e-05 0)
(1.6050346 3.5703483e-05 0)
(1.8466798 3.4523966e-05 0)
(1.9846465 1.4881994e-05 0)
(1.9846465 -1.4883384e-05 0)
(1.8466798 -3.4525507e-05 0)
(1.6050346 -3.5704834e-05 0)
(1.3117806 -2.6618245e-05 0)
(1.0159203 -1.648335e-05 0)
(0.75054597 -9.0210317e-06 0)
(0.53093422 -4.4786094e-06 0)
(0.35915325 -2.0218601e-06 0)
(0.23000012 -8.1261856e-07 0)
(0.13555173 -2.6795436e-07 0)
(0.067805481 -6.6772207e-08 0)
(0.019860868 -8.3294782e-09 0)
(0.01986036 8.7137276e-09 0)
(0.067803771 6.0756976e-08 0)
(0.13554837 2.587101e-07 0)
(0.22999455 7.723699e-07 0)
(0.35914485 1.9168144e-06 0)
(0.53092248 4.2354985e-06 0)
(0.75053089 8.5211639e-06 0)
(1.0159032 1.5564882e-05 0)
(1.3117655 2.5142468e-05 0)
(1.605029 3.3753153e-05 0)
(1.846691 3.2710268e-05 0)
(1.9846726 1.4130211e-05 0)
(1.9846726 -1.4131577e-05 0)
(1.846691 -3.271185e-05 0)
(1.605029 -3.3754583e-05 0)
(1.3117655 -2.5142238e-05 0)
(1.0159032 -1.5561011e-05 0)
(0.7505309 -8.5129897e-06 0)
(0.53092249 -4.2245194e-06 0)
(0.35914485 -1.905877e-06 0)
(0.22999455 -7.6551001e-07 0)
(0.13554837 -2.5145051e-07 0)
(0.067803772 -6.3557962e-08 0)
(0.019860361 -7.6517155e-09 0)
(0.019859881 8.2246578e-09 0)
(0.067802156 5.7348812e-08 0)
(0.13554519 2.441991e-07 0)
(0.22998928 7.2907985e-07 0)
(0.35913691 1.8095034e-06 0)
(0.53091139 3.9987323e-06 0)
(0.75051664 8.0457077e-06 0)
(1.0158871 1.4698891e-05 0)
(1.3117512 2.3752066e-05 0)
(1.6050236 3.1914486e-05 0)
(1.8467017 3.096944e-05 0)
(1.9846975 1.3406318e-05 0)
(1.9846975 -1.340763e-05 0)
(1.8467017 -3.097104e-05 0)
(1.6050236 -3.1915989e-05 0)
(1.3117512 -2.3751708e-05 0)
(1.0158871 -1.4694329e-05 0)
(0.75051665 -8.0361368e-06 0)
(0.5309114 -3.9859061e-06 0)
(0.35913691 -1.7967601e-06 0)
(0.22998928 -7.2110914e-07 0)
(0.13554519 -2.3577491e-07 0)
(0.067802158 -6.0611814e-08 0)
(0.019859882 -6.9887603e-09 0)
(0.01985943 7.7690183e-09 0)
(0.067800634 5.4177462e-08 0)
(0.13554219 2.3069403e-07 0)
(0.22998431 6.8875495e-07 0)
(0.35912943 1.7093875e-06 0)
(0.53090093 3.7774949e-06 0)
(0.7505032 7.6010788e-06 0)
(1.0158719 1.3889321e-05 0)
(1.3117377 2.2453218e-05 0)
(1.6050185 3.0189925e-05 0)
(1.8467117 2.9354488e-05 0)
(1.9847208 1.272965e-05 0)
(1.9847208 -1.2730874e-05 0)
(1.8467117 -2.9356089e-05 0)
(1.6050185 -3.0191498e-05 0)
(1.3117377 -2.2452722e-05 0)
(1.0158719 -1.3884003e-05 0)
(0.75050322 -7.5899735e-06 0)
(0.53090094 -3.7626373e-06 0)
(0.35912943 -1.6946626e-06 0)
(0.22998432 -6.7956903e-07 0)
(0.1355422 -2.2100193e-07 0)
(0.067800636 -5.7944244e-08 0)
(0.019859431 -6.3434455e-09 0)
(0.019859002 7.3389526e-09 0)
(0.067799193 5.11805e-08 0)
(0.13553936 2.1792531e-07 0)
(0.22997961 6.5067778e-07 0)
(0.35912234 1.615058e-06 0)
(0.53089102 3.569447e-06 0)
(0.75049047 7.1830507e-06 0)
(1.0158574 1.312643e-05 0)
(1.3117249 2.1224136e-05 0)
(1.6050136 2.8556733e-05 0)
(1.8467212 2.7790325e-05 0)
(1.9847433 1.2073138e-05 0)
(1.9847433 -1.2074253e-05 0)
(1.8467212 -2.7791915e-05 0)
(1.6050136 -2.855839e-05 0)
(1.3117249 -2.1223507e-05 0)
(1.0158574 -1.3120316e-05 0)
(0.75049048 -7.1703011e-06 0)
(0.53089103 -3.5523983e-06 0)
(0.35912234 -1.598193e-06 0)
(0.22997961 -6.4018048e-07 0)
(0.13553936 -2.068696e-07 0)
(0.067799194 -5.5488511e-08 0)
(0.019859003 -5.7090399e-09 0)
(0.0198586 6.9447579e-09 0)
(0.067797836 4.844174e-08 0)
(0.13553669 2.0625128e-07 0)
(0.22997518 6.1576713e-07 0)
(0.35911566 1.5281637e-06 0)
(0.5308817 3.3768956e-06 0)
(0.75047849 6.7952142e-06 0)
(1.0158438 1.2419155e-05 0)
(1.3117128 2.0087186e-05 0)
(1.605009 2.7040388e-05 0)
(1.84673 2.636236e-05 0)
(1.9847642 1.1469002e-05 0)
(1.9847642 -1.1469988e-05 0)
(1.84673 -2.6363954e-05 0)
(1.6050089 -2.7042177e-05 0)
(1.3117128 -2.008648e-05 0)
(1.0158438 -1.2412258e-05 0)
(0.7504785 -6.7807769e-06 0)