/*--------------------------------*- C++ -*----------------------------------*\
| =========                 |                                                 |
| \\      /  F ield         | OpenFOAM: The Open Source CFD Toolbox           |
|  \\    /   O peration     | Version:  2406                                  |
|   \\  /    A nd           | Website:  www.openfoam.com                      |
|    \\/     M anipulation  |                                                 |
\*---------------------------------------------------------------------------*/
FoamFile
{
    version     2.0;
    format      ascii;
    arch        "LSB;label=32;scalar=64";
    class       volScalarField;
    location    "46";
    object      p;
}
// * * * * * * * * * * * * * * * * * * * * * * * * * * * * * * * * * * * * * //

dimensions      [0 2 -2 0 0 0 0];

internalField   nonuniform List<scalar> 
1176
(
0.79699976
0.79702264
0.7970463
0.79705396
0.79702244
0.79692774
0.79677051
0.79658434
0.79640514
0.79623799
0.79608337
0.79598776
0.79598776
0.79608337
0.79623799
0.79640514
0.79658434
0.79677049
0.79692769
0.79702236
0.79705386
0.79704617
0.7970225
0.79699962
0.77385133
0.77380437
0.77375662
0.77373972
0.77380222
0.77400458
0.7743699
0.7748343
0.77526516
0.77555126
0.77567066
0.77570492
0.77570492
0.77567066
0.77555127
0.77526518
0.77483432
0.77436993
0.77400462
0.77380228
0.77373979
0.77375669
0.77380445
0.77385141
0.75676658
0.75678859
0.75680838
0.75680647
0.75674741
0.75658624
0.75631447
0.75598652
0.75568031
0.75546752
0.75535671
0.7553079
0.7553079
0.75535672
0.75546752
0.75568031
0.75598652
0.75631446
0.75658622
0.75674739
0.75680645
0.75680836
0.75678857
0.75676655
0.74009468
0.74010381
0.74011587
0.74013227
0.74015481
0.74017238
0.74014015
0.74000674
0.73977463
0.73950206
0.73927786
0.73915736
0.73915736
0.73927786
0.73950207
0.73977464
0.74000675
0.74014016
0.74017239
0.74015482
0.74013227
0.74011587
0.74010381
0.74009468
0.72367564
0.72367959
0.72368458
0.72369064
0.72370035
0.72372062
0.7237568
0.72379831
0.72381998
0.72379611
0.72373399
0.72368136
0.72368136
0.723734
0.72379611
0.72381998
0.72379831
0.7237568
0.72372062
0.72370034
0.72369064
0.72368458
0.72367959
0.72367563
0.70721398
0.70721639
0.70721964
0.70722368
0.70722859
0.70723543
0.70724959
0.70728091
0.70733089
0.70738814
0.70743085
0.70744751
0.70744751
0.70743085
0.70738814
0.70733089
0.70728091
0.70724959
0.70723542
0.70722859
0.70722368
0.70721963
0.70721639
0.70721397
0.69080817
0.69081031
0.69081312
0.69081655
0.69082044
0.69082396
0.69082602
0.6908282
0.69083675
0.69085398
0.69087188
0.69088359
0.69088359
0.69087188
0.69085398
0.69083675
0.6908282
0.69082602
0.69082395
0.69082044
0.69081654
0.69081311
0.6908103
0.69080817
0.67442831
0.67443006
0.67443239
0.67443531
0.67443899
0.67444336
0.67444781
0.67445096
0.6744522
0.67445382
0.67445086
0.67444835
0.67444835
0.67445086
0.67445382
0.6744522
0.67445096
0.67444781
0.67444335
0.67443898
0.67443531
0.67443239
0.67443006
0.6744283
0.65807402
0.65807548
0.65807741
0.65807982
0.65808283
0.65808662
0.65809166
0.65809871
0.6581074
0.65811742
0.65812519
0.65812878
0.65812878
0.65812519
0.65811742
0.65810739
0.65809871
0.65809166
0.65808662
0.65808283
0.65807982
0.6580774
0.65807548
0.65807402
0.64173633
0.64173753
0.64173914
0.64174118
0.64174374
0.64174692
0.64175108
0.64175747
0.64176763
0.64178076
0.64179509
0.6418044
0.6418044
0.64179509
0.64178076
0.64176763
0.64175747
0.64175108
0.64174692
0.64174374
0.64174118
0.64173914
0.64173753
0.64173633
0.62541195
0.62541298
0.62541435
0.6254161
0.62541831
0.62542104
0.62542443
0.62542928
0.62543714
0.6254478
0.62546036
0.6254695
0.6254695
0.62546036
0.6254478
0.62543714
0.62542928
0.62542443
0.62542104
0.62541831
0.6254161
0.62541435
0.62541298
0.62541195
0.60909847
0.60909937
0.60910057
0.60910209
0.60910403
0.60910643
0.60910939
0.6091134
0.60911962
0.60912828
0.60913884
0.60914629
0.60914629
0.60913884
0.60912828
0.60911962
0.6091134
0.60910939
0.60910643
0.60910403
0.60910209
0.60910057
0.60909937
0.60909848
0.59279428
0.59279507
0.59279612
0.59279747
0.59279919
0.59280132
0.59280396
0.5928075
0.5928129
0.59282064
0.59283033
0.59283701
0.59283701
0.59283033
0.59282064
0.5928129
0.5928075
0.59280396
0.59280132
0.59279919
0.59279747
0.59279613
0.59279507
0.59279428
0.57649806
0.57649876
0.5764997
0.5765009
0.57650244
0.57650435
0.57650669
0.57650983
0.5765146
0.57652157
0.57653024
0.57653633
0.57653633
0.57653024
0.57652157
0.5765146
0.57650983
0.57650669
0.57650435
0.57650244
0.57650091
0.5764997
0.57649876
0.57649806
0.56020879
0.56020942
0.56021026
0.56021135
0.56021273
0.56021445
0.56021655
0.56021931
0.56022347
0.5602296
0.56023712
0.56024253
0.56024253
0.56023712
0.5602296
0.56022347
0.56021931
0.56021655
0.56021445
0.56021273
0.56021135
0.56021027
0.56020942
0.5602088
0.54392567
0.54392624
0.543927
0.54392798
0.54392924
0.54393079
0.54393269
0.54393514
0.54393878
0.54394415
0.54395069
0.54395548
0.54395548
0.54395069
0.54394415
0.54393877
0.54393514
0.54393269
0.54393079
0.54392924
0.54392799
0.54392701
0.54392624
0.54392568
0.52764804
0.52764856
0.52764926
0.52765015
0.52765129
0.52765271
0.52765443
0.52765663
0.52765985
0.52766462
0.52767034
0.52767463
0.52767463
0.52767034
0.52766461
0.52765985
0.52765663
0.52765443
0.52765271
0.5276513
0.52765015
0.52764926
0.52764857
0.52764805
0.51137536
0.51137584
0.51137647
0.51137729
0.51137834
0.51137963
0.5113812
0.51138319
0.51138607
0.51139032
0.51139537
0.51139923
0.51139923
0.51139537
0.51139032
0.51138607
0.51138319
0.5113812
0.51137964
0.51137834
0.5113773
0.51137648
0.51137585
0.51137537
0.49510717
0.4951076
0.49510819
0.49510894
0.4951099
0.49511109
0.49511253
0.49511434
0.49511692
0.49512072
0.49512522
0.49512871
0.4951287
0.49512522
0.49512072
0.49511691
0.49511434
0.49511253
0.4951111
0.49510991
0.49510895
0.4951082
0.49510761
0.49510718
0.47884306
0.47884346
0.478844
0.47884469
0.47884558
0.47884668
0.478848
0.47884965
0.47885197
0.4788554
0.47885943
0.47886259
0.47886259
0.47885943
0.47885539
0.47885196
0.47884964
0.478848
0.47884668
0.47884558
0.4788447
0.47884401
0.47884347
0.47884307
0.46258269
0.46258306
0.46258355
0.46258419
0.46258502
0.46258603
0.46258726
0.46258877
0.46259087
0.46259397
0.46259761
0.46260048
0.46260048
0.46259761
0.46259396
0.46259086
0.46258876
0.46258726
0.46258604
0.46258503
0.46258421
0.46258357
0.46258307
0.4625827
0.44632575
0.4463261
0.44632656
0.44632715
0.44632791
0.44632886
0.44632999
0.44633138
0.44633329
0.44633611
0.44633942
0.44634204
0.44634204
0.44633942
0.4463361
0.44633329
0.44633137
0.44632999
0.44632886
0.44632792
0.44632716
0.44632657
0.44632611
0.44632577
0.43007199
0.43007231
0.43007274
0.43007329
0.430074
0.43007487
0.43007592
0.43007721
0.43007896
0.43008153
0.43008456
0.43008695
0.43008695
0.43008456
0.43008152
0.43007895
0.4300772
0.43007592
0.43007488
0.43007401
0.4300733
0.43007275
0.43007233
0.43007201
0.41382115
0.41382145
0.41382185
0.41382236
0.41382302
0.41382384
0.41382482
0.41382601
0.41382761
0.41382997
0.41383275
0.41383494
0.41383494
0.41383275
0.41382996
0.4138276
0.413826
0.41382482
0.41382385
0.41382304
0.41382238
0.41382187
0.41382147
0.41382118
0.39757304
0.39757331
0.39757369
0.39757416
0.39757478
0.39757554
0.39757646
0.39757756
0.39757904
0.3975812
0.39758377
0.39758578
0.39758578
0.39758377
0.39758119
0.39757903
0.39757755
0.39757646
0.39757555
0.3975748
0.39757419
0.39757371
0.39757334
0.39757306
0.38132744
0.3813277
0.38132805
0.3813285
0.38132907
0.38132979
0.38133064
0.38133166
0.38133303
0.38133503
0.3813374
0.38133925
0.38133925
0.3813374
0.38133502
0.38133302
0.38133166
0.38133064
0.3813298
0.38132909
0.38132852
0.38132808
0.38132773
0.38132747
0.3650842
0.36508444
0.36508477
0.36508519
0.36508573
0.36508639
0.36508719
0.36508815
0.36508941
0.36509126
0.36509346
0.36509517
0.36509517
0.36509346
0.36509125
0.3650894
0.36508814
0.36508719
0.36508641
0.36508575
0.36508521
0.3650848
0.36508447
0.36508423
0.34884315
0.34884338
0.34884368
0.34884407
0.34884458
0.34884521
0.34884595
0.34884684
0.34884802
0.34884973
0.34885178
0.34885336
0.34885336
0.34885177
0.34884971
0.34884801
0.34884684
0.34884595
0.34884522
0.3488446
0.3488441
0.34884371
0.34884341
0.34884318
0.33260415
0.33260436
0.33260464
0.33260501
0.33260549
0.33260607
0.33260677
0.33260761
0.3326087
0.33261029
0.3326122
0.33261367
0.33261366
0.33261219
0.33261027
0.33260869
0.3326076
0.33260677
0.33260609
0.33260551
0.33260504
0.33260468
0.33260439
0.33260418
0.31636706
0.31636725
0.31636752
0.31636787
0.31636831
0.31636887
0.31636952
0.3163703
0.31637132
0.3163728
0.31637458
0.31637595
0.31637594
0.31637458
0.31637278
0.31637131
0.31637029
0.31636952
0.31636888
0.31636834
0.3163679
0.31636756
0.3163673
0.3163671
0.30013176
0.30013195
0.3001322
0.30013252
0.30013294
0.30013346
0.30013408
0.30013481
0.30013576
0.30013714
0.30013881
0.30014008
0.30014007
0.3001388
0.30013712
0.30013575
0.3001348
0.30013408
0.30013348
0.30013297
0.30013256
0.30013224
0.30013199
0.3001318
0.28389814
0.28389832
0.28389856
0.28389886
0.28389925
0.28389974
0.28390032
0.28390101
0.2839019
0.28390318
0.28390474
0.28390593
0.28390592
0.28390473
0.28390316
0.28390188
0.283901
0.28390032
0.28389976
0.28389929
0.2838989
0.2838986
0.28389837
0.28389819
0.2676661
0.26766627
0.26766649
0.26766678
0.26766715
0.26766761
0.26766815
0.2676688
0.26766963
0.26767083
0.2676723
0.2676734
0.2676734
0.26767229
0.26767081
0.26766961
0.26766879
0.26766816
0.26766763
0.26766718
0.26766682
0.26766654
0.26766632
0.26766616
0.25143554
0.2514357
0.25143591
0.25143618
0.25143653
0.25143696
0.25143748
0.25143808
0.25143887
0.25143998
0.25144136
0.25144239
0.25144239
0.25144135
0.25143996
0.25143884
0.25143807
0.25143748
0.25143699
0.25143657
0.25143623
0.25143596
0.25143576
0.2514356
0.23520638
0.23520653
0.23520672
0.23520698
0.23520731
0.23520772
0.2352082
0.23520877
0.2352095
0.23521055
0.23521185
0.23521281
0.23521281
0.23521183
0.23521053
0.23520948
0.23520876
0.2352082
0.23520774
0.23520735
0.23520703
0.23520678
0.23520659
0.23520644
0.21897852
0.21897866
0.21897885
0.21897909
0.2189794
0.21897978
0.21898024
0.21898078
0.21898147
0.21898245
0.21898366
0.21898457
0.21898456
0.21898365
0.21898242
0.21898144
0.21898076
0.21898024
0.21897981
0.21897945
0.21897915
0.21897891
0.21897873
0.21897859
0.2027519
0.20275203
0.20275221
0.20275243
0.20275272
0.20275309
0.20275352
0.20275402
0.20275467
0.20275559
0.20275674
0.20275759
0.20275759
0.20275673
0.20275557
0.20275464
0.20275401
0.20275352
0.20275312
0.20275278
0.2027525
0.20275228
0.20275211
0.20275198
0.18652644
0.18652656
0.18652673
0.18652694
0.18652722
0.18652756
0.18652797
0.18652844
0.18652905
0.18652991
0.18653099
0.18653178
0.18653178
0.18653097
0.18652989
0.18652902
0.18652843
0.18652797
0.18652759
0.18652727
0.18652701
0.18652681
0.18652664
0.18652652
0.17030207
0.17030219
0.17030234
0.17030254
0.17030281
0.17030313
0.17030351
0.17030396
0.17030453
0.17030535
0.17030636
0.17030711
0.17030711
0.17030635
0.17030532
0.1703045
0.17030394
0.17030352
0.17030316
0.17030287
0.17030262
0.17030243
0.17030228
0.17030216
0.15407874
0.15407885
0.154079
0.15407919
0.15407943
0.15407974
0.1540801
0.15408052
0.15408106
0.15408182
0.15408276
0.15408346
0.15408346
0.15408275
0.15408179
0.15408103
0.1540805
0.15408011
0.15407978
0.1540795
0.15407927
0.15407909
0.15407895
0.15407884
0.13785637
0.13785648
0.13785662
0.1378568
0.13785703
0.13785732
0.13785766
0.13785806
0.13785856
0.13785928
0.13786018
0.13786083
0.13786083
0.13786016
0.13785925
0.13785853
0.13785804
0.13785767
0.13785736
0.1378571
0.13785689
0.13785672
0.13785658
0.13785648
0.12163494
0.12163504
0.12163518
0.12163535
0.12163557
0.12163584
0.12163616
0.12163654
0.12163701
0.12163766
0.12163848
0.12163908
0.12163908
0.12163846
0.12163763
0.12163697
0.12163651
0.12163617
0.12163589
0.12163564
0.12163545
0.12163528
0.12163516
0.12163506
0.10541436
0.10541445
0.10541458
0.10541474
0.10541495
0.10541521
0.10541551
0.10541586
0.1054163
0.10541692
0.10541769
0.10541825
0.10541824
0.10541767
0.10541689
0.10541627
0.10541584
0.10541552
0.10541526
0.10541503
0.10541485
0.1054147
0.10541458
0.10541449
0.089194646
0.089194734
0.089194854
0.089195007
0.089195204
0.089195447
0.089195733
0.089196063
0.089196465
0.089197008
0.089197665
0.089198134
0.089198128
0.089197643
0.089196971
0.089196425
0.08919604
0.089195746
0.089195502
0.089195294
0.08919512
0.089194977
0.089194865
0.089194781
0.072975641
0.072975723
0.072975835
0.07297598
0.072976168
0.072976402
0.072976677
0.072976991
0.072977367
0.072977864
0.072978451
0.072978851
0.072978845
0.07297843
0.072977826
0.072977325
0.072976967
0.072976691
0.07297646
0.072976263
0.072976099
0.072975963
0.072975859
0.072975779
0.05675752
0.056757601
0.056757709
0.056757847
0.056758023
0.056758238
0.05675849
0.056758773
0.056759093
0.05675947
0.056759851
0.056760068
0.056760061
0.056759829
0.056759432
0.056759051
0.056758749
0.056758504
0.056758297
0.056758119
0.056757966
0.056757836
0.056757735
0.056757658
0.040539732
0.040539803
0.040539901
0.040540032
0.040540207
0.040540431
0.040540695
0.040540986
0.04054131
0.040541718
0.04054219
0.0405425
0.040542494
0.04054217
0.040541682
0.04054127
0.040540963
0.04054071
0.040540488
0.040540299
0.040540145
0.040540021
0.04053993
0.040539861
0.024323463
0.024323546
0.024323653
0.024323781
0.024323928
0.024324089
0.024324261
0.024324443
0.024324608
0.024324686
0.024324602
0.024324374
0.024324369
0.024324585
0.024324654
0.024324573
0.024324426
0.024324278
0.024324142
0.024324009
0.024323878
0.024323754
0.02432365
0.024323568
0.0081053675
0.0081054378
0.0081055306
0.008105652
0.0081058128
0.0081060122
0.0081062325
0.008106471
0.0081068481
0.0081076838
0.0081091637
0.0081105335
0.008110531
0.0081091541
0.0081076654
0.0081068277
0.008106462
0.0081062451
0.0081060471
0.0081058632
0.0081057096
0.0081055887
0.0081054961
0.008105425
)
;

boundaryField
{
    INLET
    {
        type            zeroGradient;
    }
    OUTLET
    {
        type            fixedValue;
        value           uniform 0;
    }
    WALL
    {
        type            zeroGradient;
    }
    frontAndBackPlanes
    {
        type            empty;
    }
}


// ************************************************************************* //
