/*--------------------------------*- C++ -*----------------------------------*\
| =========                 |                                                 |
| \\      /  F ield         | OpenFOAM: The Open Source CFD Toolbox           |
|  \\    /   O peration     | Version:  2406                                  |
|   \\  /    A nd           | Website:  www.openfoam.com                      |
|    \\/     M anipulation  |                                                 |
\*---------------------------------------------------------------------------*/
FoamFile
{
    version     2.0;
    format      ascii;
    arch        "LSB;label=32;scalar=64";
    class       surfaceScalarField;
    location    "46";
    object      phi;
}
// * * * * * * * * * * * * * * * * * * * * * * * * * * * * * * * * * * * * * //

dimensions      [0 3 -1 0 0 0 0];

oriented        oriented;

internalField   nonuniform List<scalar> 
2279
(
2.3617486e-08
1.0148926e-05
2.0509765e-07
4.982375e-05
6.9331765e-07
0.00014252872
1.5784717e-06
0.00034353082
2.6788479e-06
0.00075378089
3.3472918e-06
0.0015415573
3.0435207e-06
0.0029497096
2.1516849e-06
0.005249171
1.4318043e-06
0.008582269
9.8959162e-07
0.012685995
5.1266511e-07
0.016666385
-4.7044316e-12
0.01918202
-5.1267273e-07
0.01918202
-9.8958928e-07
0.016666385
-1.4317719e-06
0.012685995
-2.1515807e-06
0.0085822689
-3.0432895e-06
0.0052491709
-3.346902e-06
0.0029497095
-2.6783326e-06
0.0015415572
-1.5779295e-06
0.00075378084
-6.9285611e-07
0.0003435308
-2.0480211e-07
0.00014252871
-2.3486492e-08
4.9823748e-05
1.0148926e-05
-9.5248473e-08
1.0244175e-05
-5.3794007e-07
5.0266441e-05
-1.6230011e-06
0.00014361378
-3.5389522e-06
0.00034544677
-5.9201861e-06
0.00075616213
-7.4055015e-06
0.0015430426
-6.5847257e-06
0.0029488888
-3.9361577e-06
0.0052465224
-1.3883872e-06
0.0085797213
-6.5118887e-08
0.012684671
2.4240252e-07
0.016666078
-1.2716031e-11
0.019182263
-2.4243312e-07
0.019182263
6.5080368e-08
0.016666078
1.3883363e-06
0.012684671
3.9360894e-06
0.0085797213
6.5846185e-06
0.0052465225
7.4053342e-06
0.0029488889
5.9199744e-06
0.0015430427
3.5387453e-06
0.00075616216
1.6228425e-06
0.00034544679
5.378508e-07
0.00014361379
9.5215264e-08
5.0266444e-05
1.0244176e-05
5.0139842e-08
1.0194035e-05
2.6334501e-07
5.0053236e-05
7.4910728e-07
0.00014312802
1.5314587e-06
0.00034466442
2.3366564e-06
0.00075535693
2.5476635e-06
0.0015428316
1.8390988e-06
0.0029495974
9.756784e-07
0.0052473858
6.7696211e-07
0.00858002
6.7178924e-07
0.012684677
4.841651e-07
0.016666266
5.4880992e-14
0.019182747
-4.8416342e-07
0.019182747
-6.7178191e-07
0.016666266
-6.7694421e-07
0.012684677
-9.7564259e-07
0.00858002
-1.8390515e-06
0.0052473858
-2.5476118e-06
0.0029495974
-2.3366096e-06
0.0015428316
-1.5314304e-06
0.00075535693
-7.4909846e-07
0.00034466442
-2.6334468e-07
0.00014312802
-5.0142139e-08
5.0053236e-05
1.0194035e-05
1.9586697e-08
1.0174448e-05
1.1184924e-07
4.9960974e-05
3.6128437e-07
0.00014287858
9.0504817e-07
0.00034412066
1.8716611e-06
0.00075439032
3.0948259e-06
0.0015416085
3.8987277e-06
0.0029487935
3.7285596e-06
0.005247556
2.9242145e-06
0.0085808243
1.9733761e-06
0.012685627
1.0127685e-06
0.016667226
-6.3232825e-12
0.01918376
-1.0127812e-06
0.01918376
-1.973388e-06
0.016667226
-2.9242234e-06
0.012685627
-3.7285585e-06
0.0085808243
-3.8987078e-06
0.005247556
-3.0947913e-06
0.0029487935
-1.8716192e-06
0.0015416085
-9.0500548e-07
0.00075439032
-3.6124886e-07
0.00034412066
-1.1182638e-07
0.00014287858
-1.9576625e-08
4.9960974e-05
1.0174448e-05
8.083971e-09
1.0166364e-05
4.7141587e-08
4.9921916e-05
1.5494719e-07
0.00014277078
3.9846387e-07
0.00034387714
8.7979626e-07
0.00075390899
1.7015196e-06
0.0015407867
2.7512803e-06
0.0029477437
3.4623681e-06
0.0052468449
3.4708684e-06
0.0085808158
2.8006908e-06
0.012686298
1.5505147e-06
0.016668476
-5.75429e-12
0.01918531
-1.5505253e-06
0.01918531
-2.8006968e-06
0.016668476
-3.4708635e-06
0.012686298
-3.462359e-06
0.0085808158
-2.7512697e-06
0.0052468449
-1.7015102e-06
0.0029477437
-8.7979196e-07
0.0015407867
-3.9846338e-07
0.00075390899
-1.5494833e-07
0.00034387714
-4.7142267e-08
0.00014277078
-8.0841621e-09
4.9921916e-05
1.0166364e-05
4.9359447e-09
1.0161429e-05
2.8699064e-08
4.9898153e-05
9.5121909e-08
0.00014270436
2.4921531e-07
0.00034372305
5.6361131e-07
0.00075359459
1.1213784e-06
0.001540229
1.918463e-06
0.0029469467
2.6588277e-06
0.0052461046
2.8930663e-06
0.0085805816
2.4787722e-06
0.012686712
1.4344285e-06
0.016669521
-1.5375689e-12
0.019186745
-1.4344304e-06
0.019186745
-2.4787701e-06
0.016669521
-2.8930578e-06
0.012686712
-2.6588113e-06
0.0085805816
-1.9184432e-06
0.0052461046
-1.1213598e-06
0.0029469467
-5.6359732e-07
0.001540229
-2.4920639e-07
0.00075359459
-9.5117096e-08
0.00034372305
-2.8696635e-08
0.00014270436
-4.9350745e-09
4.9898153e-05
1.0161429e-05
4.412412e-09
1.0157016e-05
2.5525832e-08
4.987704e-05
8.3830485e-08
0.00014264605
2.1689493e-07
0.00034358998
4.8450274e-07
0.00075332698
9.5636379e-07
0.0015397571
1.6413784e-06
0.0029462616
2.3245886e-06
0.0052454214
2.5939601e-06
0.0085803122
2.239369e-06
0.012687066
1.3066776e-06
0.016670453
1.5873042e-12
0.019188051
-1.3066737e-06
0.019188051
-2.2393629e-06
0.016670453
-2.5939509e-06
0.012687066
-2.3245762e-06
0.0085803122
-1.6413653e-06
0.0052454214
-9.5635206e-07
0.0029462616
-4.8449348e-07
0.0015397571
-2.1688834e-07
0.00075332698
-8.3826263e-08
0.00034358998
-2.5523481e-08
0.00014264605
-4.4114669e-09
4.987704e-05
1.0157016e-05
3.6255898e-09
1.0153391e-05
2.1036726e-08
4.9859629e-05
6.9438403e-08
0.00014259765
1.8114206e-07
0.00034347828
4.0971553e-07
0.00075309841
8.2390606e-07
0.0015393429
1.453996e-06
0.0029456316
2.1430806e-06
0.0052447323
2.467479e-06
0.0085799878
2.1883991e-06
0.012687346
1.286647e-06
0.016671355
2.7341277e-12
0.019189338
-1.286641e-06
0.019189338
-2.1883914e-06
0.016671355
-2.46747e-06
0.012687346
-2.1430717e-06
0.0085799878
-1.4539884e-06
0.0052447323
-8.2390063e-07
0.0029456316
-4.0971236e-07
0.0015393429
-1.8114053e-07
0.00075309841
-6.9437759e-08
0.00034347828
-2.1036553e-08
0.00014259765
-3.6255626e-09
4.9859629e-05
1.0153391e-05
2.9831892e-09
1.0150408e-05
1.7347135e-08
4.9845265e-05
5.7377533e-08
0.00014255762
1.5007426e-07
0.00034338559
3.4097192e-07
0.00075290751
6.9193321e-07
0.001538992
1.2441111e-06
0.0029450794
1.9041896e-06
0.0052440722
2.3016052e-06
0.0085795904
2.0975129e-06
0.01268755
1.2520144e-06
0.016672201
2.7383373e-12
0.01919059
-1.2520085e-06
0.01919059
-2.0975058e-06
0.016672201
-2.3015978e-06
0.01268755
-1.9041834e-06
0.0085795904
-1.2441068e-06
0.0052440722
-6.9193112e-07
0.0029450794
-3.4097174e-07
0.001538992
-1.5007505e-07
0.00075290751
-5.7378433e-08
0.00034338559
-1.7347951e-08
0.00014255762
-2.9835968e-09
4.9845265e-05
1.0150408e-05
2.4654761e-09
1.0147942e-05
1.4363229e-08
4.9833367e-05
4.7626662e-08
0.00014252436
1.2502895e-07
0.00034330818
2.8558934e-07
0.00075274695
5.8418011e-07
0.0015386934
1.0641856e-06
0.0029445994
1.6641599e-06
0.0052434722
2.0898773e-06
0.0085791647
1.9528975e-06
0.012687687
1.1802473e-06
0.016672973
1.8363845e-12
0.01919177
-1.1802432e-06
0.01919177
-1.9528926e-06
0.016672973
-2.0898726e-06
0.012687687
-1.6641565e-06
0.0085791647
-1.0641844e-06
0.0052434722
-5.8418138e-07
0.0029445994
-2.8559222e-07
0.0015386934
-1.2503211e-07
0.00075274695
-4.7629086e-08
0.00034330818
-1.4365002e-08
0.00014252436
-2.4662917e-09
4.9833367e-05
1.0147942e-05
2.1024836e-09
1.014584e-05
1.2258134e-08
4.9823212e-05
4.0688359e-08
0.00014249593
1.0699029e-07
0.00034324188
2.450785e-07
0.00075260886
5.0385296e-07
0.0015384346
9.2623484e-07
0.002944177
1.4715117e-06
0.0052429269
1.8909093e-06
0.0085787453
1.8050237e-06
0.012687772
1.1036911e-06
0.016673675
8.9514215e-13
0.019192874
-1.1036889e-06
0.019192874
-1.8050208e-06
0.016673675
-1.8909069e-06
0.012687772
-1.4715108e-06
0.0085787453
-9.2623674e-07
0.005242927
-5.0385781e-07
0.002944177
-2.4508487e-07
0.0015384346
-1.0699628e-07
0.00075260887
-4.0692673e-08
0.00034324188
-1.2261117e-08
0.00014249593
-2.1038192e-09
4.9823212e-05
1.014584e-05
1.8282507e-09
1.0144011e-05
1.0665521e-08
4.9814374e-05
3.5430305e-08
0.00014247116
9.3282915e-08
0.00034318403
2.1413885e-07
0.00075248801
4.4192695e-07
0.0015382068
8.181127e-07
0.0029438008
1.3163798e-06
0.0052424287
1.7244933e-06
0.0085783372
1.6780425e-06
0.012687819
1.0378045e-06
0.016674315
3.589459e-13
0.019193912
-1.0378033e-06
0.019193912
-1.6780409e-06
0.016674315
-1.7244924e-06
0.012687819
-1.3163809e-06
0.0085783372
-8.1811754e-07
0.0052424287
-4.4193558e-07
0.0029438008
-2.141491e-07
0.0015382068
-9.3292114e-08
0.00075248801
-3.5436758e-08
0.00034318403
-1.0669893e-08
0.00014247116
-1.8301868e-09
4.9814375e-05
1.0144011e-05
1.6104895e-09
1.0142401e-05
9.3996556e-09
4.9806585e-05
3.1244353e-08
0.00014244932
8.2340194e-08
0.00034313293
1.8932019e-07
0.00075238103
3.9182212e-07
0.0015380043
7.292402e-07
0.0029434634
1.1851441e-06
0.0052419728
1.5781739e-06
0.0085779441
1.5623382e-06
0.012687835
9.7669749e-07
0.0166749
2.8278028e-13
0.019194888
-9.7669652e-07
0.019194888
-1.562337e-06
0.0166749
-1.5781735e-06
0.012687835
-1.1851467e-06
0.0085779442
-7.292481e-07
0.0052419728
-3.918351e-07
0.0029434634
-1.8933505e-07
0.0015380043
-8.2353246e-08
0.00075238103
-3.1253379e-08
0.00034313293
-9.4057022e-09
0.00014244932
-1.6131499e-09
4.9806585e-05
1.0142401e-05
1.4323047e-09
1.0140969e-05
8.3629923e-09
4.9799655e-05
2.7812537e-08
0.00014242987
7.3352574e-08
0.00034308739
1.6886832e-07
0.00075228551
3.5026719e-07
0.0015378229
6.5458184e-07
0.0029431591
1.0720577e-06
0.0052415553
1.4464319e-06
0.0085775698
1.4548748e-06
0.012687826
9.1880869e-07
0.016675437
5.6218307e-13
0.019195807
-9.1880718e-07
0.019195807
-1.454873e-06
0.016675437
-1.4464314e-06
0.012687826
-1.0720616e-06
0.0085775698
-6.5459314e-07
0.0052415553
-3.5028532e-07
0.0029431591
-1.6888871e-07
0.0015378229
-7.3370255e-08
0.00075228551
-2.7824659e-08
0.00034308739
-8.3710521e-09
0.00014242987
-1.4358345e-09
4.9799655e-05
1.0140969e-05
1.2849892e-09
1.0139684e-05
7.505053e-09
4.9793434e-05
2.4968781e-08
0.0001424124
6.5890968e-08
0.00034304647
1.5183774e-07
0.00075219957
3.1548483e-07
0.0015376593
5.9149585e-07
0.0029428831
9.7478585e-07
0.005241172
1.3297033e-06
0.0085772149
1.3567857e-06
0.012687799
8.6525139e-07
0.016675928
1.0626129e-12
0.019196672
-8.6524885e-07
0.019196672
-1.3567829e-06
0.016675928
-1.3297023e-06
0.012687799
-9.74791e-07
0.0085772149
-5.9151107e-07
0.005241172
-3.1550898e-07
0.0029428831
-1.5186461e-07
0.0015376593
-6.5914064e-08
0.00075219957
-2.4984519e-08
0.00034304647
-7.515455e-09
0.0001424124
-1.2895286e-09
4.9793434e-05
1.0139684e-05
1.1614741e-09
1.0138522e-05
6.7851804e-09
4.9787811e-05
2.2580412e-08
0.00014239661
5.9615298e-08
0.00034300944
1.3748092e-07
0.0007521217
2.8604639e-07
0.0015375107
5.3771063e-07
0.0029426314
8.9070535e-07
0.005240819
1.2263967e-06
0.0085768792
1.2674885e-06
0.012687758
8.1592644e-07
0.01667638
1.6948371e-12
0.019197488
-8.1592253e-07
0.019197488
-1.2674842e-06
0.01667638
-1.2263948e-06
0.012687758
-8.9071192e-07
0.0085768792
-5.3773036e-07
0.005240819
-2.8607744e-07
0.0029426314
-1.3751518e-07
0.0015375107
-5.9644555e-08
0.0007521217
-2.2600256e-08
0.00034300944
-6.7982315e-09
0.00014239661
-1.167153e-09
4.9787811e-05
1.0138522e-05
1.056136e-09
1.0137466e-05
6.1709617e-09
4.9782696e-05
2.0541311e-08
0.00014238224
5.4252046e-08
0.00034297572
1.2519066e-07
0.00075205076
2.6076786e-07
0.0015373751
4.9125158e-07
0.0029424009
8.1722476e-07
0.005240493
1.1341828e-06
0.0085765622
1.1857897e-06
0.012687707
7.7021486e-07
0.016676795
2.4282313e-12
0.019198259
-7.7020931e-07
0.019198259
-1.1857836e-06
0.016676795
-1.13418e-06
0.012687707
-8.1723289e-07
0.0085765622
-4.9127636e-07
0.0052404931
-2.6080663e-07
0.0029424009
-1.2523317e-07
0.0015373751
-5.4288147e-08
0.00075205076
-2.0565707e-08
0.00034297572
-6.1869404e-09
0.00014238224
-1.0630724e-09
4.9782696e-05
1.0137466e-05
9.651385e-10
1.0136501e-05
5.6401541e-09
4.9778021e-05
1.8778242e-08
0.0001423691
4.9611181e-08
0.00034294489
1.1454155e-07
0.00075198583
2.388109e-07
0.0015372509
4.5070392e-07
0.002942189
7.5248251e-07
0.0052401913
1.0514991e-06
0.0085762632
1.1108308e-06
0.012687647
7.2768903e-07
0.016677178
3.2639343e-12
0.019198986
-7.2768158e-07
0.019198986
-1.1108225e-06
0.016677178
-1.0514952e-06
0.012687647
-7.5249236e-07
0.0085762632
-4.5073428e-07
0.0052401913
-2.3885816e-07
0.002942189
-1.1459309e-07
0.0015372509
-4.9654749e-08
0.00075198583
-1.8807597e-08
0.00034294489
-5.6593153e-09
0.0001423691
-9.7344051e-10
4.9778021e-05
1.0136501e-05
8.8580021e-10
1.0135615e-05
5.1771902e-09
4.9773729e-05
1.7239816e-08
0.00014235704
4.5558827e-08
0.00034291657
1.0523213e-07
0.00075192616
2.195764e-07
0.0015371365
4.1504218e-07
0.0029419936
6.9508883e-07
0.0052399112
9.7709342e-07
0.0085759812
1.0418666e-06
0.012687582
6.8800567e-07
0.016677532
4.2156285e-12
0.019199674
-6.879961e-07
0.019199674
-1.041856e-06
0.016677532
-9.7708831e-07
0.012687582
-6.9510056e-07
0.0085759812
-4.1507861e-07
0.0052399112
-2.1963287e-07
0.0029419936
-1.0529341e-07
0.0015371365
-4.561045e-08
0.00075192616
-1.7274515e-08
0.00034291657
-5.1997755e-09
0.00014235704
-8.9557046e-10
4.9773729e-05
1.0135615e-05
8.1602382e-10
1.0134799e-05
4.7699052e-09
4.9769775e-05
1.5885907e-08
0.00014234592
4.199046e-08
0.00034289047
9.7026687e-08
0.00075187112
2.0259347e-07
0.0015370309
3.8344876e-07
0.0029418127
6.4389525e-07
0.0052396508
9.0984189e-07
0.0085757152
9.7823507e-07
0.012687514
6.5086713e-07
0.01667786
5.2915356e-12
0.019200325
-6.5085522e-07
0.019200325
-9.7822189e-07
0.01667786
-9.098354e-07
0.012687514
-6.4390898e-07
0.0085757152
-3.8349172e-07
0.0052396508
-2.0265983e-07
0.0029418127
-9.7098419e-08
0.0015370309
-4.2050707e-08
0.00075187112
-1.5926324e-08
0.00034289047
-4.7961503e-09
0.00014234592
-8.2736284e-10
4.9769775e-05
1.0134799e-05
7.5415822e-10
1.0134045e-05
4.4087106e-09
4.9766121e-05
1.4684849e-08
0.00014233564
3.8823465e-08
0.00034286633
8.9738413e-08
0.00075182021
1.8748686e-07
0.0015369332
3.5526522e-07
0.0029416449
5.9795783e-07
0.0052394081
8.4878741e-07
0.0085754644
9.1936578e-07
0.012687443
6.1601158e-07
0.016678163
6.4773143e-12
0.019200941
-6.1599709e-07
0.019200941
-9.1934979e-07
0.016678163
-8.4877943e-07
0.012687443
-5.9797373e-07
0.0085754644
-3.553152e-07
0.0052394081
-1.8756378e-07
0.0029416449
-8.9821298e-08
0.0015369332
-3.8892904e-08
0.00075182021
-1.4731359e-08
0.00034286633
-4.4388518e-09
0.00014233564
-7.6716697e-10
4.9766121e-05
1.0134045e-05
6.9891462e-10
1.0133346e-05
4.0861115e-09
4.9762734e-05
1.3611852e-08
0.00014232612
3.5993013e-08
0.00034284395
8.32202e-08
0.00075177298
1.7395944e-07
0.0015368425
3.2996503e-07
0.0029414889
5.5650677e-07
0.0052391815
7.9311959e-07
0.0085752278
8.6476723e-07
0.012687372
5.83233e-07
0.016678444
7.7431363e-12
0.019201524
-5.8321573e-07
0.019201524
-8.6474822e-07
0.016678444
-7.9311005e-07
0.012687372
-5.5652502e-07
0.0085752278
-3.3002252e-07
0.0052391816
-1.7404762e-07
0.0029414889
-8.3314945e-08
0.0015368425
-3.607222e-08
0.00075177298
-1.3664836e-08
0.00034284395
-4.1203911e-09
0.00014232612
-7.1369677e-10
4.9762734e-05
1.0133346e-05
6.4927725e-10
1.0132697e-05
3.7961953e-09
4.9759587e-05
1.2647339e-08
0.00014231727
3.3447837e-08
0.00034282315
7.7355459e-08
0.00075172907
1.6177484e-07
0.001536758
3.0712662e-07
0.0029413436
5.1891887e-07
0.0052389697
7.421716e-07
0.0085750045
8.1401288e-07
0.0126873
5.523443e-07
0.016678706
9.0643142e-12
0.019202077
-5.5232409e-07
0.019202077
-8.1399069e-07
0.016678706
-7.4216045e-07
0.0126873
-5.1893967e-07
0.0085750046
-3.0719212e-07
0.0052389698
-1.61875e-07
0.0029413436
-7.7462799e-08
0.001536758
-3.3537414e-08
0.00075172907
-1.2707196e-08
0.00034282315
-3.834867e-09
0.00014231727
-6.6594162e-10
4.9759587e-05
1.0132697e-05
6.0443246e-10
1.0132092e-05
3.534224e-09
4.9756657e-05
1.1775612e-08
0.00014230903
3.1146781e-08
0.00034280378
7.2050416e-08
0.00075168817
1.5074234e-07
0.0015366793
2.8640759e-07
0.0029412079
4.8468097e-07
0.0052387715
6.9537942e-07
0.0085747938
7.6674276e-07
0.012687229
5.2320671e-07
0.01667895
1.0415787e-11
0.0192026
-5.2318345e-07
0.0192026
-7.6671728e-07
0.01667895
-6.9536664e-07
0.012687229
-4.8470455e-07
0.0085747939
-2.8648163e-07
0.0052387715
-1.5085523e-07
0.0029412079
-7.2171129e-08
0.0015366794
-3.1247367e-08
0.00075168817
-1.1842766e-08
0.00034280378
-3.5775598e-09
0.00014230903
-6.2309588e-10
4.9756657e-05
1.0132092e-05
5.6372186e-10
1.0131528e-05
3.2963625e-09
4.9753925e-05
1.0983959e-08
0.00014230134
2.9056496e-08
0.0003427857
6.7229003e-08
0.00075165
1.4070687e-07
0.0015366059
2.6752849e-07
0.0029410811
4.5337161e-07
0.0052385856
6.5227416e-07
0.0085745949
7.2263497e-07
0.012687158
4.9567666e-07
0.016679177
1.1782442e-11
0.019203096
-4.9565028e-07
0.019203096
-7.2260611e-07
0.016679177
-6.5225977e-07
0.012687158
-4.5339823e-07
0.008574595
-2.6761165e-07
0.0052385857
-1.4083329e-07
0.0029410811
-6.7363932e-08
0.0015366059
-2.9168787e-08
0.00075165
-1.1058874e-08
0.0003427857
-3.34466e-09
0.00014230134
-5.8451234e-10
4.9753924e-05
1.0131528e-05
5.266062e-10
1.0131002e-05
3.0794694e-09
4.9751372e-05
1.0261963e-08
0.00014229416
2.7149633e-08
0.00034276882
6.2828743e-08
0.00075161432
1.3154076e-07
0.0015365372
2.5025801e-07
0.0029409624
4.2463722e-07
0.0052384112
6.1245165e-07
0.0085744071
6.8142168e-07
0.012687089
4.6966016e-07
0.016679388
1.3159857e-11
0.019203565
-4.6963065e-07
0.019203565
-6.813894e-07
0.016679388
-6.1243569e-07
0.012687089
-4.2466715e-07
0.0085744071
-2.503509e-07
0.0052384113
-1.3168161e-07
0.0029409624
-6.2978821e-08
0.0015365372
-2.7274399e-08
0.00075161432
-1.0345152e-08
0.00034276882
-3.133059e-09
0.00014229416
-5.49666e-10
4.9751371e-05
1.0131002e-05
4.9264075e-10
1.0130509e-05
2.8809534e-09
4.9748984e-05
9.6010301e-09
0.00014228744
2.5403622e-08
0.00034275302
5.8798068e-08
0.00075158092
1.2313852e-07
0.0015364728
2.3440469e-07
0.0029408511
3.9818485e-07
0.0052382475
5.7557542e-07
0.0085742297
6.4285073e-07
0.012687022
4.4503586e-07
0.016679586
1.4542887e-11
0.01920401
-4.4500322e-07
0.01920401
-6.4281499e-07
0.016679586
-5.7555792e-07
0.012687022
-3.9821839e-07
0.0085742298
-2.3450801e-07
0.0052382475
-1.2329479e-07
0.0029408511
-5.8964334e-08
0.0015364728
-2.5541725e-08
0.00075158093
-9.6930668e-09
0.00034275302
-2.9402044e-09
0.00014228744
-5.1812885e-10
4.9748983e-05
1.0130509e-05
4.6145374e-10
1.0130048e-05
2.698649e-09
4.9746746e-05
8.9939753e-09
0.00014228114
2.3799581e-08
0.00034273821
5.509376e-08
0.00075154963
1.1541153e-07
0.0015364125
2.1980679e-07
0.0029407467
3.7376315e-07
0.0052380935
5.4134797e-07
0.0085740621
6.067219e-07
0.012686957
4.2174423e-07
0.016679771
1.5922619e-11
0.019204432
-4.2170844e-07
0.019204432
-6.0668264e-07
0.016679771
-5.4132894e-07
0.012686957
-3.7380061e-07
0.0085740622
-2.1992128e-07
0.0052380935
-1.1558431e-07
0.0029407467
-5.527737e-08
0.0015364125
-2.3951981e-08
0.00075154963
-9.0954995e-09
0.00034273821
-2.7639735e-09
0.00014228114
-4.8954753e-10
4.9746746e-05
1.0130048e-05
4.327326e-10
1.0129615e-05
2.530734e-09
4.9744649e-05
8.4347536e-09
0.00014227524
2.232163e-08
0.00034272432
5.1679505e-08
0.00075152027
1.0828535e-07
0.0015363559
2.0632854e-07
0.0029406487
3.5116206e-07
0.0052379487
5.0952117e-07
0.0085739038
5.7282744e-07
0.012686893
3.9967074e-07
0.016679944
1.7302329e-11
0.019204832
-3.9963171e-07
0.019204832
-5.7278453e-07
0.016679944
-5.0950059e-07
0.012686893
-3.5120376e-07
0.0085739038
-2.0645502e-07
0.0052379487
-1.0847585e-07
0.0029406487
-5.1881744e-08
0.0015363559
-2.2489392e-08
0.00075152028
-8.5464754e-09
0.00034272432
-2.6025893e-09
0.00014227524
-4.6362876e-10
4.9744648e-05
1.0129615e-05
4.0621195e-10
1.0129209e-05
2.3756631e-09
4.9742679e-05
7.9182355e-09
0.0001422697
2.0956268e-08
0.00034271129
4.8524338e-08
0.00075149271
1.0169627e-07
0.0015363027
1.9385291e-07
0.0029405565
3.3019702e-07
0.0052378123
4.7986999e-07
0.0085737541
5.4102073e-07
0.012686832
3.7878758e-07
0.016680107
1.8713257e-11
0.01920521
-3.7874523e-07
0.01920521
-5.4097402e-07
0.016680107
-4.7984778e-07
0.012686832
-3.3024326e-07
0.0085737541
-1.9399227e-07
0.0052378124
-1.0190582e-07
0.0029405565
-4.8746622e-08
0.0015363027
-2.1140568e-08
0.00075149271
-8.040936e-09
0.00034271129
-2.4545516e-09
0.00014226969
-4.4012654e-10
4.9742679e-05
1.0129209e-05
3.8166415e-10
1.0128828e-05
2.2321071e-09
4.9740829e-05
7.4400099e-09
0.00014226449
1.9691916e-08
0.00034269903
4.5601787e-08
0.0007514668
9.558997e-08
0.0015362527
1.8228046e-07
0.0029404698
3.1071283e-07
0.0052376839
4.5220601e-07
0.0085736126
5.1111857e-07
0.012686773
3.5897356e-07
0.016680259
2.0197308e-11
0.019205569
-3.5892769e-07
0.019205569
-5.1106781e-07
0.016680259
-4.5218205e-07
0.012686773
-3.1076394e-07
0.0085736126
-1.8243368e-07
0.0052376839
-9.5820041e-08
0.0029404698
-4.5845664e-08
0.0015362527
-1.9894033e-08
0.0007514668
-7.5745406e-09
0.00034269903
-2.3185756e-09
0.00014226449
-4.1883198e-10
4.9740829e-05
1.0128828e-05
3.5889511e-10
1.0128469e-05
2.0989374e-09
4.9739089e-05
6.9963278e-09
0.00014225959
1.8518678e-08
0.00034268751
4.2889074e-08
0.00075144243
8.9919383e-08
0.0015362057
1.7152422e-07
0.0029403882
2.9257052e-07
0.0052375628
4.2635639e-07
0.0085734788
4.830232e-07
0.012686717
3.4023659e-07
0.016680402
2.1787117e-11
0.01920591
-3.4018698e-07
0.01920591
-4.8296808e-07
0.016680402
-4.2633053e-07
0.012686717
-2.9262686e-07
0.0085734789
-1.7169233e-07
0.0052375629
-9.0171556e-08
0.0029403882
-4.3156223e-08
0.0015362057
-1.8740003e-08
0.00075144243
-7.1436101e-09
0.00034268751
-2.1935765e-09
0.00014225959
-3.9956959e-10
4.9739089e-05
1.0128469e-05
3.377328e-10
1.0128131e-05
1.9751455e-09
4.9737452e-05
6.5838421e-09
0.00014225498
1.7427792e-08
0.00034267667
4.0366237e-08
0.00075141949
8.464362e-08
0.0015361614
1.6150907e-07
0.0029403113
2.7565172e-07
0.0052374487
4.0217204e-07
0.0085733523
4.5655737e-07
0.012686662
3.2243411e-07
0.016680536
2.3507328e-11
0.019206232
-3.2238046e-07
0.019206232
-4.5649753e-07
0.016680536
-4.0214408e-07
0.012686662
-2.7571366e-07
0.0085733523
-1.6169324e-07
0.0052374488
-8.4919609e-08
0.0029403114
-4.0658464e-08
0.0015361614
-1.766981e-08
0.00075141949
-6.7448597e-09
0.00034267667
-2.0785842e-09
0.00014225498
-3.821834e-10
4.9737452e-05
1.0128131e-05
3.1803445e-10
1.0127813e-05
1.8599061e-09
4.9735911e-05
6.1998082e-09
0.00014225064
1.6411964e-08
0.00034266646
3.8016319e-08
0.00075139789
7.9727329e-08
0.0015361197
1.5216936e-07
0.0029402389
2.598509e-07
0.005237341
3.7952229e-07
0.0085732326
4.3167638e-07
0.01268661
3.056207e-07
0.016680662
2.5369099e-11
0.019206538
-3.0556267e-07
0.019206538
-4.3161144e-07
0.016680662
-3.7949207e-07
0.01268661
-2.5991887e-07
0.0085732327
-1.5237082e-07
0.0052373411
-8.0028976e-08
0.0029402389
-3.8335549e-08
0.0015361197
-1.6676252e-08
0.00075139789
-6.3756001e-09
0.00034266646
-1.9728063e-09
0.00014225064
-3.6654405e-10
4.973591e-05
1.0127813e-05
2.9966303e-10
1.0127514e-05
1.7524076e-09
4.9734458e-05
5.8415335e-09
0.00014224655
1.5464207e-08
0.00034265684
3.5823601e-08
0.00075137753
7.5138575e-08
0.0015360804
1.4344616e-07
0.0029401706
2.4507321e-07
0.0052372394
3.5827943e-07
0.0085731194
4.0818657e-07
0.01268656
2.8961297e-07
0.01668078
2.7368127e-11
0.019206827
-2.8955025e-07
0.019206827
-4.0811615e-07
0.01668078
-3.582468e-07
0.01268656
-2.4514772e-07
0.0085731195
-1.4366628e-07
0.0052372394
-7.5467848e-08
0.0029401706
-3.6171872e-08
0.0015360804
-1.5752427e-08
0.00075137753
-6.0331927e-09
0.00034265684
-1.875463e-09
0.00014224655
-3.5252774e-10
4.9734458e-05
1.0127514e-05
2.8251887e-10
1.0127232e-05
1.6520867e-09
4.9733089e-05
5.5071385e-09
0.0001422427
1.4579407e-08
0.00034264777
3.3775822e-08
0.00075135833
7.0851197e-08
0.0015360433
1.3529072e-07
0.0029401061
2.312417e-07
0.0052371434
3.3835537e-07
0.0085730123
3.8611245e-07
0.012686512
2.7453229e-07
0.016680892
2.9478563e-11
0.019207102
-2.7446459e-07
0.019207102
-3.8603623e-07
0.016680892
-3.3832026e-07
0.012686512
-2.3132335e-07
0.0085730123
-1.3553096e-07
0.0052371435
-7.1210165e-08
0.0029401062
-3.4155249e-08
0.0015360434
-1.4893269e-08
0.00075135834
-5.7157847e-09
0.00034264777
-1.7860055e-09
0.0001422427
-3.4004027e-10
4.9733088e-05
1.0127231e-05
2.6648103e-10
1.0126965e-05
1.5582078e-09
4.9731798e-05
5.1941879e-09
0.00014223906
1.3751395e-08
0.00034263921
3.1859572e-08
0.00075134023
6.6838648e-08
0.0015360083
1.2765366e-07
0.0029400453
2.1827244e-07
0.0052370528
3.1962212e-07
0.0085729109
3.6521159e-07
0.012686467
2.6012623e-07
0.016680997
3.1665237e-11
0.019207362
-2.6005336e-07
0.019207362
-3.6512934e-07
0.016680997
-3.1958453e-07
0.012686467
-2.183619e-07
0.008572911
-1.2791558e-07
0.0052370529
-6.7229448e-08
0.0029400454
-3.2272307e-08
0.0015360084
-1.4092617e-08
0.00075134023
-5.4209324e-09
0.00034263921
-1.7036871e-09
0.00014223906
-3.2895418e-10
4.9731797e-05
1.0126965e-05
2.5149981e-10
1.0126714e-05
1.4705246e-09
4.9730579e-05
4.9018424e-09
0.00014223563
1.2977556e-08
0.00034263114
3.0067586e-08
0.00075132314
6.3083906e-08
0.0015359753
1.2050323e-07
0.0029399879
2.0612102e-07
0.0052369672
3.0204997e-07
0.008572815
3.4561272e-07
0.012686423
2.4661669e-07
0.016681096
3.3863498e-11
0.019207609
-2.4653858e-07
0.019207609
-3.4552429e-07
0.016681096
-3.0201002e-07
0.012686423
-2.0621909e-07
0.0085728151
-1.2078845e-07
0.0052369673
-6.3508715e-08
0.002939988
-3.05158e-08
0.0015359754
-1.3347866e-08
0.00075132314
-5.1478039e-09
0.00034263113
-1.6282622e-09
0.00014223563
-3.1921925e-10
4.9730578e-05
1.0126714e-05
2.3744182e-10
1.0126477e-05
1.3881874e-09
4.9729429e-05
4.6273046e-09
0.0001422324
1.2251132e-08
0.00034262351
2.8386239e-08
0.000751307
5.9561699e-08
0.0015359442
1.1379186e-07
0.0029399337
1.9469711e-07
0.0052368863
2.8547597e-07
0.0085727242
3.2697316e-07
0.012686382
2.336398e-07
0.016681189
3.6009483e-11
0.019207842
-2.3355648e-07
0.019207842
-3.2687852e-07
0.016681189
-2.8543387e-07
0.012686382
-1.9480462e-07
0.0085727243
-1.1410202e-07
0.0052368864
-6.0022635e-08
0.0029399337
-2.8871985e-08
0.0015359442
-1.2652122e-08
0.00075130701
-4.8934897e-09
0.00034262351
-1.5588023e-09
0.00014223239
-3.1066612e-10
4.9729428e-05
1.0126477e-05
2.2434851e-10
1.0126253e-05
1.3115437e-09
4.9728342e-05
4.3716667e-09
0.00014222934
1.1573967e-08
0.00034261631
2.6816532e-08
0.00075129176
5.6268905e-08
0.0015359147
1.0751343e-07
0.0029398824
1.8400977e-07
0.0052368098
2.6997407e-07
0.0085726383
3.0959393e-07
0.012686342
2.2157386e-07
0.016681277
3.8023368e-11
0.019208064
-2.2148552e-07
0.019208064
-3.0949321e-07
0.016681277
-2.6993013e-07
0.012686342
-1.8412764e-07
0.0085726383
-1.0785012e-07
0.0052368099
-5.6767959e-08
0.0029398825
-2.7341669e-08
0.0015359147
-1.2007026e-08
0.00075129177
-4.6589248e-09
0.00034261631
-1.4955401e-09
0.00014222933
-3.0328253e-10
4.9728341e-05
1.0126253e-05
2.1200119e-10
1.0126041e-05
1.2391461e-09
4.9727316e-05
4.1302133e-09
0.00014222645
1.0935274e-08
0.00034260951
2.5338785e-08
0.00075127736
5.3172908e-08
0.0015358869
1.0160714e-07
0.002939834
1.7392901e-07
0.0052367374
2.5528208e-07
0.0085725569
2.9294886e-07
0.012686304
2.0988087e-07
0.01668136
3.9809063e-11
0.019208274
-2.0978787e-07
0.019208274
-2.9284231e-07
0.01668136
-2.5523676e-07
0.012686304
-1.7405819e-07
0.0085725569
-1.0197188e-07
0.0052367375
-5.3711784e-08
0.0029398341
-2.5904783e-08
0.0015358869
-1.1401422e-08
0.00075127737
-4.4391276e-09
0.00034260951
-1.4368439e-09
0.00014222644
-2.9676692e-10
4.9727315e-05
1.0126041e-05
2.0068215e-10
1.0125841e-05
1.1728996e-09
4.9726344e-05
3.9090546e-09
0.00014222371
1.0348267e-08
0.00034260307
2.3974383e-08
0.00075126374
5.0302947e-08
0.0015358605
9.6123249e-08
0.0029397882
1.6457806e-07
0.005236669
2.4168432e-07
0.0085724798
2.7764065e-07
0.012686268
1.9919006e-07
0.016681439
4.1279313e-11
0.019208473
-1.9909299e-07
0.019208473
-2.775288e-07
0.016681439
-2.4163829e-07
0.012686268
-1.647196e-07
0.0085724798
-9.6517332e-08
0.0052366691
-5.0882778e-08
0.0029397882
-2.458187e-08
0.0015358606
-1.0847624e-08
0.00075126375
-4.239467e-09
0.00034260307
-1.3840938e-09
0.00014222371
-2.9115843e-10
4.9726343e-05
1.0125841e-05
1.897897e-10
1.0125652e-05
1.1088835e-09
4.9725426e-05
3.6956064e-09
0.00014222112
9.7848754e-09
0.00034259698
2.2674645e-08
0.00075125085
4.7585695e-08
0.0015358356
9.0938421e-08
0.0029397448
1.5570389e-07
0.0052366042
2.2869312e-07
0.0085724068
2.6283643e-07
0.012686234
1.8870767e-07
0.016681513
4.2233354e-11
0.019208662
-1.8860742e-07
0.019208662
-2.6272004e-07
0.016681513
-2.2864734e-07
0.012686234
-1.5585901e-07
0.0085724068
-9.1362981e-08
0.0052366043
-4.8206942e-08
0.0029397449
-2.3323168e-08
0.0015358357
-1.0316381e-08
0.00075125086
-4.0464105e-09
0.00034259698
-1.3326562e-09
0.00014222112
-2.855144e-10
4.9725424e-05
1.0125651e-05
1.8045945e-10
1.0125472e-05
1.05435e-09
4.9724553e-05
3.5129276e-09
0.00014221867
9.2962337e-09
0.0003425912
2.1527503e-08
0.00075123862
4.5150514e-08
0.001535812
8.6258771e-08
0.0029397037
1.4770465e-07
0.0052365428
2.1704091e-07
0.0085723374
2.4968788e-07
0.012686202
1.7948432e-07
0.016681583
4.2513478e-11
0.019208841
-1.7938215e-07
0.019208841
-2.4956816e-07
0.016681583
-2.1699653e-07
0.012686202
-1.4787421e-07
0.0085723375
-8.6713657e-08
0.0052365429
-4.5811199e-08
0.0029397038
-2.2213372e-08
0.0015358121
-9.8556055e-09
0.00075123863
-3.8805525e-09
0.0003425912
-1.2880423e-09
0.00014221866
-2.801723e-10
4.9724551e-05
1.0125471e-05
1.6939768e-10
1.0125303e-05
9.8954797e-10
4.9723734e-05
3.2997502e-09
0.00014221636
8.7471418e-09
0.00034258576
2.0301076e-08
0.00075122707
4.2671096e-08
0.0015357896
8.1647898e-08
0.0029396647
1.3992322e-07
0.0052364845
2.0570539e-07
0.0085722716
2.3673934e-07
0.012686171
1.7030387e-07
0.01668165
4.1784443e-11
0.019209011
-1.7020171e-07
0.019209011
-2.3661773e-07
0.01668165
-2.0566335e-07
0.012686171
-1.4010717e-07
0.0085722717
-8.2129994e-08
0.0052364846
-4.3363292e-08
0.0029396648
-2.1012505e-08
0.0015357897
-9.321902e-09
0.00075122708
-3.6742146e-09
0.00034258576
-1.2260462e-09
0.00014221636
-2.6979382e-10
4.9723732e-05
1.0125302e-05
1.6463611e-10
1.0125139e-05
9.6173775e-10
4.9722938e-05