/*--------------------------------*- C++ -*----------------------------------*\
| =========                 |                                                 |
| \\      /  F ield         | OpenFOAM: The Open Source CFD Toolbox           |
|  \\    /   O peration     | Version:  2406                                  |
|   \\  /    A nd           | Website:  www.openfoam.com                      |
|    \\/     M anipulation  |                                                 |
\*---------------------------------------------------------------------------*/
FoamFile
{
    version     2.0;
    format      ascii;
    arch        "LSB;label=32;scalar=64";
    class       volVectorField;
    location    "46";
    object      U;
}
// * * * * * * * * * * * * * * * * * * * * * * * * * * * * * * * * * * * * * //

dimensions      [0 1 -1 0 0 0 0];

internalField   nonuniform List<vector> 
1176
(
(0.019493789 7.0786303e-07 0)
(0.066677318 8.1696561e-06 0)
(0.13357994 3.9503163e-05 0)
(0.22724701 0.00010873576 0)
(0.35591522 0.00021176027 0)
(0.52772023 0.00030396288 0)
(0.74780387 0.00031818024 0)
(1.0136216 0.00024904594 0)
(1.3093323 0.00016666999 0)
(1.6017081 0.00011264675 0)
(1.8421723 7.0213893e-05 0)
(1.9793239 2.3940373e-05 0)
(1.9793239 -2.3941213e-05 0)
(1.8421723 -7.0214207e-05 0)
(1.6017081 -0.0001126453 0)
(1.3093323 -0.00016666382 0)
(1.0136216 -0.00024903006 0)
(0.74780387 -0.00031814994 0)
(0.52772024 -0.00030391794 0)
(0.35591523 -0.00021170723 0)
(0.22724701 -0.00010868509 0)
(0.13357994 -3.9465225e-05 0)
(0.066677321 -8.1481629e-06 0)
(0.01949379 -7.0133723e-07 0)
(0.020187017 -3.7419183e-06 0)
(0.068813532 -2.4638639e-05 0)
(0.13732107 -9.6548552e-05 0)
(0.23247391 -0.0002483946 0)
(0.36204617 -0.00047268779 0)
(0.53373556 -0.00067421178 0)
(0.75267407 -0.00069486933 0)
(1.0170176 -0.00049687354 0)
(1.3116385 -0.00023345906 0)
(1.6034438 -4.9824403e-05 0)
(1.8436588 1.9764472e-05 0)
(1.9807026 1.3426923e-05 0)
(1.9807026 -1.3429477e-05 0)
(1.8436588 -1.9767644e-05 0)
(1.6034438 4.9820036e-05 0)
(1.3116385 0.00023345309 0)
(1.0170176 0.00049686495 0)
(0.75267404 0.00069485584 0)
(0.53373554 0.00067419301 0)
(0.36204615 0.00047266693 0)
(0.2324739 0.0002483763 0)
(0.13732107 9.6536339e-05 0)
(0.068813533 2.4632633e-05 0)
(0.020187017 3.7402488e-06 0)
(0.020018442 2.091837e-06 0)
(0.068327405 1.2720775e-05 0)
(0.13655404 4.6877263e-05 0)
(0.23159544 0.0001138974 0)
(0.36138709 0.00019769273 0)
(0.53366969 0.00023903246 0)
(0.75344344 0.00020559832 0)
(1.0184881 0.00011361139 0)
(1.3134639 7.431383e-05 0)
(1.6053464 7.9533044e-05 0)
(1.8455118 7.0516568e-05 0)
(1.9825245 2.7825607e-05 0)
(1.9825245 -2.7825558e-05 0)
(1.8455118 -7.0516118e-05 0)
(1.6053464 -7.9531753e-05 0)
(1.3134639 -7.4311039e-05 0)
(1.0184882 -0.00011360695 0)
(0.75344346 -0.00020559406 0)
(0.53366971 -0.00023902724 0)
(0.3613871 -0.00019768916 0)
(0.23159545 -0.0001138957 0)
(0.13655405 -4.6876876e-05 0)
(0.068327407 -1.2720955e-05 0)
(0.020018442 -2.0919492e-06 0)
(0.019966547 7.0076394e-07 0)
(0.068159231 4.6870459e-06 0)
(0.13624021 1.9355444e-05 0)
(0.2311194 5.6456189e-05 0)
(0.36078093 0.00013444572 0)
(0.53306293 0.00025829332 0)
(0.75295637 0.00035344765 0)
(1.0181104 0.00036912033 0)
(1.313184 0.00030758905 0)
(1.6051633 0.00022777259 0)
(1.8453995 0.00014555937 0)
(1.9824491 4.999683e-05 0)
(1.9824491 -4.9998038e-05 0)
(1.8453995 -0.00014556052 0)
(1.6051633 -0.00022777335 0)
(1.313184 -0.00030758989 0)
(1.0181104 -0.00036911965 0)
(0.75295636 -0.00035344437 0)
(0.53306292 -0.00025828981 0)
(0.36078092 -0.00013444144 0)
(0.2311194 -5.6452224e-05 0)
(0.1362402 -1.935252e-05 0)
(0.068159231 -4.6853951e-06 0)
(0.019966547 -7.0026271e-07 0)
(0.019942203 2.907713e-07 0)
(0.068078703 1.9872128e-06 0)
(0.13608628 8.23614e-06 0)
(0.23087699 2.3699375e-05 0)
(0.36044744 5.6881732e-05 0)
(0.53266448 0.00012306906 0)
(0.75256878 0.00022681851 0)
(1.017808 0.00032272266 0)
(1.3129044 0.00034572515 0)
(1.604912 0.00030730024 0)
(1.8452029 0.00021095331 0)
(1.9822898 7.461427e-05 0)
(1.9822898 -7.4615296e-05 0)
(1.8452029 -0.00021095415 0)
(1.604912 -0.00030730056 0)
(1.3129044 -0.00034572424 0)
(1.017808 -0.00032272179 0)
(0.75256878 -0.00022681752 0)
(0.53266448 -0.00012306844 0)
(0.36044744 -5.6881474e-05 0)
(0.23087699 -2.369941e-05 0)
(0.13608628 -8.2362333e-06 0)
(0.068078703 -1.9872612e-06 0)
(0.019942204 -2.9078304e-07 0)
(0.019933132 1.7181909e-07 0)
(0.068047755 1.1940904e-06 0)
(0.13602488 5.0652322e-06 0)
(0.23077535 1.4968928e-05 0)
(0.36029898 3.6219678e-05 0)
(0.5324792 7.6944485e-05 0)
(0.75239427 0.00014713811 0)
(1.0177222 0.00023749083 0)
(1.3129292 0.00028525662 0)
(1.6049746 0.00027441553 0)
(1.8452865 0.00019644664 0)
(1.9823834 7.1177065e-05 0)
(1.9823834 -7.1177315e-05 0)
(1.8452865 -0.00019644668 0)
(1.6049746 -0.00027441511 0)
(1.3129292 -0.00028525538 0)
(1.0177222 -0.00023748897 0)
(0.75239427 -0.0001471362 0)
(0.5324792 -7.6942898e-05 0)
(0.36029898 -3.6218564e-05 0)
(0.23077535 -1.4968265e-05 0)
(0.13602488 -5.0648828e-06 0)
(0.068047755 -1.1939361e-06 0)
(0.019933132 -1.7177699e-07 0)
(0.0199234 1.5587873e-07 0)
(0.068015507 1.0700865e-06 0)
(0.13596286 4.4934901e-06 0)
(0.23067607 1.3195517e-05 0)
(0.36015773 3.1857239e-05 0)
(0.53230178 6.6958444e-05 0)
(0.75221429 0.00012411923 0)
(1.0176105 0.00019917103 0)
(1.3129358 0.0002549091 0)
(1.6050904 0.0002459524 0)
(1.8454579 0.00018127956 0)
(1.9825798 6.6548859e-05 0)
(1.9825798 -6.6548532e-05 0)
(1.8454579 -0.00018127911 0)
(1.6050904 -0.00024595169 0)
(1.3129358 -0.00025490802 0)
(1.0176105 -0.00019916979 0)
(0.75221429 -0.00012411799 0)
(0.53230178 -6.6957403e-05 0)
(0.36015773 -3.1856463e-05 0)
(0.23067607 -1.319499e-05 0)
(0.13596286 -4.4931702e-06 0)
(0.068015506 -1.0699266e-06 0)
(0.0199234 -1.5583248e-07 0)
(0.019915697 1.2758903e-07 0)
(0.067989792 8.7802612e-07 0)
(0.13591293 3.6960211e-06 0)
(0.23059503 1.0901644e-05 0)
(0.36003987 2.6613426e-05 0)
(0.53214753 5.7237263e-05 0)
(0.75204133 0.00010911073 0)
(1.0174723 0.00017936667 0)
(1.3128926 0.00023802532 0)
(1.6051414 0.00023746817 0)
(1.8455877 0.00017750737 0)
(1.9827514 6.5539816e-05 0)
(1.9827514 -6.5539281e-05 0)
(1.8455877 -0.00017750674 0)
(1.6051414 -0.00023746735 0)
(1.3128926 -0.00023802443 0)
(1.0174723 -0.00017936586 0)
(0.75204133 -0.00010911009 0)
(0.53214753 -5.7236844e-05 0)
(0.36003987 -2.6613201e-05 0)
(0.23059503 -1.0901543e-05 0)
(0.13591293 -3.695987e-06 0)
(0.067989792 -8.7801892e-07 0)
(0.019915697 -1.2758824e-07 0)
(0.019909217 1.0466115e-07 0)
(0.067968141 7.2314601e-07 0)
(0.13587084 3.052123e-06 0)
(0.23052654 9.0118633e-06 0)
(0.35993984 2.1999932e-05 0)
(0.53201542 4.7473524e-05 0)
(0.75188901 9.2014208e-05 0)
(1.0173341 0.00015618213 0)
(1.3128278 0.00021699714 0)
(1.6051595 0.00022709676 0)
(1.8456699 0.0001723268 0)
(1.982868 6.4148065e-05 0)
(1.982868 -6.4147541e-05 0)
(1.8456699 -0.00017232618 0)
(1.6051595 -0.00022709602 0)
(1.3128278 -0.00021699645 0)
(1.0173341 -0.0001561816 0)
(0.75188901 -9.2013889e-05 0)
(0.53201542 -4.7473422e-05 0)
(0.35993984 -2.1999972e-05 0)
(0.23052654 -9.0119539e-06 0)
(0.13587084 -3.0522155e-06 0)
(0.067968141 -7.2320877e-07 0)
(0.019909217 -1.0468178e-07 0)
(0.019903971 8.612952e-08 0)
(0.067950552 5.9697104e-07 0)
(0.13583649 2.5273938e-06 0)
(0.2304703 7.4916389e-06 0)
(0.35985692 1.8376334e-05 0)
(0.53190436 3.9835737e-05 0)
(0.75175836 7.771223e-05 0)
(1.0172122 0.00013432448 0)
(1.3127613 0.00019323392 0)
(1.6051772 0.00021058379 0)
(1.8457533 0.00016273005 0)
(1.9829863 6.1084495e-05 0)
(1.9829863 -6.1084147e-05 0)
(1.8457533 -0.00016272961 0)
(1.6051772 -0.00021058328 0)
(1.3127613 -0.00019323352 0)
(1.0172122 -0.00013432424 0)
(0.75175836 -7.771223e-05 0)
(0.53190436 -3.9835952e-05 0)
(0.35985692 -1.8376642e-05 0)
(0.2304703 -7.4919214e-06 0)
(0.13583649 -2.5276105e-06 0)
(0.067950553 -5.9710056e-07 0)
(0.019903971 -8.6170289e-08 0)
(0.019899543 7.3358657e-08 0)
(0.067935688 5.0896755e-07 0)
(0.13580742 2.1568979e-06 0)
(0.23042259 6.4027771e-06 0)
(0.35978626 1.5747605e-05 0)
(0.5318089 3.4277832e-05 0)
(0.75164409 6.720461e-05 0)
(1.0171021 0.00011722996 0)
(1.3126976 0.00017262472 0)
(1.6051928 0.00019308918 0)
(1.8458371 0.00015219882 0)
(1.9831061 5.7544906e-05 0)
(1.9831061 -5.7544738e-05 0)
(1.8458371 -0.00015219856 0)
(1.6051928 -0.0001930889 0)
(1.3126976 -0.00017262455 0)
(1.0171021 -0.00011722999 0)
(0.75164409 -6.7204936e-05 0)
(0.5318089 -3.42784e-05 0)
(0.35978626 -1.5748227e-05 0)
(0.23042259 -6.4032933e-06 0)
(0.13580742 -2.1572701e-06 0)
(0.067935688 -5.0918196e-07 0)
(0.019899543 -7.3425166e-08 0)
(0.019895721 6.3728084e-08 0)
(0.06792285 4.4252348e-07 0)
(0.13578228 1.8767409e-06 0)
(0.23038125 5.5765298e-06 0)
(0.35972483 1.3738677e-05 0)
(0.53172535 2.9997984e-05 0)
(0.75154264 5.9111514e-05 0)
(1.0170011 0.00010388813 0)
(1.3126344 0.00015540277 0)
(1.6052015 0.00017849528 0)
(1.8459125 0.00014271558 0)
(1.9832185 5.4330637e-05 0)
(1.9832185 -5.433057e-05 0)
(1.8459125 -0.00014271543 0)
(1.6052015 -0.00017849514 0)
(1.3126345 -0.00015540276 0)
(1.0170011 -0.00010388839 0)
(0.75154264 -5.9112169e-05 0)
(0.53172535 -2.9998934e-05 0)
(0.35972483 -1.3739652e-05 0)
(0.23038125 -5.5773107e-06 0)
(0.13578228 -1.8772906e-06 0)
(0.06792285 -4.4283557e-07 0)
(0.019895721 -6.3824335e-08 0)
(0.019892371 5.6090104e-08 0)
(0.067911586 3.8977717e-07 0)
(0.13576021 1.6541224e-06 0)
(0.2303449 4.9187591e-06 0)
(0.35967069 1.2131995e-05 0)
(0.53165136 2.6542398e-05 0)
(0.7514519 5.2498702e-05 0)
(1.0169086 9.2875588e-05 0)
(1.3125728 0.00014061478 0)
(1.605205 0.0001652961 0)
(1.8459798 0.00013398924 0)
(1.9833221 5.1387437e-05 0)
(1.9833221 -5.1387384e-05 0)
(1.8459798 -0.00013398912 0)
(1.605205 -0.00016529601 0)
(1.3125728 -0.00014061485 0)
(1.0169086 -9.2876057e-05 0)
(0.7514519 -5.249972e-05 0)
(0.53165136 -2.6543798e-05 0)
(0.35967069 -1.2133392e-05 0)
(0.2303449 -4.9198587e-06 0)
(0.13576021 -1.6548861e-06 0)
(0.067911586 -3.9020713e-07 0)
(0.019892371 -5.6222249e-08 0)
(0.019889403 4.984831e-08 0)
(0.067901607 3.4661462e-07 0)
(0.13574064 1.471758e-06 0)
(0.23031264 4.379379e-06 0)
(0.35962253 1.0812288e-05 0)
(0.53158531 2.3691363e-05 0)
(0.75137029 4.698406e-05 0)
(1.016824 8.3546187e-05 0)
(1.3125139 0.00012773733 0)
(1.6052051 0.00015293336 0)
(1.8460415 0.00012582031 0)
(1.9834196 4.8616494e-05 0)
(1.9834196 -4.8616385e-05 0)
(1.8460415 -0.00012582014 0)
(1.6052051 -0.00015293323 0)
(1.3125139 -0.00012773744 0)
(1.016824 -8.3546872e-05 0)
(0.75137029 -4.6985499e-05 0)
(0.53158531 -2.36933e-05 0)
(0.35962253 -1.0814192e-05 0)
(0.23031264 -4.3808622e-06 0)
(0.13574064 -1.4727792e-06 0)
(0.067901607 -3.4718619e-07 0)
(0.019889403 -5.0023546e-08 0)
(0.019886752 4.4697799e-08 0)
(0.067892685 3.1093976e-07 0)
(0.13572313 1.3208101e-06 0)
(0.23028375 3.932194e-06 0)
(0.35957935 9.7158601e-06 0)
(0.53152592 2.1315558e-05 0)
(0.75129648 4.2360202e-05 0)
(1.0167465 7.5619806e-05 0)
(1.3124581 0.00011654223 0)
(1.6052027 0.00014169862 0)
(1.8460982 0.00011827095 0)
(1.9835117 4.6031588e-05 0)
(1.9835117 -4.6031381e-05 0)
(1.8460982 -0.00011827068 0)
(1.6052027 -0.0001416984 0)
(1.3124581 -0.00011654236 0)
(1.0167465 -7.5620732e-05 0)
(0.75129648 -4.2362131e-05 0)
(0.53152592 -2.1318123e-05 0)
(0.35957935 -9.7183588e-06 0)
(0.23028375 -3.9341253e-06 0)
(0.13572313 -1.3221313e-06 0)
(0.067892685 -3.1167591e-07 0)
(0.019886752 -4.4923058e-08 0)
(0.019884362 4.0385198e-08 0)
(0.067884644 2.8103509e-07 0)
(0.13570735 1.1941479e-06 0)
(0.23025769 3.5564756e-06 0)
(0.35954035 8.7928798e-06 0)
(0.53147216 1.9310014e-05 0)
(0.75122934 3.8440138e-05 0)
(1.0166753 6.8838899e-05 0)
(1.3124053 0.00010678346 0)
(1.6051983 0.00013155221 0)
(1.8461504 0.00011132797 0)
(1.9835985 4.3631211e-05 0)
(1.9835985 -4.363088e-05 0)
(1.8461504 -0.00011132756 0)
(1.6051983 -0.00013155186 0)
(1.3124053 -0.0001067836 0)
(1.0166753 -6.8840099e-05 0)
(0.75122934 -3.8442628e-05 0)
(0.53147216 -1.9313299e-05 0)
(0.35954035 -8.7960561e-06 0)
(0.23025769 -3.5589166e-06 0)
(0.13570735 -1.1958091e-06 0)
(0.067884644 -2.8195722e-07 0)
(0.019884362 -4.066691e-08 0)
(0.019882195 3.671026e-08 0)
(0.067877349 2.5553466e-07 0)
(0.13569303 1.0860717e-06 0)
(0.23023403 3.2356205e-06 0)
(0.3595049 8.0035742e-06 0)
(0.5314232 1.7590926e-05 0)
(0.75116797 3.5067225e-05 0)
(1.0166096 6.2964132e-05 0)
(1.3123553 9.8203172e-05 0)
(1.6051923 0.00012233356 0)
(1.8461982 0.00010491313 0)
(1.9836803 4.1390565e-05 0)
(1.9836803 -4.1390089e-05 0)
(1.8461982 -0.00010491256 0)
(1.6051923 -0.00012233306 0)
(1.3123553 -9.8203307e-05 0)
(1.0166096 -6.2965638e-05 0)
(0.75116797 -3.5070346e-05 0)
(0.5314232 -1.7595016e-05 0)
(0.3595049 -8.0075045e-06 0)
(0.23023403 -3.2386269e-06 0)
(0.13569303 -1.088109e-06 0)
(0.067877349 -2.5666213e-07 0)
(0.019882195 -3.7054245e-08 0)
(0.019880219 3.3537748e-08 0)
(0.067870695 2.335076e-07 0)
(0.13567996 9.926677e-07 0)
(0.23021243 2.9581469e-06 0)
(0.35947252 7.3202913e-06 0)
(0.53137842 1.6100141e-05 0)
(0.75111164 3.2133017e-05 0)
(1.0165488 5.7823399e-05 0)
(1.3123082 9.0602453e-05 0)
(1.6051852 0.00011395338 0)
(1.8462423 9.8955958e-05 0)
(1.9837576 3.9289102e-05 0)
(1.9837576 -3.9288463e-05 0)
(1.8462423 -9.8955193e-05 0)
(1.6051852 -0.0001139527 0)
(1.3123082 -9.0602591e-05 0)
(1.0165488 -5.7825243e-05 0)
(0.75111164 -3.2136833e-05 0)
(0.53137842 -1.6105112e-05 0)
(0.35947252 -7.3250455e-06 0)
(0.23021243 -2.9617699e-06 0)
(0.13567996 -9.9511434e-07 0)
(0.067870695 -2.3485819e-07 0)
(0.019880219 -3.3949348e-08 0)
(0.019878409 3.0773478e-08 0)
(0.0678646 2.1430447e-07 0)
(0.13566798 9.1119866e-07 0)
(0.23019263 2.7159858e-06 0)
(0.35944282 6.7234301e-06 0)
(0.53133728 1.4796026e-05 0)
(0.75105977 2.9559708e-05 0)
(1.0164925 5.3292555e-05 0)
(1.3122638 8.3831571e-05 0)
(1.6051772 0.00010632401 0)
(1.846283 9.3403236e-05 0)
(1.9838307 3.7312621e-05 0)
(1.9838307 -3.7311796e-05 0)
(1.846283 -9.340225e-05 0)
(1.6051772 -0.00010632314 0)
(1.3122638 -8.3831708e-05 0)
(1.0164925 -5.3294768e-05 0)
(0.75105977 -2.9564279e-05 0)
(0.53133728 -1.4801951e-05 0)
(0.35944282 -6.7290737e-06 0)
(0.23019263 -2.7202733e-06 0)
(0.13566798 -9.1408597e-07 0)
(0.0678646 -2.15895e-07 0)
(0.019878409 -3.1257765e-08 0)
(0.019876745 2.8343619e-08 0)
(0.067858993 1.9741704e-07 0)
(0.13565697 8.3952554e-07 0)
(0.23017441 2.5028366e-06 0)
(0.35941547 6.1976671e-06 0)
(0.53129936 1.3645827e-05 0)
(0.75101183 2.7285349e-05 0)
(1.0164401 4.9271759e-05 0)
(1.3122219 7.7767713e-05 0)
(1.6051688 9.9356099e-05 0)
(1.8463207 8.8213568e-05 0)
(1.9838998 3.5449747e-05 0)
(1.9838998 -3.5448713e-05 0)
(1.8463207 -8.8212339e-05 0)
(1.6051688 -9.9355011e-05 0)
(1.3122219 -7.7767848e-05 0)
(1.0164401 -4.927437e-05 0)
(0.75101183 -2.7290732e-05 0)
(0.53129936 -1.3652777e-05 0)
(0.35941547 -6.2042639e-06 0)
(0.23017441 -2.5078355e-06 0)
(0.13565697 -8.4288408e-07 0)
(0.067858993 -1.9926399e-07 0)
(0.019876745 -2.890556e-08 0)
(0.019875208 2.6190134e-08 0)
(0.067853818 1.8244509e-07 0)
(0.1356468 7.7596175e-07 0)
(0.23015758 2.3137278e-06 0)
(0.3593902 5.7309029e-06 0)
(0.5312643 1.2623613e-05 0)
(0.75096742 2.5260408e-05 0)
(1.0163914 4.5679599e-05 0)
(1.3121824 7.2308087e-05 0)
(1.6051599 9.2973366e-05 0)
(1.8463555 8.3350345e-05 0)
(1.9839652 3.3689828e-05 0)
(1.9839652 -3.3688562e-05 0)
(1.8463555 -8.3348851e-05 0)
(1.6051599 -9.2972042e-05 0)
(1.3121824 -7.2308219e-05 0)
(1.0163914 -4.5682637e-05 0)
(0.75096742 -2.5266662e-05 0)
(0.5312643 -1.2631657e-05 0)
(0.3593902 -5.7385158e-06 0)
(0.23015758 -2.3194846e-06 0)
(0.1356468 -7.7982211e-07 0)
(0.067853818 -1.8456498e-07 0)
(0.019875208 -2.683472e-08 0)
(0.019873787 2.4267843e-08 0)
(0.067849027 1.6907634e-07 0)
(0.13563738 7.1918874e-07 0)
(0.230142 2.1447644e-06 0)
(0.35936679 5.3136347e-06 0)
(0.53123178 1.1708961e-05 0)
(0.75092616 2.3445663e-05 0)
(1.016346 4.2450621e-05 0)
(1.3121452 6.736766e-05 0)
(1.6051509 8.7107537e-05 0)
(1.8463878 7.8785229e-05 0)
(1.9840271 3.2024281e-05 0)
(1.9840271 -3.2022767e-05 0)
(1.8463878 -7.8783449e-05 0)
(1.6051509 -8.710596e-05 0)
(1.3121452 -6.7367793e-05 0)
(1.016346 -4.2454119e-05 0)
(0.75092617 -2.3452846e-05 0)
(0.53123178 -1.1718169e-05 0)
(0.35936679 -5.3223279e-06 0)
(0.230142 -2.1513268e-06 0)
(0.13563738 -7.2358222e-07 0)
(0.067849027 -1.7148613e-07 0)
(0.019873786 -2.50002e-08 0)
(0.019872467 2.2541186e-08 0)
(0.067844581 1.5706471e-07 0)
(0.13562864 6.681663e-07 0)
(0.23012754 1.9928697e-06 0)
(0.35934505 4.9383402e-06 0)
(0.53120156 1.0885662e-05 0)
(0.75088776 2.1809891e-05 0)
(1.0163035 3.9532308e-05 0)
(1.31211 6.2876565e-05 0)
(1.6051418 8.1702108e-05 0)
(1.8464178 7.4491985e-05 0)
(1.9840857 3.0444962e-05 0)
(1.9840857 -3.0443188e-05 0)
(1.8464178 -7.4489903e-05 0)
(1.6051418 -8.1700267e-05 0)
(1.31211 -6.2876704e-05 0)
(1.0163035 -3.95363e-05 0)
(0.75088776 -2.1818063e-05 0)
(0.53120157 -1.0896107e-05 0)
(0.35934505 -4.9481802e-06 0)
(0.23012754 -2.0002869e-06 0)
(0.13562864 -6.7312561e-07 0)
(0.067844581 -1.5978218e-07 0)
(0.019872467 -2.3366696e-08 0)
(0.01987124 2.0981701e-08 0)
(0.067840446 1.4621312e-07 0)
(0.13562051 6.2206089e-07 0)
(0.23011408 1.8555756e-06 0)
(0.35932481 4.5989756e-06 0)
(0.53117342 1.0140657e-05 0)
(0.75085195 2.0327838e-05 0)
(1.0162638 3.6881966e-05 0)
(1.3120768 5.8777088e-05 0)
(1.6051327 7.6706804e-05 0)
(1.8464458 7.0451497e-05 0)
(1.9841412 2.8945824e-05 0)
(1.9841412 -2.8943784e-05 0)
(1.8464458 -7.04491e-05 0)
(1.6051327 -7.670469e-05 0)
(1.3120768 -5.8777243e-05 0)
(1.0162638 -3.6886487e-05 0)
(0.75085195 -2.0337062e-05 0)
(0.53117342 -1.0152415e-05 0)
(0.35932481 -4.6100331e-06 0)
(0.23011408 -1.8639005e-06 0)
(0.13562051 -6.2762104e-07 0)
(0.067840446 -1.4925735e-07 0)
(0.01987124 -2.1906146e-08 0)
(0.019870096 1.9566373e-08 0)
(0.067836592 1.3636212e-07 0)
(0.13561293 5.8019772e-07 0)
(0.23010153 1.7308833e-06 0)
(0.35930594 4.2906425e-06 0)
(0.53114716 9.4633459e-06 0)
(0.75081849 1.8978947e-05 0)
(1.0162266 3.4464604e-05 0)
(1.3120455 5.5021098e-05 0)
(1.6051237 7.2080834e-05 0)
(1.8464718 6.664299e-05 0)
(1.9841938 2.7520434e-05 0)
(1.9841938 -2.7518124e-05 0)
(1.8464718 -6.6640269e-05 0)
(1.6051237 -7.2078445e-05 0)
(1.3120455 -5.5021279e-05 0)
(1.0162266 -3.4469694e-05 0)
(0.7508185 -1.8989291e-05 0)
(0.53114716 -9.4765004e-06 0)
(0.35930594 -4.3029944e-06 0)
(0.23010153 -1.7401735e-06 0)
(0.13561293 -5.8639696e-07 0)
(0.067836592 -1.3975399e-07 0)
(0.019870096 -2.059609e-08 0)
(0.019869029 1.8276358e-08 0)
(0.067832994 1.2738113e-07 0)
(0.13560586 5.4202414e-07 0)
(0.23008981 1.6171548e-06 0)
(0.35928831 4.009321e-06 0)
(0.53112262 8.845013e-06 0)
(0.75078719 1.7746267e-05 0)
(1.0161917 3.225128e-05 0)
(1.312016 5.1568395e-05 0)
(1.6051149 6.7786359e-05 0)
(1.846496 6.305324e-05 0)
(1.9842436 2.6164759e-05 0)
(1.9842436 -2.6162177e-05 0)
(1.846496 -6.3050191e-05 0)
(1.6051149 -6.7783692e-05 0)
(1.312016 -5.1568616e-05 0)
(1.0161917 -3.225698e-05 0)
(0.7507872 -1.7757806e-05 0)
(0.53112262 -8.8596555e-06 0)
(0.35928832 -4.0230523e-06 0)
(0.23008981 -1.6274738e-06 0)
(0.13560586 -5.4890493e-07 0)
(0.067832994 -1.3114385e-07 0)
(0.019869029 -1.941839e-08 0)
(0.019868031 1.709612e-08 0)
(0.067829631 1.1916247e-07 0)
(0.13559924 5.0708422e-07 0)
(0.23007886 1.5130382e-06 0)
(0.35927183 3.7516944e-06 0)
(0.53109966 8.2784652e-06 0)
(0.75075787 1.6615787e-05 0)
(1.0161589 3.0217906e-05 0)
(1.311988 4.838495e-05 0)
(1.6051063 6.3793765e-05 0)
(1.8465187 5.966405e-05 0)
(1.9842909 2.487344e-05 0)
(1.9842909 -2.4870584e-05 0)
(1.8465187 -5.9660672e-05 0)
(1.6051063 -6.3790818e-05 0)
(1.311988 -4.8385223e-05 0)
(1.0161589 -3.0224263e-05 0)
(0.75075788 -1.6628604e-05 0)
(0.53109966 -8.2946974e-06 0)
(0.35927183 -3.7668997e-06 0)
(0.23007886 -1.5244573e-06 0)
(0.13559924 -5.1469395e-07 0)
(0.06782963 -1.2332197e-07 0)
(0.019868031 -1.835834e-08 0)
(0.019867097 1.6012676e-08 0)
(0.067826482 1.1161619e-07 0)
(0.13559305 4.7499703e-07 0)
(0.2300686 1.4174035e-06 0)
(0.35925639 3.5149844e-06 0)
(0.53107814 7.7576626e-06 0)
(0.75073038 1.5575718e-05 0)
(1.0161281 2.8344227e-05 0)
(1.3119617 4.5442109e-05 0)
(1.6050979 6.0073539e-05 0)
(1.8465398 5.6466975e-05 0)
(1.9843356 2.3644158e-05 0)
(1.9843356 -2.3641027e-05 0)
(1.8465398 -5.6463264e-05 0)
(1.6050979 -6.0070308e-05 0)
(1.3119617 -4.5442447e-05 0)
(1.0161281 -2.8351289e-05 0)
(0.75073039 -1.5589903e-05 0)
(0.53107814 -7.7755977e-06 0)
(0.35925639 -3.5317696e-06 0)
(0.2300686 -1.4300019e-06 0)
(0.13559305 -4.8338861e-07 0)
(0.067826482 -1.1620141e-07 0)
(0.019867096 -1.7403868e-08 0)
(0.019866221 1.5015111e-08 0)
(0.067823531 1.0466656e-07 0)
(0.13558724 4.4544189e-07 0)
(0.23005898 1.3292997e-06 0)
(0.35924191 3.2968569e-06 0)
(0.53105796 7.2775371e-06 0)
(0.75070457 1.4616153e-05 0)
(1.0160992 2.6613056e-05 0)
(1.3119367 4.2715033e-05 0)
(1.6050897 5.6604011e-05 0)
(1.8465596 5.3444439e-05 0)
(1.984378 2.2471934e-05 0)
(1.984378 -2.2468526e-05 0)
(1.8465596 -5.3440387e-05 0)
(1.6050897 -5.6600487e-05 0)
(1.3119367 -4.2715446e-05 0)
(1.0160992 -2.6620875e-05 0)
(0.75070458 -1.4631806e-05 0)
(0.53105796 -7.2973007e-06 0)
(0.35924191 -3.3153393e-06 0)
(0.23005898 -1.3431656e-06 0)
(0.13558724 -4.5467404e-07 0)
(0.06782353 -1.097096e-07 0)
(0.019866221 -1.6545017e-08 0)
(0.0198654 1.4094163e-08 0)
(0.067820761 9.824944e-08 0)
(0.1355818 4.1814704e-07 0)
(0.23004995 1.2479196e-06 0)
(0.35922832 3.0953232e-06 0)
(0.53103901 6.8337522e-06 0)
(0.75068032 1.3728599e-05 0)
(1.0160719 2.500976e-05 0)
(1.3119132 4.0182829e-05 0)
(1.6050818 5.3361252e-05 0)
(1.8465781 5.0592628e-05 0)
(1.9844182 2.1356016e-05 0)
(1.9844182 -2.1352326e-05 0)
(1.8465781 -5.0588223e-05 0)
(1.6050818 -5.3357419e-05 0)
(1.3119132 -4.0183324e-05 0)
(1.016072 -2.5018393e-05 0)
(0.75068033 -1.3745829e-05 0)
(0.53103901 -6.8554825e-06 0)
(0.35922832 -3.1156322e-06 0)
(0.23004995 -1.26315e-06 0)
(0.1355818 -4.2828432e-07 0)
(0.067820761 -1.0378555e-07 0)
(0.019865399 -1.577348e-08 0)
(0.019864628 1.3241889e-08 0)
(0.067818161 9.2309602e-08 0)
(0.13557668 3.9287842e-07 0)
(0.23004148 1.1725694e-06 0)
(0.35921555 2.9086821e-06 0)
(0.5310212 6.4226161e-06 0)
(0.75065752 1.290582e-05 0)
(1.0160463 2.3521637e-05 0)
(1.3118909 3.7826681e-05 0)
(1.6050743 5.0329437e-05 0)
(1.8465955 4.7892805e-05 0)
(1.9844563 2.0291096e-05 0)
(1.9844563 -2.0287111e-05 0)
(1.8465955 -4.7888025e-05 0)
(1.6050743 -5.0325275e-05 0)
(1.3118909 -3.7827263e-05 0)
(1.0160463 -2.3531144e-05 0)
(0.75065753 -1.2924747e-05 0)
(0.5310212 -6.4464646e-06 0)
(0.35921556 -2.9309591e-06 0)
(0.23004148 -1.1892701e-06 0)
(0.13557668 -4.0399113e-07 0)
(0.06781816 -9.8377134e-08 0)
(0.019864628 -1.5082242e-08 0)
(0.019863903 1.2451518e-08 0)
(0.067815716 8.6800235e-08 0)
(0.13557187 3.6943772e-07 0)
(0.23003351 1.1026587e-06 0)
(0.35920355 2.735473e-06 0)
(0.53100445 6.0409278e-06 0)
(0.75063606 1.2141527e-05 0)
(1.0160221 2.2137883e-05 0)
(1.3118699 3.5631207e-05 0)
(1.6050669 4.7488527e-05 0)
(1.8466118 4.5346488e-05 0)
(1.9844924 1.9278133e-05 0)
(1.9844924 -1.9273831e-05 0)
(1.8466118 -4.5341307e-05 0)
(1.6050669 -4.7484009e-05 0)
(1.3118699 -3.5631879e-05 0)
(1.0160221 -2.2148328e-05 0)
(0.75063607 -1.2162282e-05 0)
(0.53100445 -6.0670588e-06 0)
(0.35920355 -2.7598712e-06 0)
(0.23003351 -1.1209443e-06 0)
(0.13557187 -3.8160186e-07 0)
(0.067815715 -9.344059e-08 0)
(0.019863903 -1.4465454e-08 0)
(0.019863221 1.1717052e-08 0)
(0.067813416 8.1679429e-08 0)
(0.13556735 3.4764704e-07 0)
(0.23002601 1.0376615e-06 0)
(0.35919226 2.5744119e-06 0)
(0.53098868 5.6859118e-06 0)
(0.75061585 1.1430265e-05 0)
(1.0159993 2.0848749e-05 0)
(1.31185 3.3581452e-05 0)
(1.6050599 4.4826997e-05 0)
(1.8466272 4.2931768e-05 0)
(1.9845266 1.83107e-05 0)
(1.9845266 -1.8306056e-05 0)
(1.8466271 -4.2926153e-05 0)
(1.6050599 -4.4822093e-05 0)
(1.31185 -3.3582218e-05 0)
(1.0159993 -2.0860203e-05 0)
(0.75061586 -1.145299e-05 0)
(0.53098869 -5.7145026e-06 0)
(0.35919226 -2.6010957e-06 0)
(0.23002601 -1.0576545e-06 0)
(0.13556735 -3.6094363e-07 0)
(0.067813416 -8.8936651e-08 0)
(0.019863221 -1.3917906e-08 0)
(0.019862579 1.1033515e-08 0)
(0.067811252 7.6913032e-08 0)
(0.13556309 3.2736184e-07 0)
(0.23001895 9.7714472e-07 0)
(0.35918162 2.4244156e-06 0)
(0.53097384 5.3551681e-06 0)
(0.75059681 1.0767305e-05 0)
(1.0159778 1.9646223e-05 0)
(1.3118312 3.166634e-05 0)
(1.6050532 4.2327866e-05 0)
(1.8466415 4.0657068e-05 0)
(1.984559 1.7391978e-05 0)
(1.984559 -1.7386964e-05 0)
(1.8466415 -4.0650986e-05 0)
(1.6050532 -4.2322544e-05 0)
(1.3118312 -3.1667206e-05 0)
(1.0159778 -1.9658765e-05 0)
(0.75059682 -1.0792152e-05 0)
(0.53097384 -5.3864084e-06 0)
(0.35918162 -2.45356e-06 0)
(0.23001895 -9.9897472e-07 0)
(0.13556309 -3.4187627e-07 0)
(0.067811251 -8.4833406e-08 0)
(0.019862579 -1.3435286e-08 0)
(0.019861974 1.039613e-08 0)
(0.067809213 7.246724e-08 0)
(0.13555907 3.0843825e-07 0)
(0.2300123 9.2068618e-07 0)
(0.3591716 2.2844685e-06 0)
(0.53095985 5.0465307e-06 0)
(0.75057886 1.0148381e-05 0)
(1.0159575 1.8522435e-05 0)
(1.3118134 2.9873061e-05 0)
(1.6050467 3.9982367e-05 0)
(1.8466551 3.8494673e-05 0)
(1.9845898 1.6513404e-05 0)
(1.9845898 -1.6507993e-05 0)
(1.8466551 -3.8488087e-05 0)
(1.6050467 -3.9976596e-05 0)
(1.3118134 -2.9874038e-05 0)
(1.0159576 -1.8536152e-05 0)
(0.75057887 -1.0175515e-05 0)
(0.53095985 -5.080622e-06 0)
(0.3591716 -2.3162581e-06 0)
(0.2300123 -9.4448965e-07 0)
(0.13555907 -3.2426015e-07 0)
(0.067809212 -8.1099249e-08 0)
(0.019861974 -1.3013462e-08 0)
(0.019861404 9.8014344e-09 0)
(0.067807291 6.8318903e-08 0)
(0.13555529 2.907787e-07 0)
(0.23000603 8.6798745e-07 0)
(0.35916216 2.153797e-06 0)
(0.53094666 4.7582293e-06 0)
(0.75056194 9.5699845e-06 0)
(1.0159384 1.7471696e-05 0)
(1.3117965 2.8194563e-05 0)
(1.6050405 3.7776814e-05 0)
(1.8466678 3.6462619e-05 0)
(1.9846188 1.56814e-05 0)
(1.9846188 -1.5675568e-05 0)
(1.8466677 -3.6455499e-05 0)
(1.6050405 -3.777057e-05 0)
(1.3117965 -2.819567e-05 0)
(1.0159384 -1.7486685e-05 0)
(0.75056195 -9.5995803e-06 0)
(0.53094667 -4.7953821e-06 0)
(0.35916216 -2.1884227e-06 0)
(0.23000603 -8.9390453e-07 0)
(0.13555529 -3.0799971e-07 0)
(0.067807291 -7.7711961e-08 0)
(0.019861404 -1.2649237e-08 0)
(0.019860867 9.2452027e-09 0)
(0.067805479 6.4437212e-08 0)
(0.13555173 2.7425132e-07 0)
(0.23000012 8.1866916e-07 0)
(0.35915325 2.0315228e-06 0)
(0.53093422 4.4884606e-06 0)
(0.75054596 9.028571e-06 0)
(1.0159203 1.6487067e-05 0)
(1.3117806 2.6618376e-05 0)
(1.6050346 3.5702968e-05 0)
(1.8466798 3.4523638e-05 0)
(1.9846465 1.4883805e-05 0)
(1.9846465 -1.4877538e-05 0)
(1.8466798 -3.4515961e-05 0)
(1.6050346 -3.5696234e-05 0)
(1.3117806 -2.6619641e-05 0)
(1.0159203 -1.6503435e-05 0)
(0.75054597 -9.0608117e-06 0)
(0.53093422 -4.5288906e-06 0)
(0.35915325 -2.0691776e-06 0)
(0.23000012 -8.4683977e-07 0)
(0.13555173 -2.9296194e-07 0)
(0.067805478 -7.4639775e-08 0)
(0.019860866 -1.2338055e-08 0)
(0.01986036 8.7257414e-09 0)
(0.06780377 6.0812511e-08 0)
(0.13554837 2.588165e-07 0)
(0.22999455 7.7259286e-07 0)
(0.35914485 1.9172136e-06 0)
(0.53092248 4.2360914e-06 0)
(0.75053089 8.5218372e-06 0)
(1.0159032 1.556536e-05 0)
(1.3117655 2.5142406e-05 0)
(1.605029 3.3752472e-05 0)
(1.846691 3.2709752e-05 0)
(1.9846726 1.413203e-05 0)
(1.9846726 -1.4125322e-05 0)
(1.846691 -3.2701508e-05 0)
(1.605029 -3.3745241e-05 0)
(1.3117655 -2.5143865e-05 0)
(1.0159033 -1.5583221e-05 0)
(0.7505309 -8.5569112e-06 0)
(0.53092249 -4.2800171e-06 0)
(0.35914485 -1.9580918e-06 0)
(0.22999455 -8.031577e-07 0)
(0.13554836 -2.7910752e-07 0)
(0.067803769 -7.1873039e-08 0)
(0.01986036 -1.2078192e-08 0)
(0.019859881 8.2383581e-09 0)
(0.067802156 5.740876e-08 0)
(0.13554519 2.4431882e-07 0)
(0.22998928 7.2932798e-07 0)
(0.35913691 1.8099463e-06 0)
(0.53091139 3.9993834e-06 0)
(0.75051664 8.0464323e-06 0)
(1.0158871 1.4699372e-05 0)
(1.3117512 2.3751911e-05 0)
(1.6050236 3.1913602e-05 0)
(1.8467017 3.0968691e-05 0)
(1.9846975 1.340811e-05 0)
(1.9846975 -1.340097e-05 0)
(1.8467017 -3.0959876e-05 0)
(1.6050236 -3.1905877e-05 0)
(1.3117512 -2.375361e-05 0)
(1.0158871 -1.4718844e-05 0)
(0.75051665 -8.0845258e-06 0)
(0.5309114 -4.0470145e-06 0)
(0.35913691 -1.8542292e-06 0)
(0.22998928 -7.6241517e-07 0)
(0.13554519 -2.6627128e-07 0)
(0.067802155 -6.936993e-08 0)
(0.019859881 -1.1863156e-08 0)
(0.01985943 7.784626e-09 0)
(0.067800634 5.4241904e-08 0)
(0.13554219 2.3082861e-07 0)
(0.22998431 6.8903065e-07 0)
(0.35912943 1.7098779e-06 0)
(0.53090093 3.7782086e-06 0)
(0.7505032 7.6018562e-06 0)
(1.0158719 1.3889798e-05 0)
(1.3117377 2.245295e-05 0)
(1.6050185 3.0188799e-05 0)
(1.8467117 2.9353455e-05 0)
(1.9847208 1.2731373e-05 0)
(1.9847208 -1.2723825e-05 0)
(1.8467116 -2.9344087e-05 0)
(1.6050185 -3.0180596e-05 0)
(1.3117377 -2.2454943e-05 0)
(1.0158719 -1.3911002e-05 0)
(0.75050322 -7.6431485e-06 0)
(0.53090094 -3.8297384e-06 0)
(0.35912943 -1.757727e-06 0)
(0.22998431 -7.2475027e-07 0)
(0.13554219 -2.5450953e-07 0)
(0.067800633 -6.713794e-08 0)
(0.019859429 -1.1691844e-08 0)
(0.019859002 7.3567257e-09 0)
(0.067799193 5.1249507e-08 0)
(0.13553936 2.1807649e-07 0)
(0.22997961 6.5098391e-07 0)
(0.35912234 1.6156008e-06 0)
(0.53089102 3.5702295e-06 0)
(0.75049046 7.1838857e-06 0)
(1.0158574 1.3126901e-05 0)
(1.3117249 2.1223737e-05 0)
(1.6050136 2.8555332e-05 0)
(1.8467212 2.7788962e-05 0)
(1.9847433 1.2074749e-05 0)
(1.9847433 -1.2066833e-05 0)
(1.8467212 -2.7779065e-05 0)
(1.6050136 -2.8546681e-05 0)
(1.3117249 -2.1226088e-05 0)
(1.0158574 -1.3149957e-05 0)
(0.75049048 -7.2285371e-06 0)
(0.53089103 -3.6258175e-06 0)
(0.35912234 -1.6671395e-06 0)
(0.22997961 -6.8941407e-07 0)
(0.13553935 -2.4352989e-07 0)
(0.067799191 -6.5101365e-08 0)
(0.019859002 -1.1552313e-08 0)
(0.0198586 6.9650047e-09 0)
(0.067797836 4.851537e-08 0)
(0.13553669 2.0642119e-07 0)
(0.22997518 6.1610717e-07 0)
(0.35911566 1.5287653e-06 0)
(0.5308817 3.3777559e-06 0)
(0.75047849 6.7961162e-06 0)
(1.0158438 1.2419625e-05 0)
(1.3117128 2.0086651e-05 0)
(1.605009 2.7038687e-05 0)
(1.84673 2.6360622e-05 0)
(1.9847642 1.1470454e-05 0)
(1.9847642 -1.1462231e-05 0)
(1.84673 -2.6350251e-05 0)
(1.6050089 -2.7029641e-05 0)
(1.3117129 -2.0089441e-05 0)
(1.0158438 -1.2444649e-05 0)
(0.75047851 -6.8442507e-06 0)
(0.53088171 -3.4374913e-06 0)