/*--------------------------------*- C++ -*----------------------------------*\
  =========                 |
  \\      /  F ield         | OpenFOAM: The Open Source CFD Toolbox
   \\    /   O peration     | Website:  https://openfoam.org
    \\  /    A nd           | Version:  10
     \\/     M anipulation  |
\*---------------------------------------------------------------------------*/
FoamFile
{
    format      ascii;
    class       volScalarField;
    location    "48";
    object      ddt0(T);
}
// * * * * * * * * * * * * * * * * * * * * * * * * * * * * * * * * * * * * * //

dimensions      [0 0 -1 1 0 0 0];

internalField   nonuniform List<scalar> 
10000
(
233.952
-4.13728
36.7274
34.0421
33.9315
33.9841
33.9859
33.9855
33.9861
33.9868
33.9873
33.9879
33.9885
33.989
33.9896
33.9901
33.9907
33.9912
33.9918
33.9923
33.9929
33.9934
33.9939
33.9944
33.995
33.9955
33.996
33.9965
33.997
33.9975
33.998
33.9985
33.999
33.9994
33.9999
34.0004
34.0009
34.0013
34.0018
34.0022
34.0027
34.0031
34.0035
34.004
34.0044
34.0048
34.0052
34.0056
34.006
34.0064
34.0068
34.0072
34.0075
34.0079
34.0082
34.0086
34.0089
34.0093
34.0096
34.0099
34.0102
34.0105
34.0108
34.0111
34.0114
34.0117
34.012
34.0122
34.0125
34.0127
34.013
34.0132
34.0134
34.0136
34.0138
34.014
34.0142
34.0144
34.0146
34.0147
34.0149
34.0151
34.0152
34.0153
34.0155
34.0156
34.0157
34.0158
34.0159
34.016
34.016
34.0161
34.0162
34.0162
34.0158
34.0129
34.035
34.4527
32.8869
22.3898
4.49241
-35.0927
-9.34129
-15.2499
-15.0636
-14.944
-14.9481
-14.9501
-14.9486
-14.9468
-14.9451
-14.9434
-14.9418
-14.9401
-14.9385
-14.9368
-14.9352
-14.9336
-14.9319
-14.9303
-14.9287
-14.9271
-14.9256
-14.924
-14.9224
-14.9209
-14.9193
-14.9178
-14.9163
-14.9148
-14.9133
-14.9118
-14.9104
-14.9089
-14.9075
-14.9061
-14.9047
-14.9033
-14.9019
-14.9006
-14.8993
-14.8979
-14.8966
-14.8954
-14.8941
-14.8929
-14.8916
-14.8904
-14.8892
-14.8881
-14.8869
-14.8858
-14.8847
-14.8836
-14.8825
-14.8815
-14.8805
-14.8794
-14.8785
-14.8775
-14.8766
-14.8756
-14.8747
-14.8739
-14.873
-14.8722
-14.8714
-14.8706
-14.8698
-14.8691
-14.8684
-14.8677
-14.867
-14.8664
-14.8658
-14.8652
-14.8646
-14.8641
-14.8635
-14.863
-14.8626
-14.8621
-14.8617
-14.8613
-14.8609
-14.8605
-14.8602
-14.8599
-14.8596
-14.8594
-14.8591
-14.8589
-14.8587
-14.8584
-14.8584
-14.8643
-14.8823
-14.6844
-15.0564
-9.39199
41.0203
-12.134
9.26715
3.73998
4.11578
4.24397
4.23667
4.23515
4.23794
4.24089
4.2437
4.24648
4.24925
4.25202
4.25477
4.25751
4.26024
4.26295
4.26566
4.26834
4.27101
4.27367
4.2763
4.27892
4.28153
4.28411
4.28667
4.28921
4.29174
4.29424
4.29671
4.29917
4.3016
4.30401
4.30639
4.30874
4.31108
4.31338
4.31566
4.31791
4.32013
4.32232
4.32449
4.32662
4.32872
4.3308
4.33284
4.33485
4.33683
4.33878
4.34069
4.34257
4.34442
4.34623
4.34801
4.34975
4.35146
4.35314
4.35478
4.35638
4.35794
4.35947
4.36097
4.36242
4.36384
4.36522
4.36656
4.36787
4.36914
4.37036
4.37155
4.37271
4.37382
4.37489
4.37592
4.37692
4.37787
4.37879
4.37966
4.38049
4.38129
4.38204
4.38276
4.38343
4.38406
4.38466
4.38521
4.38572
4.38619
4.38662
4.38701
4.38735
4.38767
4.3881
4.3886
4.38363
4.35537
4.42968
3.9375
3.13309
38.8887
-17.336
4.40339
-0.897481
-0.501996
-0.380243
-0.388604
-0.389128
-0.385166
-0.381089
-0.377163
-0.373273
-0.369395
-0.365529
-0.361679
-0.357846
-0.354029
-0.350232
-0.346453
-0.342695
-0.338959
-0.335245
-0.331555
-0.327889
-0.324248
-0.320635
-0.317048
-0.31349
-0.309961
-0.306463
-0.302996
-0.299561
-0.296158
-0.29279
-0.289456
-0.286158
-0.282896
-0.279671
-0.276484
-0.273335
-0.270226
-0.267157
-0.264128
-0.261141
-0.258197
-0.255295
-0.252437
-0.249622
-0.246853
-0.244128
-0.24145
-0.238818
-0.236233
-0.233695
-0.231206
-0.228765
-0.226373
-0.22403
-0.221737
-0.219495
-0.217303
-0.215162
-0.213073
-0.211036
-0.209051
-0.207118
-0.205238
-0.203412
-0.201639
-0.19992
-0.198255
-0.196644
-0.195088
-0.193587
-0.19214
-0.190749
-0.189414
-0.188134
-0.18691
-0.185742
-0.18463
-0.183574
-0.182575
-0.181633
-0.180747
-0.179918
-0.179146
-0.178432
-0.177774
-0.177174
-0.176632
-0.176151
-0.175715
-0.175124
-0.173674
-0.172633
-0.181944
-0.121068
-0.0273757
-0.165245
38.7946
-17.187
4.73085
-0.549544
-0.160449
-0.0406936
-0.0482929
-0.047635
-0.0425245
-0.0373268
-0.0322879
-0.0272877
-0.0223026
-0.0173343
-0.0123854
-0.00745733
-0.00255158
0.00233049
0.00718752
0.0120182
0.0168211
0.021595
0.0263386
0.0310506
0.0357298
0.0403748
0.0449845
0.0495577
0.0540931
0.0585896
0.063046
0.0674612
0.071834
0.0761634
0.0804483
0.0846876
0.0888802
0.0930252
0.0971216
0.101168
0.105164
0.109109
0.113001
0.11684
0.120625
0.124354
0.128028
0.131645
0.135205
0.138706
0.142149
0.145531
0.148854
0.152115
0.155315
0.158452
0.161527
0.164538
0.167485
0.170367
0.173184
0.175935
0.17862
0.181239
0.18379
0.186274
0.188689
0.191037
0.193315
0.195525
0.197665
0.199735
0.201735
0.203665
0.205524
0.207311
0.209028
0.210673
0.212246
0.213747
0.215176
0.216533
0.217817
0.219028
0.220167
0.221232
0.222224
0.223143
0.223989
0.22476
0.225457
0.226071
0.226581
0.227034
0.227844
0.228548
0.220267
0.219386
0.238355
0.260538
38.8388
-17.083
4.84402
-0.442139
-0.0549865
0.0654076
0.0589871
0.0608111
0.06705
0.0733638
0.0795148
0.0856238
0.0917141
0.0977835
0.103829
0.109849
0.115842
0.121806
0.12774
0.133641
0.139508
0.14534
0.151135
0.156891
0.162607
0.168282
0.173913
0.1795
0.185041
0.190534
0.195978
0.201372
0.206714
0.212003
0.217237
0.222416
0.227538
0.232602
0.237606
0.24255
0.247431
0.25225
0.257005
0.261695
0.266318
0.270875
0.275363
0.279781
0.28413
0.288407
0.292613
0.296745
0.300804
0.304789
0.308697
0.31253
0.316286
0.319964
0.323564
0.327085
0.330527
0.333888
0.337168
0.340367
0.343484
0.346518
0.349469
0.352337
0.355121
0.35782
0.360434
0.362963
0.365407
0.367764
0.370035
0.372219
0.374316
0.376325
0.378247
0.380081
0.381827
0.383484
0.385053
0.386533
0.387923
0.389225
0.390437
0.391559
0.392592
0.393535
0.394389
0.39515
0.3958
0.396337
0.397038
0.398385
0.39718
0.394348
0.391497
0.398246
38.8403
-17.0862
4.83817
-0.448924
-0.0610138
0.0605554
0.0553058
0.0582626
0.0656193
0.0730464
0.0803077
0.0875238
0.0947175
0.101886
0.109027
0.116138
0.123216
0.130261
0.137269
0.144239
0.151169
0.158057
0.164902
0.171701
0.178453
0.185155
0.191807
0.198405
0.20495
0.211438
0.217868
0.224239
0.230549
0.236796
0.242978
0.249095
0.255145
0.261126
0.267037
0.272876
0.278642
0.284334
0.28995
0.295489
0.30095
0.306332
0.311633
0.316852
0.321988
0.327041
0.332008
0.336889
0.341683
0.346389
0.351006
0.355533
0.359969
0.364314
0.368566
0.372725
0.37679
0.38076
0.384634
0.388412
0.392094
0.395678
0.399164
0.402551
0.405839
0.409027
0.412115
0.415102
0.417988
0.420772
0.423454
0.426034
0.428511
0.430885
0.433155
0.435321
0.437383
0.43934
0.441193
0.442941
0.444584
0.446121
0.447552
0.448878
0.450098
0.451212
0.452221
0.453123
0.453909
0.454547
0.45511
0.455985
0.456624
0.45678
0.455227
0.456434
38.84
-17.0877
4.83721
-0.448896
-0.0598115
0.0629221
0.0588051
0.0628805
0.0713512
0.0798895
0.0882592
0.0965803
0.104875
0.113142
0.121376
0.129575
0.137737
0.145859
0.15394
0.161978
0.169969
0.177911
0.185804
0.193644
0.201429
0.209157
0.216827
0.224436
0.231982
0.239463
0.246878
0.254224
0.2615
0.268703
0.275832
0.282886
0.289861
0.296758
0.303573
0.310306
0.316955
0.323518
0.329994
0.336381
0.342678
0.348884
0.354996
0.361014
0.366937
0.372763
0.37849
0.384119
0.389647
0.395073
0.400397
0.405617
0.410732
0.415742
0.420645
0.42544
0.430127
0.434705
0.439173
0.443529
0.447774
0.451907
0.455926
0.459832
0.463623
0.467299
0.47086
0.474305
0.477632
0.480843
0.483936
0.48691
0.489766
0.492503
0.495121
0.497619
0.499996
0.502254
0.50439
0.506405
0.5083
0.510072
0.511723
0.513252
0.514658
0.515942
0.517105
0.518146
0.519064
0.519837
0.520452
0.521034
0.521611
0.52235
0.521218
0.522702
38.8406
-17.0861
4.84
-0.44494
-0.0547099
0.0691519
0.0661529
0.0713423
0.0809245
0.0905719
0.100048
0.109471
0.118866
0.128227
0.137552
0.146837
0.15608
0.165279
0.17443
0.183532
0.192582
0.201577
0.210515
0.219393
0.22821
0.236962
0.245648
0.254265
0.26281
0.271283
0.27968
0.287999
0.296238
0.304396
0.31247
0.320457
0.328357
0.336167
0.343886
0.351511
0.359041
0.366473
0.373807
0.38104
0.388171
0.395199
0.402121
0.408936
0.415644
0.422241
0.428727
0.435101
0.441362
0.447507
0.453536
0.459447
0.46524
0.470914
0.476466
0.481897
0.487205
0.492389
0.497448
0.502382
0.50719
0.51187
0.516422
0.520845
0.525138
0.529301
0.533334
0.537234
0.541003
0.544639
0.548141
0.55151
0.554744
0.557844
0.560808
0.563637
0.56633
0.568886
0.571306
0.573588
0.575733
0.57774
0.57961
0.581341
0.582934
0.584388
0.585704
0.586882
0.587923
0.588821
0.589558
0.590138
0.590622
0.591584
0.589885
0.592151
38.8413
-17.0843
4.84293
-0.440882
-0.0495323
0.0754458
0.0735602
0.0798609
0.0905522
0.101306
0.111885
0.122409
0.1329
0.143353
0.153766
0.164135
0.174457
0.184729
0.194948
0.205112
0.215218
0.225263
0.235244
0.245158
0.255003
0.264777
0.274476
0.284099
0.293642
0.303103
0.31248
0.32177
0.330971
0.34008
0.349096
0.358016
0.366838
0.375559
0.384178
0.392693
0.401101
0.409401
0.417591
0.425668
0.433631
0.441479
0.449209
0.45682
0.464309
0.471677
0.47892
0.486038
0.493029
0.499891
0.506624
0.513225
0.519694
0.526029
0.53223
0.538294
0.544222
0.550011
0.55566
0.56117
0.566538
0.571764
0.576848
0.581787
0.586581
0.591231
0.595733
0.600089
0.604298
0.608358
0.612269
0.616031
0.619643
0.623104
0.626414
0.629573
0.63258
0.635435
0.638137
0.640685
0.643081
0.645322
0.64741
0.649343
0.651122
0.652746
0.654215
0.655529
0.656689
0.657697
0.658542
0.659193
0.659664
0.660962
0.658542
0.661526
38.8418
-17.0827
4.84573
-0.436958
-0.0444951
0.0815954
0.0808202
0.0882294
0.100027
0.111884
0.123564
0.135185
0.146769
0.158312
0.16981
0.181259
0.192657
0.203999
0.215284
0.226507
0.237666
0.248757
0.259778
0.270726
0.281597
0.29239
0.3031
0.313725
0.324262
0.33471
0.345063
0.355322
0.365482
0.37554
0.385496
0.395345
0.405086
0.414717
0.424234
0.433636
0.442921
0.452086
0.461129
0.470048
0.478841
0.487507
0.496042
0.504446
0.512716
0.520852
0.52885
0.536709
0.544429
0.552006
0.55944
0.56673
0.573873
0.580868
0.587715
0.594412
0.600957
0.607349
0.613588
0.619671
0.625599
0.63137
0.636983
0.642437
0.647731
0.652865
0.657837
0.662647
0.667294
0.671777
0.676096
0.68025
0.684238
0.68806
0.691715
0.695203
0.698524
0.701676
0.704659
0.707474
0.710119
0.712594
0.714899
0.717034
0.718998
0.720791
0.722414
0.723864
0.725144
0.726255
0.727196
0.727919
0.728383
0.730052
0.726954
0.730588
38.8424
-17.081
4.84851
-0.433067
-0.0394935
0.087706
0.0880382
0.0965525
0.109453
0.12241
0.135187
0.147902
0.160576
0.173205
0.185785
0.198312
0.210782
0.223192
0.235538
0.247817
0.260026
0.272161
0.284219
0.296197
0.308091
0.319899
0.331617
0.343242
0.354771
0.366201
0.377529
0.388753
0.399869
0.410874
0.421766
0.432543
0.4432
0.453737
0.46415
0.474437
0.484595
0.494622
0.504516
0.514274
0.523895
0.533376
0.542714
0.551909
0.560958
0.569858
0.578609
0.587208
0.595654
0.603945
0.612078
0.620054
0.627869
0.635523
0.643014
0.65034
0.657501
0.664495
0.671321
0.677977
0.684462
0.690776
0.696917
0.702885
0.708677
0.714294
0.719734
0.724996
0.73008
0.734986
0.739711
0.744256
0.748619
0.752801
0.7568
0.760616
0.764249
0.767698
0.770962
0.774041
0.776935
0.779644
0.782166
0.784501
0.78665
0.788613
0.790387
0.791975
0.793374
0.794589
0.79562
0.796415
0.796869
0.798877
0.7952
0.799394
38.843
-17.0793
4.85129
-0.429187
-0.0345069
0.093798
0.0952339
0.10485
0.118849
0.132903
0.146773
0.160578
0.174339
0.188051
0.201709
0.21531
0.228848
0.242322
0.255727
0.269059
0.282314
0.295489
0.308581
0.321586
0.3345
0.34732
0.360042
0.372663
0.385181
0.397591
0.40989
0.422075
0.434144
0.446093
0.457919
0.469619
0.48119
0.49263
0.503936
0.515104
0.526133
0.53702
0.547762
0.558357
0.568802
0.579096
0.589235
0.599218
0.609042
0.618705
0.628206
0.637543
0.646712
0.655714
0.664544
0.673203
0.681689
0.689999
0.698132
0.706086
0.713861
0.721454
0.728865
0.736092
0.743133
0.749989
0.756656
0.763135
0.769424
0.775522
0.781428
0.787142
0.792662
0.797988
0.803118
0.808052
0.81279
0.81733
0.821672
0.825816
0.82976
0.833504
0.837048
0.840392
0.843534
0.846474
0.849212
0.851748
0.854082
0.856212
0.858139
0.859862
0.861382
0.8627
0.863822
0.864688
0.865141
0.867427
0.863295
0.867945
38.8435
-17.0777
4.85405
-0.42532
-0.0295371
0.0998693
0.102405
0.113118
0.128213
0.14336
0.158319
0.173211
0.188054
0.202844
0.217577
0.232248
0.246852
0.261385
0.275844
0.290225
0.304523
0.318735
0.332857
0.346885
0.360814
0.374643
0.388366
0.40198
0.415482
0.428869
0.442136
0.45528
0.468298
0.481187
0.493943
0.506563
0.519045
0.531385
0.54358
0.555627
0.567524
0.579267
0.590854
0.602282
0.613549
0.624653
0.635589
0.646358
0.656955
0.667379
0.677627
0.687698
0.697589
0.707298
0.716824
0.726164
0.735317
0.74428
0.753053
0.761634
0.77002
0.778211
0.786205
0.794
0.801595
0.80899
0.816182
0.82317
0.829954
0.836532
0.842903
0.849066
0.85502
0.860765
0.866299
0.871622
0.876732
0.881629
0.886313
0.890783
0.895037
0.899076
0.902899
0.906505
0.909894
0.913066
0.91602
0.918756
0.921272
0.92357
0.925649
0.927508
0.929147
0.930569
0.93178
0.932719
0.933182
0.935682
0.931223
0.936222
38.8441
-17.076
4.8568
-0.421468
-0.0245863
0.105917
0.109548
0.121355
0.137541
0.153776
0.169821
0.185794
0.201716
0.217581
0.233384
0.24912
0.264785
0.280375
0.295884
0.31131
0.326647
0.341891
0.357039
0.372085
0.387027
0.40186
0.416581
0.431184
0.445667
0.460026
0.474256
0.488356
0.502319
0.516145
0.529828
0.543365
0.556753
0.56999
0.58307
0.595993
0.608754
0.62135
0.633779
0.646038
0.658123
0.670033
0.681765
0.693315
0.704682
0.715863
0.726856
0.737658
0.748268
0.758683
0.768901
0.778919
0.788737
0.798352
0.807762
0.816966
0.825962
0.834747
0.843322
0.851684
0.859831
0.867762
0.875477
0.882973
0.89025
0.897306
0.90414
0.910751
0.917137
0.923299
0.929236
0.934945
0.940426
0.94568
0.950704
0.955498
0.960061
0.964394
0.968495
0.972363
0.975998
0.979401
0.982569
0.985503
0.988203
0.990668
0.992898
0.994892
0.996651
0.998175
0.999474
1.00049
1.00097
1.00363
0.998957
1.00421
38.8446
-17.0744
4.85954
-0.417633
-0.0196563
0.11194
0.116662
0.129558
0.14683
0.164149
0.181275
0.198325
0.215321
0.232256
0.249125
0.265922
0.282644
0.299285
0.315841
0.332306
0.348678
0.36495
0.38112
0.397181
0.413131
0.428964
0.444677
0.460266
0.475726
0.491053
0.506243
0.521293
0.536199
0.550957
0.565563
0.580013
0.594304
0.608433
0.622397
0.636191
0.649812
0.663258
0.676525
0.689611
0.702511
0.715225
0.727747
0.740077
0.75221
0.764146
0.77588
0.787411
0.798736
0.809853
0.82076
0.831455
0.841935
0.852198
0.862243
0.872067
0.88167
0.891048
0.900201
0.909127
0.917824
0.92629
0.934525
0.942527
0.950294
0.957826
0.965121
0.972178
0.978996
0.985573
0.99191
0.998004
1.00386
1.00946
1.01483
1.01994
1.02481
1.02944
1.03382
1.03795
1.04183
1.04546
1.04884
1.05197
1.05486
1.05749
1.05987
1.062
1.06387
1.0655
1.06689
1.06797
1.0685
1.07125
1.06647
1.07189
38.8452
-17.0727
4.86227
-0.413814
-0.0147482
0.117936
0.123744
0.137723
0.156077
0.174475
0.192677
0.2108
0.228865
0.246866
0.264796
0.28265
0.300423
0.318111
0.335708
0.353209
0.370611
0.387907
0.405093
0.422165
0.439118
0.455947
0.472649
0.489218
0.50565
0.521942
0.538088
0.554084
0.569928
0.585614
0.601138
0.616497
0.631688
0.646706
0.661547
0.676209
0.690687
0.704979
0.719081
0.732989
0.746701
0.760214
0.773525
0.78663
0.799527
0.812213
0.824685
0.836942
0.848979
0.860796
0.872389
0.883756
0.894895
0.905804
0.916481
0.926923
0.93713
0.947098
0.956827
0.966314
0.975558
0.984557
0.99331
1.00181
1.01007
1.01808
1.02583
1.03333
1.04058
1.04757
1.0543
1.06078
1.067
1.07296
1.07866
1.0841
1.08928
1.0942
1.09885
1.10324
1.10736
1.11122
1.11482
1.11815
1.12121
1.12401
1.12654
1.1288
1.13079
1.13252
1.134
1.13516
1.13573
1.13853
1.13373
1.13925
38.8457
-17.0711
4.86499
-0.410014
-0.00986349
0.123903
0.130792
0.14585
0.165281
0.184752
0.204025
0.223216
0.242345
0.261406
0.280392
0.299297
0.318118
0.336847
0.355481
0.374013
0.392439
0.410754
0.428952
0.44703
0.464981
0.482802
0.500487
0.518032
0.535432
0.552683
0.56978
0.586719
0.603496
0.620105
0.636544
0.652808
0.668893
0.684796
0.700511
0.716037
0.731368
0.746501
0.761434
0.776161
0.790681
0.80499
0.819084
0.832961
0.846618
0.860051
0.873258
0.886236
0.898983
0.911495
0.923771
0.935808
0.947603
0.959155
0.97046
0.981518
0.992325
1.00288
1.01318
1.02323
1.03302
1.04255
1.05181
1.06082
1.06956
1.07804
1.08625
1.09419
1.10187
1.10927
1.1164
1.12326
1.12985
1.13616
1.14219
1.14795
1.15344
1.15864
1.16357
1.16822
1.17259
1.17667
1.18048
1.18401
1.18725
1.19021
1.19289
1.19529
1.1974
1.19923
1.20079
1.20202
1.20265
1.20547
1.20072
1.20627
38.8463
-17.0695
4.86769
-0.406233
-0.00500352
0.12984
0.137804
0.153936
0.174438
0.194977
0.215316
0.235569
0.255757
0.275872
0.295909
0.315861
0.335723
0.355488
0.375153
0.394711
0.414157
0.433485
0.452691
0.471769
0.490714
0.509521
0.528185
0.546701
0.565064
0.583269
0.601312
0.619189
0.636894
0.654423
0.671771
0.688936
0.705911
0.722693
0.739279
0.755663
0.771843
0.787814
0.803572
0.819115
0.834438
0.849539
0.864413
0.879058
0.893471
0.907647
0.921585
0.935282
0.948734
0.961939
0.974894
0.987597
1.00004
1.01224
1.02417
1.03584
1.04724
1.05838
1.06925
1.07986
1.09019
1.10024
1.11002
1.11953
1.12875
1.1377
1.14637
1.15475
1.16285
1.17066
1.17819
1.18542
1.19237
1.19904
1.20541
1.21148
1.21727
1.22276
1.22796
1.23287
1.23748
1.24179
1.24581
1.24953
1.25295
1.25608
1.25891
1.26144
1.26367
1.2656
1.26724
1.26855
1.26924
1.27204
1.2674
1.27294
38.8468
-17.0679
4.87038
-0.402473
-0.000169608
0.135745
0.144779
0.161978
0.183545
0.205148
0.226546
0.247856
0.269096
0.290261
0.311343
0.332335
0.353233
0.37403
0.39472
0.415298
0.435759
0.456095
0.476303
0.496376
0.516309
0.536097
0.555734
0.575216
0.594536
0.613692
0.632676
0.651485
0.670113
0.688556
0.70681
0.724869
0.74273
0.760388
0.777838
0.795077
0.812101
0.828905
0.845485
0.861839
0.877961
0.89385
0.9095
0.924909
0.940073
0.954989
0.969654
0.984064
0.998218
1.01211
1.02574
1.03911
1.05221
1.06503
1.07759
1.08986
1.10186
1.11359
1.12502
1.13618
1.14705
1.15763
1.16792
1.17792
1.18763
1.19704
1.20616
1.21498
1.2235
1.23172
1.23964
1.24726
1.25457
1.26158
1.26828
1.27467
1.28076
1.28654
1.29201
1.29717
1.30202
1.30656
1.31079
1.31471
1.31831
1.3216
1.32457
1.32723
1.32958
1.33161
1.33334
1.33471
1.33547
1.33824
1.33375
1.33924
38.8473
-17.0663
4.87305
-0.398733
0.00463693
0.141617
0.151714
0.169975
0.192601
0.215261
0.237713
0.260073
0.282361
0.304569
0.326689
0.348717
0.370645
0.392467
0.414177
0.435769
0.457238
0.478577
0.499781
0.520843
0.541759
0.562522
0.583127
0.603569
0.623842
0.643942
0.663862
0.683598
0.703144
0.722497
0.74165
0.7606
0.779341
0.797869
0.816179
0.834268
0.852131
0.869763
0.887161
0.904321
0.921238
0.937909
0.954331
0.970499
0.986411
1.00206
1.01745
1.03257
1.04742
1.062
1.0763
1.09033
1.10407
1.11753
1.1307
1.14359
1.15618
1.16848
1.18048
1.19218
1.20359
1.21469
1.22549
1.23598
1.24617
1.25605
1.26561
1.27487
1.28381
1.29243
1.30074
1.30874
1.31641
1.32376
1.3308
1.33751
1.3439
1.34996
1.3557
1.36112
1.36621
1.37097
1.3754
1.37951
1.38329
1.38674
1.38987
1.39266
1.39512
1.39725
1.39907
1.40051
1.40134
1.40406
1.39975
1.40517
38.8479
-17.0647
4.87571
-0.395016
0.00941479
0.147453
0.158608
0.177925
0.201604
0.225313
0.248813
0.272217
0.295546
0.318791
0.341945
0.365001
0.387952
0.410793
0.433517
0.456118
0.478589
0.500925
0.523118
0.545164
0.567057
0.58879
0.610357
0.631754
0.652974
0.674011
0.694862
0.715519
0.735979
0.756235
0.776282
0.796117
0.815733
0.835126
0.854292
0.873226
0.891922
0.910378
0.928588
0.946549
0.964257
0.981707
0.998895
1.01582
1.03247
1.04886
1.06496
1.08079
1.09633
1.11159
1.12656
1.14124
1.15563
1.16972
1.1835
1.19699
1.21017
1.22304
1.2356
1.24786
1.25979
1.27141
1.28272
1.2937
1.30436
1.3147
1.32471
1.3344
1.34376
1.35279
1.36148
1.36985
1.37788
1.38558
1.39294
1.39997
1.40665
1.413
1.41901
1.42468
1.43
1.43499
1.43963
1.44393
1.44789
1.4515
1.45477
1.45769
1.46027
1.4625
1.4644
1.46591
1.46682
1.46947
1.46536
1.47069
38.8484
-17.0631
4.87835
-0.391322
0.0141627
0.153254
0.165459
0.185824
0.210549
0.235303
0.259843
0.284286
0.308648
0.332924
0.357104
0.381182
0.405152
0.429005
0.452737
0.476339
0.499807
0.523132
0.54631
0.569333
0.592196
0.614893
0.637416
0.659762
0.681922
0.703893
0.725668
0.747241
0.768607
0.789761
0.810698
0.831412
0.851898
0.872151
0.892166
0.911939
0.931464
0.950738
0.969756
0.988513
1.00701
1.02523
1.04318
1.06085
1.07825
1.09535
1.11218
1.1287
1.14494
1.16087
1.17651
1.19184
1.20686
1.22157
1.23597
1.25005
1.26382
1.27726
1.29038
1.30318
1.31564
1.32778
1.33959
1.35106
1.36219
1.37299
1.38344
1.39356
1.40333
1.41276
1.42185
1.43058
1.43897
1.44701
1.4547
1.46203
1.46902
1.47565
1.48192
1.48784
1.4934
1.49861
1.50346
1.50795
1.51208
1.51585
1.51927
1.52232
1.52501
1.52734
1.52932
1.53091
1.53189
1.53447
1.53057
1.5358
38.8489
-17.0615
4.88097
-0.387653
0.0188794
0.159016
0.172264
0.193671
0.219436
0.245227
0.270801
0.296274
0.321665
0.346964
0.372164
0.397258
0.422238
0.447097
0.47183
0.496428
0.520885
0.545194
0.569349
0.593344
0.617171
0.640824
0.664298
0.687585
0.710681
0.733578
0.756271
0.778754
0.801021
0.823068
0.844887
0.866474
0.887824
0.908931
0.929791
0.950398
0.970747
0.990833
1.01065
1.0302
1.04947
1.06847
1.08717
1.10559
1.12372
1.14155
1.15908
1.1763
1.19322
1.20983
1.22613
1.2421
1.25776
1.27309
1.2881
1.30277
1.31712
1.33113
1.3448
1.35814
1.37113
1.38378
1.39608
1.40803
1.41964
1.43089
1.44179
1.45233
1.46252
1.47234
1.48181
1.49091
1.49966
1.50803
1.51605
1.52369
1.53097
1.53788
1.54442
1.55059
1.55639
1.56181
1.56687
1.57155
1.57585
1.57978
1.58334
1.58652
1.58933
1.59176
1.59382
1.59547
1.59653
1.59904
1.59535
1.60049
38.8494
-17.06
4.88358
-0.384008
0.0235635
0.164738
0.179023
0.201465
0.228262
0.255082
0.281683
0.308181
0.334591
0.360907
0.38712
0.413222
0.439206
0.465065
0.490791
0.516378
0.541818
0.567104
0.59223
0.617188
0.641973
0.666577
0.690994
0.715217
0.739241
0.763058
0.786663
0.81005
0.833212
0.856144
0.878841
0.901296
0.923504
0.945459
0.967157
0.988592
1.00976
1.03065
1.05127
1.0716
1.09165
1.1114
1.13086
1.15002
1.16888
1.18742
1.20566
1.22358
1.24118
1.25845
1.2754
1.29202
1.3083
1.32425
1.33986
1.35513
1.37005
1.38462
1.39885
1.41272
1.42623
1.43939
1.45219
1.46462
1.47669
1.48839
1.49973
1.5107
1.52129
1.53151
1.54136
1.55083
1.55992
1.56864
1.57697
1.58493
1.5925
1.59968
1.60649
1.6129
1.61894
1.62458
1.62984
1.63471
1.63919
1.64328
1.64697
1.65028
1.6532
1.65573
1.65787
1.65959
1.66072
1.66317
1.65969
1.66473
38.85
-17.0584
4.88616
-0.38039
0.028214
0.170419
0.185733
0.209202
0.237024
0.264867
0.292488
0.320001
0.347425
0.37475
0.401969
0.429072
0.456052
0.482903
0.509616
0.536184
0.5626
0.588856
0.614946
0.640862
0.666597
0.692145
0.717498
0.742651
0.767596
0.792327
0.816837
0.841121
0.865171
0.888983
0.91255
0.935866
0.958926
0.981724
1.00425
1.02651
1.04849
1.07018
1.09159
1.11271
1.13352
1.15403
1.17424
1.19413
1.21371
1.23297
1.2519
1.27051
1.28878
1.30672
1.32432
1.34158
1.35849
1.37505
1.39125
1.40711
1.4226
1.43773
1.4525
1.4669
1.48094
1.4946
1.50789
1.5208
1.53333
1.54549
1.55726
1.56864
1.57964
1.59026
1.60048
1.61032
1.61976
1.62881
1.63746
1.64572
1.65358
1.66105
1.66811
1.67477
1.68104
1.6869
1.69236
1.69741
1.70206
1.70631
1.71015
1.71359
1.71662
1.71924
1.72147
1.72326
1.72446
1.72684
1.72356
1.72851
38.8505
-17.0569
4.88873
-0.376799
0.0328295
0.176057
0.192393
0.216881
0.245721
0.274578
0.303211
0.331733
0.360162
0.388489
0.416705
0.444802
0.472772
0.500607
0.528299
0.555842
0.583226
0.610445
0.637491
0.664357
0.691036
0.71752
0.743803
0.769878
0.795737
0.821375
0.846784
0.871958
0.89689
0.921575
0.946006
0.970177
0.994082
1.01772
1.04107
1.06414
1.08693
1.10942
1.13161
1.1535
1.17508
1.19634
1.21729
1.23791
1.25821
1.27817
1.2978
1.31709
1.33603
1.35463
1.37287
1.39076
1.40829
1.42546
1.44226
1.4587
1.47476
1.49044
1.50575
1.52069
1.53523
1.5494
1.56317
1.57656
1.58955
1.60215
1.61435
1.62615
1.63756
1.64856
1.65916
1.66936
1.67915
1.68853
1.6975
1.70606
1.71421
1.72194
1.72927
1.73618
1.74267
1.74874
1.7544
1.75964
1.76447
1.76887
1.77285
1.77641
1.77956
1.78228
1.78458
1.78644
1.78771
1.79004
1.78695
1.79181
38.851
-17.0553
4.89127
-0.373236
0.0374088
0.181652
0.199001
0.2245
0.254349
0.284213
0.313849
0.343373
0.3728
0.402121
0.431327
0.46041
0.489361
0.518173
0.546837
0.575345
0.60369
0.631864
0.659859
0.687668
0.715283
0.742697
0.769902
0.796892
0.823659
0.850196
0.876496
0.902554
0.928361
0.953912
0.9792
1.00422
1.02896
1.05343
1.0776
1.10148
1.12507
1.14835
1.17132
1.19397
1.21631
1.23832
1.26
1.28135
1.30236
1.32302
1.34334
1.3633
1.38291
1.40216
1.42105
1.43956
1.45771
1.47548
1.49287
1.50988
1.5265
1.54274
1.55859
1.57404
1.5891
1.60376
1.61802
1.63187
1.64532
1.65836
1.671
1.68321
1.69502
1.70641
1.71738
1.72793
1.73807
1.74778
1.75706
1.76592
1.77436
1.78237
1.78995
1.7971
1.80382
1.81011
1.81597
1.82139
1.82638
1.83094
1.83506
1.83875
1.842
1.84482
1.84721
1.84913
1.85047
1.85274
1.84983
1.85462
38.8515
-17.0538
4.8938
-0.369703
0.0419508
0.1872
0.205554
0.232057
0.262907
0.293769
0.324402
0.354918
0.385334
0.415641
0.445829
0.47589
0.505814
0.535595
0.565223
0.59469
0.623988
0.653109
0.682045
0.710789
0.739333
0.767668
0.795788
0.823685
0.851352
0.878781
0.905966
0.9329
0.959575
0.985985
1.01212
1.03798
1.06356
1.08884
1.11383
1.13852
1.1629
1.18696
1.2107
1.23412
1.25721
1.27996
1.30237
1.32443
1.34615
1.36751
1.38851
1.40914
1.42941
1.44931
1.46882
1.48796
1.50672
1.52509
1.54306
1.56065
1.57783
1.59461
1.61099
1.62697
1.64253
1.65769
1.67242
1.68674
1.70064
1.71412
1.72718
1.73981
1.75201
1.76378
1.77513
1.78603
1.79651
1.80654
1.81614
1.8253
1.83402
1.8423
1.85013
1.85752
1.86447
1.87097
1.87703
1.88263
1.88779
1.8925
1.89677
1.90058
1.90394
1.90685
1.90932
1.91131
1.91272
1.91494
1.91219
1.91692
38.852
-17.0523
4.8963
-0.366199
0.0464543
0.192702
0.212052
0.23955
0.271392
0.303244
0.334864
0.366365
0.397762
0.429047
0.460208
0.491239
0.522128
0.552869
0.583453
0.61387
0.644113
0.674174
0.704043
0.733714
0.763178
0.792428
0.821455
0.850251
0.878811
0.907125
0.935186
0.962989
0.990524
1.01779
1.04477
1.07146
1.09786
1.12396
1.14976
1.17524
1.2004
1.22524
1.24975
1.27392
1.29775
1.32124
1.34437
1.36715
1.38956
1.41161
1.43329
1.45459
1.47551
1.49605
1.5162
1.53596
1.55532
1.57428
1.59283
1.61098
1.62872
1.64605
1.66295
1.67944
1.69551
1.71115
1.72636
1.74115
1.7555
1.76941
1.78289
1.79593
1.80852
1.82067
1.83238
1.84364
1.85445
1.86481
1.87472
1.88417
1.89318
1.90172
1.90981
1.91744
1.92461
1.93132
1.93757
1.94336
1.94868
1.95355
1.95795
1.96188
1.96535
1.96836
1.9709
1.97296
1.97444
1.97662
1.97402
1.97869
38.8525
-17.0508
4.89878
-0.362726
0.0509181
0.198155
0.218493
0.246977
0.279802
0.312636
0.345235
0.377711
0.410081
0.442334
0.474461
0.506452
0.538299
0.569991
0.601522
0.632881
0.664061
0.695053
0.725847
0.756437
0.786814
0.816969
0.846895
0.876584
0.906027
0.935218
0.964149
0.992812
1.0212
1.04931
1.07712
1.10464
1.13186
1.15877
1.18537
1.21164
1.23758
1.26319
1.28845
1.31338
1.33795
1.36216
1.38601
1.40949
1.4326
1.45533
1.47768
1.49964
1.52121
1.54238
1.56316
1.58352
1.60348
1.62303
1.64216
1.66087
1.67916
1.69702
1.71446
1.73146
1.74802
1.76415
1.77983
1.79507
1.80987
1.82421
1.83811
1.85155
1.86453
1.87706
1.88913
1.90074
1.91188
1.92257
1.93278
1.94253
1.95181
1.96062
1.96896
1.97682
1.98422
1.99114
1.99758
2.00355
2.00904
2.01405
2.01859
2.02265
2.02622
2.02932
2.03195
2.03407
2.03561
2.03776
2.0353
2.03993
38.853
-17.0494
4.90124
-0.359284
0.055341
0.203558
0.224875
0.254335
0.288136
0.321942
0.35551
0.388953
0.422287
0.4555
0.488583
0.521526
0.554321
0.586957
0.619426
0.651719
0.683827
0.715741
0.747452
0.778952
0.810233
0.841286
0.872103
0.902675
0.932995
0.963055
0.992847
1.02236
1.0516
1.08054
1.10918
1.13752
1.16555
1.19326
1.22065
1.2477
1.27442
1.30079
1.32681
1.35247
1.37777
1.4027
1.42726
1.45144
1.47524
1.49865
1.52166
1.54428
1.56649
1.58829
1.60968
1.63066
1.65121
1.67134
1.69104
1.71031
1.72914
1.74754
1.76549
1.78299
1.80005
1.81666
1.83281
1.8485
1.86374
1.87851
1.89282
1.90666
1.92003
1.93293
1.94536
1.95732
1.96879
1.97979
1.99031
2.00035
2.00991
2.01898
2.02757
2.03567
2.04328
2.05041
2.05704
2.06319
2.06884
2.07401
2.07868
2.08286
2.08654
2.08973
2.09243
2.09462
2.09623
2.09835
2.09601
2.1006
38.8535
-17.0479
4.90368
-0.355876
0.059722
0.20891
0.231197
0.261624
0.296391
0.33116
0.365689
0.400089
0.434377
0.468541
0.502571
0.536458
0.570191
0.603762
0.63716
0.670378
0.703405
0.736232
0.768852
0.801254
0.83343
0.865372
0.897071
0.928519
0.959707
0.990627
1.02127
1.05163
1.0817
1.11148
1.14094
1.17009
1.19892
1.22743
1.2556
1.28342
1.3109
1.33803
1.36479
1.39119
1.41722
1.44286
1.46813
1.493
1.51748
1.54156
1.56523
1.58849
1.61134
1.63377
1.65577
1.67734
1.69849
1.71919
1.73946
1.75928
1.77865
1.79757
1.81604
1.83404
1.85159
1.86867
1.88528
1.90143
1.9171
1.93229
1.94701
1.96125
1.975
1.98828
2.00106
2.01336
2.02516
2.03648
2.0473
2.05762
2.06745
2.07679
2.08562
2.09395
2.10178
2.10911
2.11594
2.12226
2.12808
2.13339
2.1382
2.14249
2.14628
2.14957
2.15234
2.15459
2.15626
2.15837
2.15614
2.16071
38.8539
-17.0465
4.90609
-0.3525
0.06406
0.214209
0.237456
0.268842
0.304564
0.340287
0.375767
0.411116
0.446348
0.481454
0.516422
0.551243
0.585905
0.620401
0.65472
0.688853
0.722791
0.756523
0.790041
0.823336
0.8564
0.889222
0.921794
0.954109
0.986156
1.01793
1.04942
1.08062
1.11152
1.14211
1.17238
1.20234
1.23197
1.26125
1.2902
1.31879
1.34703
1.3749
1.40241
1.42953
1.45627
1.48263
1.50859
1.53415
1.5593
1.58404
1.60837
1.63227
1.65575
1.67879
1.7014
1.72357
1.7453
1.76657
1.7874
1.80776
1.82767
1.84711
1.86609
1.88459
1.90262
1.92017
1.93724
1.95383
1.96993
1.98555
2.00067
2.0153
2.02944
2.04307
2.05621
2.06885
2.08098
2.09261
2.10372
2.11434
2.12444
2.13403
2.1431
2.15167
2.15971
2.16725
2.17426
2.18076
2.18673
2.19219
2.19713
2.20155
2.20544
2.20882
2.21167
2.21398
2.21571
2.2178
2.21568
2.22022
38.8544
-17.045
4.90848
-0.34916
0.0683538
0.219455
0.243651
0.275986
0.312654
0.349321
0.385742
0.42203
0.458198
0.494235
0.530132
0.565877
0.60146
0.636872
0.672102