/*--------------------------------*- C++ -*----------------------------------*\
  =========                 |
  \\      /  F ield         | OpenFOAM: The Open Source CFD Toolbox
   \\    /   O peration     | Website:  https://openfoam.org
    \\  /    A nd           | Version:  10
     \\/     M anipulation  |
\*---------------------------------------------------------------------------*/
FoamFile
{
    format      ascii;
    class       volScalarField;
    location    "48";
    object      T_0;
}
// * * * * * * * * * * * * * * * * * * * * * * * * * * * * * * * * * * * * * //

dimensions      [0 0 0 1 0 0 0];

internalField   nonuniform List<scalar> 
10000
(
374.99
361.31
356.643
354.605
353.506
352.817
352.342
351.99
351.719
351.501
351.321
351.17
351.04
350.927
350.827
350.737
350.657
350.583
350.516
350.454
350.396
350.342
350.291
350.243
350.198
350.155
350.115
350.076
350.038
350.003
349.968
349.935
349.903
349.872
349.843
349.814
349.786
349.759
349.732
349.707
349.682
349.657
349.634
349.611
349.588
349.567
349.545
349.525
349.504
349.485
349.465
349.447
349.428
349.41
349.393
349.376
349.36
349.343
349.328
349.313
349.298
349.283
349.269
349.256
349.242
349.229
349.217
349.205
349.193
349.182
349.171
349.16
349.15
349.14
349.131
349.122
349.113
349.105
349.097
349.09
349.082
349.076
349.069
349.063
349.057
349.052
349.047
349.042
349.038
349.034
349.031
349.028
349.025
349.022
349.02
349.019
349.017
349.016
349.016
349.016
388.634
374.915
367.299
362.876
360.106
358.239
356.9
355.892
355.103
354.465
353.936
353.489
353.104
352.768
352.47
352.204
351.963
351.744
351.543
351.357
351.184
351.023
350.871
350.728
350.593
350.465
350.343
350.226
350.114
350.007
349.904
349.805
349.709
349.617
349.528
349.441
349.357
349.276
349.197
349.12
349.045
348.972
348.902
348.833
348.765
348.7
348.636
348.574
348.513
348.454
348.396
348.34
348.285
348.232
348.179
348.129
348.079
348.031
347.984
347.938
347.894
347.85
347.808
347.767
347.728
347.689
347.652
347.615
347.58
347.546
347.514
347.482
347.451
347.422
347.394
347.367
347.341
347.316
347.292
347.269
347.248
347.227
347.208
347.19
347.173
347.156
347.142
347.128
347.115
347.103
347.093
347.083
347.075
347.068
347.062
347.057
347.053
347.05
347.048
347.048
393.262
382.417
374.763
369.495
365.804
363.133
361.129
359.575
358.335
357.319
356.47
355.746
355.12
354.571
354.083
353.645
353.249
352.888
352.555
352.248
351.962
351.694
351.443
351.206
350.982
350.769
350.566
350.372
350.186
350.008
349.837
349.672
349.513
349.359
349.211
349.066
348.927
348.791
348.66
348.532
348.407
348.286
348.168
348.054
347.942
347.833
347.726
347.623
347.522
347.423
347.327
347.233
347.142
347.053
346.966
346.881
346.799
346.718
346.64
346.564
346.49
346.417
346.347
346.279
346.213
346.149
346.086
346.026
345.968
345.911
345.857
345.804
345.753
345.704
345.657
345.612
345.568
345.527
345.487
345.449
345.414
345.379
345.347
345.317
345.288
345.262
345.237
345.214
345.192
345.173
345.155
345.14
345.126
345.114
345.104
345.095
345.089
345.084
345.081
345.08
395.262
386.726
379.843
374.537
370.483
367.359
364.908
362.945
361.343
360.008
358.878
357.907
357.06
356.312
355.646
355.046
354.501
354.003
353.544
353.118
352.722
352.351
352.002
351.672
351.36
351.064
350.781
350.511
350.252
350.004
349.765
349.535
349.313
349.098
348.89
348.689
348.494
348.305
348.121
347.942
347.768
347.599
347.434
347.274
347.117
346.965
346.816
346.671
346.53
346.392
346.258
346.126
345.999
345.874
345.752
345.634
345.518
345.406
345.296
345.19
345.086
344.985
344.887
344.792
344.699
344.609
344.522
344.438
344.356
344.277
344.2
344.127
344.055
343.987
343.921
343.858
343.797
343.739
343.684
343.631
343.58
343.533
343.488
343.445
343.405
343.368
343.333
343.301
343.271
343.244
343.219
343.197
343.178
343.161
343.147
343.135
343.126
343.119
343.115
343.114
396.324
389.383
383.344
378.325
374.234
370.912
368.198
365.957
364.082
362.494
361.129
359.943
358.901
357.974
357.144
356.392
355.708
355.079
354.499
353.961
353.458
352.986
352.542
352.123
351.725
351.347
350.986
350.641
350.31
349.992
349.686
349.392
349.107
348.832
348.566
348.308
348.058
347.815
347.579
347.35
347.127
346.91
346.698
346.492
346.291
346.096
345.905
345.719
345.537
345.36
345.188
345.019
344.855
344.695
344.539
344.387
344.239
344.094
343.953
343.816
343.683
343.553
343.427
343.305
343.186
343.07
342.959
342.85
342.745
342.643
342.545
342.45
342.359
342.271
342.186
342.105
342.027
341.953
341.881
341.813
341.749
341.687
341.629
341.575
341.523
341.475
341.431
341.389
341.351
341.316
341.285
341.256
341.231
341.21
341.191
341.176
341.165
341.156
341.151
341.149
396.975
391.137
385.827
381.186
377.217
373.857
371.015
368.602
366.537
364.755
363.203
361.838
360.626
359.542
358.563
357.673
356.859
356.11
355.415
354.769
354.164
353.596
353.061
352.554
352.073
351.614
351.177
350.758
350.357
349.971
349.599
349.241
348.895
348.56
348.236
347.922
347.618
347.322
347.034
346.755
346.483
346.218
345.96
345.709
345.464
345.225
344.993
344.766
344.544
344.328
344.118
343.912
343.712
343.516
343.326
343.14
342.959
342.783
342.611
342.444
342.281
342.123
341.969
341.819
341.674
341.533
341.396
341.264
341.136
341.011
340.892
340.776
340.664
340.557
340.453
340.354
340.259
340.168
340.081
339.998
339.919
339.844
339.773
339.706
339.644
339.585
339.53
339.48
339.433
339.391
339.352
339.318
339.287
339.261
339.238
339.22
339.205
339.195
339.189
339.186
397.413
392.362
387.643
383.373
379.592
376.285
373.406
370.899
368.71
366.788
365.09
363.579
362.226
361.004
359.895
358.881
357.948
357.086
356.285
355.537
354.836
354.176
353.552
352.961
352.399
351.864
351.352
350.861
350.391
349.938
349.502
349.081
348.674
348.281
347.9
347.53
347.172
346.824
346.485
346.156
345.836
345.524
345.22
344.924
344.635
344.354
344.079
343.812
343.55
343.296
343.047
342.805
342.568
342.338
342.113
341.894
341.68
341.472
341.269
341.072
340.88
340.693
340.511
340.335
340.163
339.997
339.836
339.679
339.528
339.381
339.24
339.103
338.971
338.844
338.722
338.605
338.493
338.385
338.282
338.184
338.091
338.003
337.919
337.84
337.766
337.697
337.633
337.573
337.518
337.468
337.422
337.381
337.345
337.314
337.288
337.266
337.249
337.237
337.229
337.226
397.726
393.258
389.008
385.072
381.495
378.285
375.424
372.88
370.617
368.599
366.792
365.166
363.695
362.357
361.133
360.008
358.969
358.004
357.104
356.262
355.469
354.722
354.015
353.343
352.703
352.093
351.508
350.948
350.41
349.892
349.393
348.911
348.444
347.993
347.556
347.132
346.72
346.32
345.931
345.553
345.185
344.826
344.477
344.136
343.804
343.48
343.164
342.856
342.556
342.262
341.976
341.697
341.425
341.159
340.9
340.648
340.402
340.162
339.929
339.701
339.48
339.265
339.055
338.852
338.654
338.463
338.277
338.096
337.922
337.753
337.59
337.433
337.281
337.134
336.994
336.859
336.729
336.605
336.487
336.374
336.266
336.165
336.068
335.977
335.892
335.812
335.738
335.669
335.605
335.547
335.495
335.448
335.407
335.371
335.34
335.315
335.295
335.281
335.273
335.269
397.96
393.935
390.061
386.412
383.032
379.937
377.125
374.58
372.28
370.2
368.314
366.598
365.032
363.597
362.275
361.053
359.918
358.859
357.869
356.938
356.061
355.231
354.444
353.695
352.981
352.299
351.645
351.017
350.413
349.832
349.271
348.729
348.204
347.696
347.204
346.726
346.262
345.811
345.372
344.945
344.53
344.125
343.73
343.346
342.97
342.605
342.248
341.899
341.56
341.228
340.905
340.589
340.281
339.981
339.688
339.403
339.124
338.853
338.589
338.332
338.081
337.838
337.601
337.371
337.147
336.93
336.72
336.516
336.318
336.127
335.943
335.765
335.593
335.427
335.268
335.115
334.968
334.828
334.694
334.566
334.445
334.329
334.22
334.117
334.021
333.93
333.846
333.768
333.696
333.631
333.571
333.518
333.471
333.43
333.396
333.367
333.345
333.329
333.319
333.316
398.14
394.46
390.889
387.484
384.283
381.307
378.561
376.038
373.726
371.608
369.667
367.884
366.242
364.725
363.32
362.012
360.792
359.65
358.576
357.565
356.608
355.701
354.839
354.017
353.232
352.48
351.759
351.066
350.399
349.756
349.134
348.534
347.952
347.389
346.843
346.312
345.796
345.295
344.807
344.333
343.87
343.42
342.98
342.552
342.134
341.727
341.329
340.941
340.563
340.193
339.833
339.481
339.138
338.803
338.477
338.158
337.848
337.545
337.251
336.964
336.685
336.413
336.149
335.892
335.642
335.4
335.165
334.938
334.718
334.504
334.298
334.099
333.908
333.723
333.545
333.374
333.211
333.054
332.905
332.762
332.626
332.497
332.376
332.261
332.153
332.052
331.958
331.871
331.791
331.718
331.652
331.592
331.54
331.494
331.456
331.424
331.399
331.381
331.37
331.366
398.283
394.876
391.551
388.352
385.311
382.449
379.773
377.285
374.978
372.842
370.864
369.03
367.328
365.745
364.268
362.887
361.592
360.374
359.226
358.139
357.109
356.13
355.197
354.306
353.453
352.636
351.85
351.094
350.366
349.663
348.983
348.325
347.688
347.071
346.471
345.889
345.323
344.772
344.236
343.714
343.206
342.71
342.227
341.755
341.295
340.847
340.409
339.982
339.565
339.158
338.76
338.373
337.994
337.625
337.266
336.915
336.572
336.239
335.914
335.597
335.289
334.99
334.698
334.415
334.14
333.873
333.614
333.363
333.119
332.884
332.657
332.437
332.226
332.022
331.826
331.638
331.457
331.284
331.119
330.962
330.812
330.67
330.535
330.409
330.29
330.178
330.074
329.978
329.89
329.809
329.736
329.671
329.613
329.562
329.52
329.485
329.458
329.438
329.426
329.421
398.397
395.212
392.089
389.063
386.162
383.404
380.8
378.353
376.062
373.919
371.917
370.047
368.299
366.661
365.124
363.68
362.319
361.033
359.816
358.662
357.564
356.517
355.518
354.562
353.645
352.764
351.917
351.1
350.313
349.552
348.816
348.103
347.411
346.741
346.089
345.456
344.841
344.242
343.658
343.09
342.536
341.996
341.469
340.955
340.454
339.964
339.487
339.02
338.565
338.121
337.687
337.264
336.851
336.448
336.055
335.672
335.298
334.934
334.579
334.233
333.896
333.569
333.25
332.941
332.64
332.348
332.065
331.79
331.525
331.268
331.019
330.779
330.548
330.325
330.11
329.905
329.707
329.518
329.338
329.165
329.002
328.846
328.699
328.561
328.431
328.309
328.195
328.09
327.994
327.905
327.825
327.754
327.69
327.636
327.589
327.551
327.521
327.499
327.486
327.481
398.489
395.485
392.529
389.65
386.871
384.208
381.672
379.268
376.997
374.857
372.842
370.946
369.161
367.479
365.892
364.392
362.973
361.627
360.349
359.132
357.971
356.862
355.801
354.783
353.805
352.864
351.958
351.084
350.239
349.422
348.631
347.865
347.121
346.398
345.697
345.014
344.35
343.703
343.073
342.459
341.86
341.277
340.707
340.151
339.609
339.079
338.562
338.057
337.565
337.084
336.614
336.156
335.708
335.271
334.845
334.43
334.025
333.63
333.245
332.87
332.505
332.15
331.805
331.469
331.143
330.826
330.519
330.222
329.933
329.655
329.385
329.125
328.874
328.632
328.399
328.176
327.962
327.757
327.561
327.374
327.196
327.028
326.868
326.718
326.577
326.445
326.321
326.207
326.103
326.007
325.92
325.842
325.774
325.714
325.663
325.622
325.589
325.566
325.552
325.546
398.566
395.71
392.893
390.138
387.464
384.885
382.412
380.051
377.805
375.673
373.651
371.736
369.923
368.204
366.575
365.028
363.558
362.158
360.824
359.55
358.332
357.165
356.045
354.969
353.934
352.936
351.974
351.044
350.145
349.274
348.43
347.611
346.816
346.043
345.292
344.561
343.85
343.156
342.481
341.822
341.179
340.552
339.941
339.344
338.761
338.191
337.636
337.093
336.563
336.045
335.54
335.047
334.565
334.095
333.637
333.189
332.753
332.328
331.914
331.51
331.117
330.734
330.362
330.001
329.649
329.308
328.977
328.657
328.346
328.045
327.755
327.474
327.204
326.943
326.693
326.452
326.221
326
325.789
325.588
325.396
325.214
325.042
324.88
324.728
324.586
324.453
324.33
324.217
324.114
324.02
323.936
323.862
323.798
323.744
323.699
323.664
323.639
323.623
323.617
398.629
395.897
393.196
390.546
387.962
385.458
383.043
380.722
378.501
376.379
374.356
372.428
370.593
368.844
367.179
365.591
364.076
362.628
361.244
359.918
358.647
357.426
356.251
355.121
354.032
352.98
351.964
350.981
350.029
349.106
348.211
347.341
346.497
345.675
344.876
344.098
343.34
342.601
341.881
341.178
340.492
339.823
339.17
338.532
337.909
337.301
336.707
336.127
335.56
335.006
334.466
333.938
333.423
332.92
332.429
331.95
331.483
331.028
330.584
330.152
329.731
329.321
328.923
328.535
328.159
327.794
327.439
327.096
326.763
326.441
326.129
325.829
325.539
325.26
324.991
324.733
324.486
324.249
324.022
323.807
323.601
323.407
323.222
323.049
322.885
322.733
322.591
322.459
322.338
322.227
322.126
322.037
321.957
321.888
321.83
321.782
321.745
321.718
321.701
321.695
398.681
396.053
393.45
390.889
388.383
385.943
383.579
381.297
379.1
376.99
374.968
373.032
371.179
369.406
367.71
366.086
364.531
363.04
361.61
360.237
358.916
357.645
356.42
355.239
354.098
352.995
351.927
350.893
349.891
348.918
347.974
347.056
346.163
345.294
344.448
343.624
342.82
342.037
341.273
340.527
339.799
339.089
338.395
337.717
337.055
336.408
335.776
335.159
334.556
333.967
333.392
332.83
332.281
331.745
331.223
330.713
330.215
329.73
329.257
328.797
328.348
327.912
327.487
327.074
326.673
326.283
325.905
325.539
325.184
324.841
324.509
324.188
323.879
323.581
323.295
323.02
322.756
322.503
322.262
322.032
321.813
321.605
321.408
321.223
321.049
320.886
320.734
320.594
320.465
320.346
320.239
320.144
320.059
319.985
319.923
319.872
319.832
319.803
319.786
319.779
398.725
396.184
393.663
391.177
388.738
386.355
384.036
381.788
379.614
377.517
375.497
373.555
371.688
369.894
368.172
366.517
364.926
363.397
361.925
360.508
359.142
357.825
356.552
355.323
354.133
352.981
351.865
350.783
349.732
348.711
347.719
346.754
345.814
344.899
344.008
343.139
342.291
341.464
340.657
339.87
339.1
338.349
337.615
336.898
336.197
335.512
334.843
334.19
333.551
332.927
332.317
331.721
331.14
330.572
330.018
329.477
328.949
328.435
327.933
327.444
326.969
326.505
326.055
325.616
325.19
324.777
324.376
323.987
323.61
323.246
322.893
322.553
322.225
321.909
321.604
321.312
321.032
320.764
320.507
320.263
320.03
319.81
319.601
319.404
319.219
319.046
318.885
318.736
318.599
318.473
318.359
318.258
318.168
318.09
318.023
317.969
317.927
317.896
317.877
317.87
398.762
396.293
393.842
391.421
389.038
386.704
384.425
382.207
380.054
377.969
375.953
374.006
372.128
370.317
368.571
366.888
365.266
363.701
362.192
360.735
359.327
357.965
356.649
355.374
354.138
352.94
351.777
350.648
349.551
348.484
347.446
346.435
345.451
344.491
343.556
342.643
341.752
340.883
340.034
339.205
338.395
337.604
336.831
336.075
335.336
334.614
333.909
333.219
332.545
331.886
331.242
330.614
330
329.4
328.814
328.243
327.686
327.142
326.612
326.095
325.592
325.103
324.626
324.163
323.713
323.275
322.851
322.44
322.042
321.656
321.283
320.924
320.576
320.242
319.92
319.611
319.314
319.031
318.759
318.501
318.255
318.021
317.801
317.592
317.397
317.214
317.043
316.885
316.74
316.607
316.487
316.379
316.284
316.201
316.131
316.074
316.029
315.997
315.977
315.969
398.793
396.386
393.993
391.626
389.292
386.999
384.755
382.563
380.429
378.355
376.342
374.392
372.504
370.678
368.912
367.204
365.553
363.957
362.412
360.918
359.471
358.069
356.71
355.393
354.114
352.872
351.665
350.491
349.35
348.238
347.156
346.101
345.073
344.07
343.091
342.136
341.204
340.293
339.403
338.534
337.684
336.854
336.042
335.248
334.472
333.713
332.972
332.247
331.538
330.845
330.168
329.507
328.86
328.229
327.613
327.011
326.424
325.852
325.294
324.75
324.22
323.704
323.202
322.714
322.239
321.779
321.332
320.898
320.479
320.072
319.679
319.3
318.934
318.581
318.242
317.916
317.604
317.305
317.019
316.746
316.487
316.241
316.008
315.788
315.582
315.389
315.209
315.042
314.889
314.749
314.622
314.509
314.408
314.321
314.247
314.187
314.139
314.105
314.084
314.077
398.819
396.463
394.12
391.798
389.506
387.249
385.034
382.865
380.747
378.683
376.674
374.72
372.824
370.984
369.199
367.469
365.792
364.166
362.589
361.06
359.577
358.137
356.739
355.381
354.061
352.777
351.528
350.312
349.127
347.973
346.848
345.751
344.68
343.636
342.615
341.619
340.645
339.694
338.765
337.856
336.967
336.098
335.249
334.418
333.605
332.81
332.033
331.273
330.53
329.804
329.094
328.4
327.722
327.06
326.413
325.782
325.166
324.565
323.979
323.408
322.851
322.31
321.782
321.27
320.771
320.287
319.818
319.363
318.921
318.494
318.082
317.683
317.298
316.928
316.571
316.229
315.9
315.586
315.285
314.999
314.726
314.467
314.223
313.992
313.775
313.572
313.383
313.208
313.047
312.899
312.766
312.647
312.541
312.45
312.372
312.308
312.258
312.223
312.201
312.192
398.841
396.528
394.226
391.943
389.685
387.458
385.268
383.12
381.016
378.959
376.952
374.996
373.092
371.239
369.438
367.687
365.985
364.332
362.726
361.164
359.647
358.171
356.736
355.34
353.981
352.657
351.367
350.111
348.885
347.69
346.524
345.385
344.274
343.188
342.128
341.091
340.078
339.087
338.118
337.171
336.244
335.338
334.451
333.584
332.735
331.905
331.093
330.299
329.522
328.763
328.02
327.295
326.586
325.893
325.216
324.555
323.91
323.281
322.668
322.07
321.487
320.92
320.368
319.831
319.309
318.802
318.31
317.833
317.37
316.923
316.491
316.073
315.67
315.281
314.908
314.549
314.204
313.875
313.56
313.259
312.973
312.702
312.446
312.204
311.976
311.764
311.565
311.382
311.213
311.059
310.919
310.794
310.683
310.587
310.506
310.439
310.387
310.349
310.326
310.317
398.86
396.582
394.315
392.064
389.835
387.634
385.465
383.332
381.239
379.189
377.184
375.225
373.313
371.448
369.631
367.861
366.137
364.458
362.824
361.232
359.683
358.173
356.703
355.27
353.874
352.512
351.184
349.888
348.623
347.389
346.183
345.005
343.854
342.728
341.628
340.553
339.501
338.472
337.465
336.48
335.516
334.573
333.65
332.747
331.863
330.998
330.152
329.324
328.514
327.722
326.948
326.191
325.451
324.727
324.021
323.331
322.658
322.001
321.361
320.736
320.127
319.535
318.958
318.397
317.852
317.322
316.808
316.309
315.826
315.359
314.906
314.47
314.048
313.642
313.252
312.876
312.516
312.172
311.842
311.528
311.229
310.946
310.678
310.425
310.187
309.964
309.757
309.565
309.388
309.227
309.081
308.95
308.834
308.734
308.649
308.579
308.524
308.485
308.461
308.452
398.875
396.627
394.389
392.164
389.959
387.779
385.627
383.508
381.424
379.379
377.374
375.411
373.492
371.616
369.783
367.995
366.25
364.547
362.886
361.266
359.686
358.145
356.642
355.174
353.742
352.344
350.979
349.646
348.343
347.07
345.826
344.609
343.42
342.256
341.118
340.005
338.915
337.848
336.804
335.783
334.782
333.803
332.845
331.906
330.988
330.089
329.209
328.348
327.506
326.682
325.876
325.088
324.317
323.565
322.829
322.111
321.41
320.725
320.058
319.407
318.773
318.155
317.554
316.969
316.4
315.848
315.312
314.792
314.289
313.801
313.33
312.874
312.435
312.011
311.604
311.212
310.837
310.477
310.134
309.806
309.494
309.198
308.918
308.654
308.406
308.174
307.958
307.758
307.573
307.405
307.252
307.116
306.995
306.89
306.802
306.729
306.672
306.631
306.605
306.596
398.887
396.664
394.449
392.246
390.061
387.897
385.759
383.651
381.574
379.532
377.527
375.56
373.632
371.745
369.898
368.092
366.327
364.601
362.916
361.269
359.66
358.088
356.553
355.053
353.587
352.154
350.753
349.384
348.045
346.735
345.454
344.2
342.973
341.773
340.597
339.447
338.32
337.217
336.137
335.079
334.044
333.029
332.036
331.063
330.111
329.178
328.266
327.372
326.498
325.642
324.805
323.987
323.187
322.404
321.64
320.894
320.165
319.453
318.759
318.083
317.423
316.781
316.155
315.547
314.956
314.381
313.824
313.283
312.759
312.251
311.761
311.287
310.829
310.388
309.964
309.557
309.166
308.792
308.434
308.093
307.768
307.46
307.169
306.894
306.636
306.394
306.169
305.96
305.769
305.593
305.434
305.292
305.166
305.057
304.965
304.889
304.83
304.787
304.761
304.751
398.897
396.694
394.498
392.313
390.143
387.993
385.866
383.765
381.693
379.652
377.645
375.674
373.738
371.839
369.979
368.156
366.371
364.624
362.914
361.242
359.605
358.005
356.439
354.907
353.408
351.942
350.507
349.103
347.729
346.384
345.067
343.777
342.514
341.278
340.066
338.88
337.718
336.579
335.464
334.371
333.3
332.251
331.224
330.218
329.232
328.267
327.321
326.396
325.49
324.604
323.736
322.888
322.058
321.247
320.454
319.68
318.924
318.186
317.466
316.763
316.079
315.412
314.763
314.132
313.518
312.921
312.342
311.78
311.236
310.709
310.2
309.707
309.232
308.774
308.334
307.91
307.504
307.116
306.744
306.389
306.052
305.732
305.429
305.144
304.875
304.624
304.39
304.174
303.974
303.792
303.627
303.479
303.348
303.235
303.139
303.06
302.998
302.954
302.927
302.917
398.905
396.718
394.536
392.365
390.208
388.068
385.949
383.853
381.784
379.744
377.734
375.756
373.812
371.902
370.028
368.189
366.385
364.617
362.884
361.187
359.524
357.896
356.301
354.739
353.209
351.71
350.243
348.805
347.397
346.018
344.666
343.342
342.044
340.772
339.526
338.304
337.107
335.934
334.784
333.657
332.552
331.47
330.409
329.37
328.351
327.354
326.377
325.42
324.483
323.566
322.669
321.791
320.932
320.093
319.272
318.471
317.688
316.923
316.177
315.45
314.741
314.05
313.377
312.723
312.087
311.468
310.868
310.286
309.722
309.175
308.647
308.137
307.644
307.169
306.712
306.273
305.852
305.449
305.064
304.696
304.346
304.014
303.7
303.404
303.126
302.865
302.622
302.398
302.191
302.002
301.83
301.677
301.542
301.424
301.324
301.242
301.178
301.132
301.104
301.094
398.911
396.736
394.566
392.405
390.257
388.125
386.011
383.919
381.851
379.809
377.795
375.811
373.858
371.937
370.048
368.193
366.371
364.583
362.828
361.107
359.419
357.764
356.141
354.549
352.989
351.46
349.961
348.491
347.05
345.637
344.252
342.894
341.562
340.256
338.976
337.72
336.489
335.282
334.098
332.938
331.8
330.685
329.591
328.52
327.469
326.44
325.432
324.444
323.477
322.531
321.604
320.697
319.81
318.942
318.094
317.265
316.456
315.666
314.894
314.142
313.409
312.694
311.998
311.321
310.663
310.023
309.402
308.8
308.216
307.65
307.103
306.575
306.065
305.574
305.101
304.646
304.21
303.793
303.394
303.013
302.651
302.307
301.982
301.675
301.387
301.117
300.866
300.633
300.419
300.223
300.046
299.887
299.746
299.625
299.521
299.437
299.37
299.323
299.293
299.282
398.916
396.75
394.588
392.435
390.293
388.166
386.055
383.965
381.896
379.851
377.833
375.841
373.878
371.945
370.043
368.172
366.332
364.524
362.748
361.003
359.291
357.609
355.959
354.34
352.751
351.192
349.662
348.161
346.688
345.243
343.825
342.434
341.07
339.731
338.417
337.129
335.865
334.624
333.408
332.215
331.044
329.897
328.771
327.668
326.586
325.526
324.488
323.47
322.473
321.497
320.541
319.606
318.69
317.795
316.92
316.065
315.229
314.414
313.617
312.84
312.083
311.345
310.627
309.927
309.247
308.586
307.944
307.322
306.719
306.134
305.569
305.023
304.496
303.988
303.499
303.029
302.579
302.147
301.734
301.341
300.967
300.611
300.275
299.958
299.66
299.381
299.121
298.88
298.658
298.456
298.273
298.108
297.963
297.837
297.731
297.643
297.574
297.525
297.495
297.484
398.919
396.759
394.603
392.455
390.317
388.192
386.083
383.992
381.921
379.872
377.848
375.848
373.875
371.93
370.014
368.127
366.269
364.442
362.645
360.878
359.141
357.435
355.759
354.112
352.495
350.907
349.347
347.816
346.312
344.836
343.387
341.964
340.568
339.197
337.851
336.53
335.234
333.961
332.713
331.487
330.285
329.106
327.95
326.815
325.703
324.613
323.544
322.496
321.47
320.465
319.481
318.518
317.575
316.653
315.751
314.869
314.008
313.167
312.346
311.545
310.764
310.003
309.262
308.541
307.839
307.157
306.495
305.853
305.23
304.628
304.044
303.481
302.937
302.413
301.908
301.423
300.958
300.512
300.086
299.68
299.294
298.927
298.58
298.252
297.944
297.656
297.388
297.139
296.911
296.701
296.512
296.343
296.193
296.063
295.952
295.862
295.791
295.74
295.709
295.697
398.921
396.764
394.612
392.466
390.33
388.206
386.096
384.003
381.929
379.875
377.843
375.834
373.851
371.894
369.963
368.06
366.185
364.339
362.521
360.732
358.973
357.242
355.54
353.867
352.223
350.607
349.018
347.458
345.924
344.418
342.938
341.484
340.056
338.654
337.277
335.925
334.597
333.293
332.013
330.757
329.524
328.314
327.126
325.962
324.819
323.699
322.601
321.524
320.469
319.436
318.424
317.433
316.463
315.514
314.586
313.679
312.793
311.927
311.082
310.257
309.453
308.669
307.906
307.163
306.44
305.738
305.055
304.394
303.752
303.131
302.53
301.949
301.388
300.848
300.328
299.828
299.348
298.889
298.45
298.031
297.632
297.254
296.896
296.559
296.241
295.944
295.668
295.411
295.175
294.96
294.764
294.59
294.435
294.301
294.187
294.094
294.021
293.968
293.936
293.924
398.922
396.767
394.615
392.47
390.334
388.208
386.096
384
381.92
379.86
377.82
375.802
373.808
371.838
369.893
367.974
366.081
364.216
362.378
360.568
358.786
357.032
355.305
353.607
351.936
350.292
348.676
347.087
345.524
343.988
342.479
340.995
339.537
338.104
336.696
335.313
333.954
332.62
331.31
330.023
328.759
327.519
326.302
325.108
323.936
322.786
321.659
320.554
319.471
318.41
317.37
316.352
315.356
314.381
313.427
312.495
311.584
310.693
309.824
308.976
308.149
307.343
306.557
305.793
305.049
304.327
303.625
302.944
302.283
301.644
301.025
300.427
299.85
299.294
298.759
298.244
297.75
297.277
296.825
296.394
295.984
295.594
295.225
294.878
294.551
294.245
293.96
293.696
293.453
293.231
293.03
292.85
292.691
292.553
292.436
292.339
292.264
292.21
292.177
292.165
398.921
396.766
394.614
392.467
390.329
388.201
386.085
383.983
381.898
379.83
377.781
375.753
373.747
371.764
369.804
367.87
365.96
364.076
362.219
360.387
358.583
356.805
355.055
353.331
351.634
349.964
348.321
346.704
345.113
343.549
342.01
340.497
339.009
337.547
336.109
334.696
333.308
331.943
330.603
329.286
327.993
326.723
325.477
324.253
323.053
321.875
320.719
319.586
318.476
317.387
316.321
315.276
314.254
313.253
312.274
311.316
310.381
309.466
308.574
307.703
306.853
306.025
305.218
304.432
303.668
302.925
302.204
301.504
300.825
300.168
299.532
298.917
298.324
297.752
297.201
296.672
296.164
295.678
295.213
294.769
294.347
293.947
293.568
293.21
292.874
292.559
292.266
291.995
291.745
291.516
291.309
291.124
290.96
290.818
290.698
290.599
290.522
290.466
290.432
290.419
398.92
396.762
394.608
392.458
390.316
388.184
386.063
383.955
381.863
379.786
377.728
375.689
373.671
371.674
369.7
367.749
365.822
363.92
362.043
360.191
358.365
356.564
354.79
353.042
351.32
349.624
347.954
346.31
344.692
343.1
341.533
339.991
338.475
336.983
335.516
334.074
332.656
331.263
329.893
328.548
327.225
325.927
324.652
323.4
322.171
320.965
319.782
318.621
317.483
316.368
315.275
314.205
313.156
312.13
311.126
310.144
309.185
308.247
307.331
306.437
305.565
304.715
303.887
303.081
302.296
301.534
300.793
300.074
299.377
298.702
298.049
297.418
296.809
296.221
295.656
295.112
294.591
294.091
293.613
293.158
292.724
292.313
291.923
291.556
291.21
290.887
290.586
290.307
290.05
289.815
289.603
289.412
289.244
289.098
288.974
288.873
288.793
288.736
288.701
288.688
398.918
396.757
394.598
392.444
390.297
388.159
386.032
383.917
381.816
379.73
377.662
375.612
373.581
371.57
369.581
367.614
365.67
363.749
361.852
359.98
358.133
356.31
354.513
352.741
350.994
349.273
347.577
345.907
344.262
342.642
341.048
339.478
337.934
336.414
334.919
333.448
332.002
330.58
329.181
327.807
326.457
325.13
323.827
322.547
321.29
320.057
318.846
317.659
316.495
315.353
314.234
313.138
312.064
311.013
309.985
308.979
307.996
307.035
306.096
305.18
304.286
303.415
302.566
301.739
300.935
300.153
299.393
298.656
297.941
297.248
296.578
295.931
295.306
294.703
294.123
293.565
293.03
292.517
292.027
291.559
291.114
290.692
290.292
289.915
289.561
289.229
288.92
288.634
288.37
288.129
287.911
287.715
287.543
287.393
287.266
287.162
287.08
287.021
286.985
286.972
398.916
396.749
394.584
392.425
390.272
388.127
385.992
383.869
381.759
379.663
377.584
375.521
373.478
371.453
369.449
367.465
365.504
363.565
361.649
359.757
357.888
356.044
354.224
352.428
350.657
348.912
347.191
345.495
343.823
342.177
340.556
338.959
337.387
335.84
334.317
332.818
331.344
329.894
328.468
327.066
325.688
324.333
323.003
321.695
320.412
319.151
317.914
316.7
315.51
314.342
313.198
312.077
310.978
309.903
308.851
307.821
306.814
305.83
304.869
303.931
303.016
302.124
301.254
300.407
299.583
298.782
298.004
297.248
296.516
295.806
295.12
294.456
293.815
293.197
292.603
292.031
291.482
290.957
290.454
289.975
289.519
289.086
288.676
288.289
287.926
287.586
287.269
286.975
286.705
286.458
286.234
286.033
285.856
285.703
285.572
285.466
285.382
285.322
285.285
285.271
398.913
396.739
394.568
392.401
390.241
388.088
385.945
383.813
381.693
379.586
377.495
375.42
373.363
371.324
369.304
367.305
365.326
363.369
361.434
359.521
357.632
355.766
353.924
352.105
350.311
348.541
346.795
345.074
343.377
341.705
340.058
338.434
336.836
335.261
333.711
332.185
330.684
329.207
327.753
326.324
324.919
323.537
322.179
320.845
319.535
318.248
316.985
315.746
314.529
313.337
312.167
311.021
309.899
308.799
307.723
306.67
305.641
304.635
303.652
302.692
301.755
300.842
299.952
299.086
298.242
297.422
296.626
295.852
295.103
294.376
293.673
292.994
292.337
291.705
291.096
290.51
289.948
289.41
288.896
288.405
287.937
287.494
287.074
286.678
286.306
285.957
285.632
285.332
285.055
284.802
284.572
284.367
284.186
284.028
283.895
283.785
283.7
283.638
283.6
283.586
398.909
396.728
394.549
392.374
390.205
388.044
385.891
383.749
381.618
379.5
377.397
375.309
373.238
371.184
369.149
367.133
365.137
363.162
361.208
359.276
357.366
355.478
353.614
351.773
349.956
348.162
346.392
344.647
342.925
341.227
339.554
337.905
336.28
334.679
333.102
331.55
330.022
328.518
327.038
325.582
324.15
322.742
321.358
319.998
318.661
317.349
316.06
314.795
313.554
312.336
311.142
309.972
308.826
307.703
306.603
305.528
304.476
303.447
302.443
301.462
300.505
299.571
298.661
297.775
296.913
296.074
295.259
294.469
293.702
292.958
292.239
291.544
290.873
290.226
289.603
289.004
288.429
287.878
287.351
286.849
286.371
285.917
285.487
285.082
284.701
284.344
284.012
283.704
283.42
283.161
282.927
282.717
282.531
282.37
282.233
282.121
282.033
281.97
281.932
281.917
398.905
396.715
394.527
392.344
390.165
387.994
385.831
383.678
381.536
379.407
377.291
375.189
373.104