/*--------------------------------*- C++ -*----------------------------------*\
| =========                 |                                                 |
| \\      /  F ield         | OpenFOAM: The Open Source CFD Toolbox           |
|  \\    /   O peration     | Version:  2406                                  |
|   \\  /    A nd           | Website:  www.openfoam.com                      |
|    \\/     M anipulation  |                                                 |
\*---------------------------------------------------------------------------*/
FoamFile
{
    version     2.0;
    format      ascii;
    arch        "LSB;label=32;scalar=64";
    class       volScalarField;
    location    "37";
    object      p;
}
// * * * * * * * * * * * * * * * * * * * * * * * * * * * * * * * * * * * * * //

dimensions      [0 2 -2 0 0 0 0];

internalField   nonuniform List<scalar> 
1176
(
0.79699976
0.79702263
0.7970463
0.79705396
0.79702243
0.79692774
0.79677051
0.79658434
0.79640514
0.79623799
0.79608336
0.79598776
0.79598776
0.79608337
0.79623799
0.79640514
0.79658433
0.79677048
0.79692768
0.79702235
0.79705385
0.79704616
0.79702248
0.7969996
0.77385133
0.77380437
0.77375661
0.77373972
0.77380222
0.77400457
0.77436989
0.7748343
0.77526516
0.77555126
0.77567066
0.77570492
0.77570492
0.77567066
0.77555127
0.77526518
0.77483432
0.77436992
0.77400462
0.77380228
0.77373979
0.77375669
0.77380446
0.77385141
0.75676657
0.75678859
0.75680838
0.75680647
0.75674741
0.75658623
0.75631447
0.75598652
0.75568031
0.75546751
0.75535671
0.75530789
0.75530789
0.75535671
0.75546752
0.7556803
0.75598651
0.75631445
0.75658621
0.75674739
0.75680645
0.75680836
0.75678856
0.75676655
0.74009468
0.74010381
0.74011586
0.74013227
0.74015481
0.74017238
0.74014015
0.74000673
0.73977462
0.73950206
0.73927785
0.73915736
0.73915736
0.73927786
0.73950207
0.73977463
0.74000675
0.74014016
0.7401724
0.74015483
0.74013228
0.74011588
0.74010382
0.74009469
0.72367563
0.72367959
0.72368458
0.72369064
0.72370034
0.72372062
0.7237568
0.72379831
0.72381998
0.72379611
0.72373399
0.72368136
0.72368136
0.72373399
0.72379611
0.72381998
0.72379831
0.7237568
0.72372062
0.72370035
0.72369065
0.72368459
0.72367959
0.72367564
0.70721398
0.70721639
0.70721964
0.70722368
0.70722859
0.70723542
0.70724959
0.7072809
0.70733089
0.70738814
0.70743085
0.7074475
0.7074475
0.70743085
0.70738814
0.70733089
0.7072809
0.70724959
0.70723542
0.70722859
0.70722368
0.70721963
0.70721639
0.70721398
0.69080817
0.69081031
0.69081312
0.69081654
0.69082044
0.69082395
0.69082602
0.6908282
0.69083675
0.69085398
0.69087187
0.69088359
0.69088359
0.69087187
0.69085397
0.69083674
0.69082819
0.69082602
0.69082395
0.69082044
0.69081654
0.69081311
0.6908103
0.69080817
0.6744283
0.67443006
0.67443239
0.67443531
0.67443898
0.67444335
0.67444781
0.67445096
0.6744522
0.67445381
0.67445086
0.67444835
0.67444835
0.67445086
0.67445381
0.67445219
0.67445096
0.6744478
0.67444335
0.67443898
0.67443531
0.67443239
0.67443006
0.6744283
0.65807402
0.65807547
0.6580774
0.65807982
0.65808283
0.65808662
0.65809166
0.65809871
0.65810739
0.65811742
0.65812519
0.65812878
0.65812878
0.65812519
0.65811742
0.65810739
0.65809871
0.65809166
0.65808662
0.65808283
0.65807981
0.6580774
0.65807547
0.65807402
0.64173633
0.64173753
0.64173914
0.64174117
0.64174374
0.64174692
0.64175108
0.64175747
0.64176763
0.64178076
0.64179509
0.64180439
0.64180439
0.64179509
0.64178076
0.64176763
0.64175747
0.64175108
0.64174692
0.64174374
0.64174117
0.64173914
0.64173753
0.64173633
0.62541195
0.62541298
0.62541435
0.6254161
0.62541831
0.62542104
0.62542443
0.62542928
0.62543714
0.6254478
0.62546036
0.6254695
0.6254695
0.62546036
0.6254478
0.62543714
0.62542928
0.62542443
0.62542103
0.62541831
0.6254161
0.62541435
0.62541298
0.62541195
0.60909847
0.60909937
0.60910057
0.60910209
0.60910403
0.60910643
0.60910939
0.6091134
0.60911962
0.60912828
0.60913884
0.60914629
0.60914629
0.60913884
0.60912828
0.60911962
0.6091134
0.60910939
0.60910643
0.60910403
0.60910209
0.60910057
0.60909937
0.60909847
0.59279428
0.59279507
0.59279612
0.59279747
0.59279919
0.59280132
0.59280396
0.5928075
0.5928129
0.59282064
0.59283033
0.59283701
0.59283701
0.59283033
0.59282064
0.5928129
0.5928075
0.59280396
0.59280132
0.59279919
0.59279747
0.59279612
0.59279507
0.59279428
0.57649806
0.57649876
0.5764997
0.5765009
0.57650244
0.57650435
0.57650669
0.57650983
0.5765146
0.57652157
0.57653024
0.57653633
0.57653633
0.57653024
0.57652157
0.5765146
0.57650983
0.57650669
0.57650435
0.57650244
0.5765009
0.5764997
0.57649876
0.57649806
0.56020879
0.56020942
0.56021026
0.56021135
0.56021273
0.56021445
0.56021655
0.56021931
0.56022347
0.5602296
0.56023712
0.56024253
0.56024253
0.56023712
0.5602296
0.56022347
0.56021931
0.56021655
0.56021445
0.56021273
0.56021135
0.56021027
0.56020942
0.56020879
0.54392567
0.54392624
0.543927
0.54392798
0.54392924
0.54393079
0.54393269
0.54393514
0.54393878
0.54394415
0.54395069
0.54395548
0.54395548
0.54395069
0.54394415
0.54393878
0.54393514
0.54393269
0.54393079
0.54392924
0.54392798
0.543927
0.54392624
0.54392567
0.52764804
0.52764856
0.52764926
0.52765015
0.52765129
0.52765271
0.52765443
0.52765663
0.52765985
0.52766462
0.52767034
0.52767463
0.52767463
0.52767034
0.52766461
0.52765985
0.52765663
0.52765443
0.52765271
0.52765129
0.52765015
0.52764926
0.52764856
0.52764805
0.51137536
0.51137584
0.51137647
0.51137729
0.51137834
0.51137963
0.5113812
0.51138319
0.51138607
0.51139032
0.51139537
0.51139923
0.51139923
0.51139537
0.51139032
0.51138607
0.51138319
0.5113812
0.51137963
0.51137834
0.51137729
0.51137648
0.51137584
0.51137537
0.49510717
0.4951076
0.49510819
0.49510894
0.4951099
0.49511109
0.49511253
0.49511434
0.49511691
0.49512072
0.49512522
0.4951287
0.4951287
0.49512522
0.49512072
0.49511691
0.49511434
0.49511253
0.49511109
0.4951099
0.49510894
0.49510819
0.49510761
0.49510717
0.47884306
0.47884346
0.478844
0.47884469
0.47884558
0.47884668
0.478848
0.47884965
0.47885197
0.47885539
0.47885943
0.47886259
0.47886259
0.47885943
0.47885539
0.47885197
0.47884965
0.478848
0.47884668
0.47884558
0.47884469
0.478844
0.47884346
0.47884306
0.46258269
0.46258306
0.46258355
0.46258419
0.46258502
0.46258603
0.46258726
0.46258877
0.46259087
0.46259397
0.46259761
0.46260048
0.46260048
0.46259761
0.46259397
0.46259087
0.46258876
0.46258726
0.46258603
0.46258502
0.4625842
0.46258356
0.46258306
0.46258269
0.44632575
0.4463261
0.44632656
0.44632715
0.44632791
0.44632886
0.44632999
0.44633138
0.44633329
0.44633611
0.44633942
0.44634204
0.44634204
0.44633942
0.44633611
0.44633329
0.44633138
0.44632999
0.44632886
0.44632792
0.44632715
0.44632656
0.4463261
0.44632576
0.43007199
0.43007231
0.43007274
0.43007329
0.430074
0.43007487
0.43007592
0.43007721
0.43007896
0.43008153
0.43008456
0.43008695
0.43008695
0.43008456
0.43008153
0.43007896
0.43007721
0.43007592
0.43007488
0.430074
0.43007329
0.43007274
0.43007231
0.43007199
0.41382115
0.41382145
0.41382185
0.41382236
0.41382302
0.41382384
0.41382482
0.41382601
0.41382761
0.41382997
0.41383275
0.41383494
0.41383494
0.41383275
0.41382997
0.41382761
0.41382601
0.41382482
0.41382384
0.41382303
0.41382237
0.41382185
0.41382146
0.41382116
0.39757304
0.39757331
0.39757369
0.39757417
0.39757478
0.39757555
0.39757646
0.39757756
0.39757904
0.3975812
0.39758377
0.39758578
0.39758578
0.39758377
0.3975812
0.39757904
0.39757756
0.39757646
0.39757555
0.39757478
0.39757417
0.39757369
0.39757332
0.39757304
0.38132745
0.3813277
0.38132805
0.3813285
0.38132908
0.38132979
0.38133064
0.38133167
0.38133303
0.38133503
0.38133741
0.38133926
0.38133926
0.38133741
0.38133503
0.38133303
0.38133167
0.38133064
0.38132979
0.38132908
0.3813285
0.38132805
0.38132771
0.38132745
0.3650842
0.36508444
0.36508477
0.36508519
0.36508573
0.3650864
0.36508719
0.36508815
0.36508941
0.36509126
0.36509347
0.36509517
0.36509517
0.36509347
0.36509126
0.36508941
0.36508815
0.36508719
0.3650864
0.36508573
0.36508519
0.36508477
0.36508445
0.3650842
0.34884315
0.34884338
0.34884368
0.34884408
0.34884458
0.34884521
0.34884595
0.34884685
0.34884802
0.34884973
0.34885178
0.34885336
0.34885336
0.34885178
0.34884973
0.34884802
0.34884685
0.34884595
0.34884521
0.34884458
0.34884408
0.34884368
0.34884338
0.34884315
0.33260415
0.33260436
0.33260465
0.33260501
0.33260549
0.33260608
0.33260677
0.33260761
0.3326087
0.33261029
0.3326122
0.33261367
0.33261367
0.3326122
0.33261029
0.33260871
0.33260761
0.33260678
0.33260608
0.33260549
0.33260501
0.33260464
0.33260436
0.33260415
0.31636706
0.31636726
0.31636752
0.31636787
0.31636832
0.31636887
0.31636952
0.31637031
0.31637133
0.3163728
0.31637458
0.31637595
0.31637595
0.31637459
0.3163728
0.31637133
0.31637031
0.31636953
0.31636887
0.31636831
0.31636787
0.31636752
0.31636725
0.31636705
0.30013176
0.30013195
0.3001322
0.30013252
0.30013294
0.30013346
0.30013408
0.30013481
0.30013576
0.30013714
0.30013881
0.30014008
0.30014008
0.30013881
0.30013714
0.30013577
0.30013481
0.30013408
0.30013346
0.30013294
0.30013252
0.30013219
0.30013194
0.30013175
0.28389814
0.28389832
0.28389855
0.28389886
0.28389925
0.28389974
0.28390032
0.28390101
0.2839019
0.28390318
0.28390474
0.28390593
0.28390593
0.28390475
0.28390319
0.28390191
0.28390102
0.28390033
0.28389974
0.28389925
0.28389885
0.28389855
0.28389831
0.28389813
0.2676661
0.26766627
0.26766649
0.26766678
0.26766715
0.26766761
0.26766815
0.2676688
0.26766963
0.26767083
0.2676723
0.2676734
0.26767341
0.2676723
0.26767084
0.26766964
0.26766881
0.26766816
0.26766761
0.26766714
0.26766677
0.26766648
0.26766625
0.26766608
0.25143554
0.2514357
0.25143591
0.25143618
0.25143653
0.25143696
0.25143748
0.25143808
0.25143886
0.25143998
0.25144136
0.25144239
0.25144239
0.25144136
0.25143999
0.25143888
0.25143809
0.25143748
0.25143696
0.25143652
0.25143616
0.25143589
0.25143568
0.25143552
0.23520638
0.23520652
0.23520672
0.23520698
0.2352073
0.23520771
0.2352082
0.23520877
0.2352095
0.23521055
0.23521184
0.23521281
0.23521282
0.23521185
0.23521056
0.23520952
0.23520878
0.2352082
0.23520771
0.23520729
0.23520695
0.23520669
0.23520649
0.23520634
0.21897852
0.21897866
0.21897884
0.21897909
0.2189794
0.21897978
0.21898024
0.21898077
0.21898146
0.21898244
0.21898366
0.21898456
0.21898457
0.21898367
0.21898246
0.21898148
0.21898079
0.21898024
0.21897977
0.21897938
0.21897906
0.21897881
0.21897862
0.21897848
0.20275189
0.20275203
0.2027522
0.20275243
0.20275272
0.20275308
0.20275351
0.20275402
0.20275467
0.20275559
0.20275674
0.20275759
0.20275759
0.20275675
0.20275561
0.20275469
0.20275404
0.20275352
0.20275307
0.2027527
0.20275239
0.20275216
0.20275198
0.20275184
0.18652643
0.18652656
0.18652672
0.18652694
0.18652721
0.18652756
0.18652796
0.18652844
0.18652905
0.18652991
0.18653098
0.18653178
0.18653178
0.186531
0.18652993
0.18652908
0.18652846
0.18652797
0.18652754
0.18652718
0.18652689
0.18652667
0.1865265
0.18652637
0.17030207
0.17030218
0.17030234
0.17030254
0.1703028
0.17030313
0.17030351
0.17030396
0.17030453
0.17030534
0.17030636
0.17030711
0.17030711
0.17030637
0.17030537
0.17030456
0.17030398
0.17030351
0.17030311
0.17030276
0.17030248
0.17030227
0.17030211
0.17030199
0.15407874
0.15407884
0.15407899
0.15407918
0.15407943
0.15407974
0.1540801
0.15408052
0.15408106
0.15408182
0.15408276
0.15408346
0.15408346
0.15408278
0.15408185
0.15408109
0.15408055
0.1540801
0.15407971
0.15407938
0.15407911
0.15407891
0.15407875
0.15407864
0.13785637
0.13785647
0.13785661
0.13785679
0.13785703
0.13785732
0.13785766
0.13785806
0.13785856
0.13785928
0.13786017
0.13786083
0.13786084
0.13786019
0.13785931
0.1378586
0.13785808
0.13785766
0.13785728
0.13785696
0.13785671
0.13785652
0.13785637
0.13785626
0.12163494
0.12163504
0.12163517
0.12163534
0.12163556
0.12163584
0.12163616
0.12163653
0.12163701
0.12163766
0.12163848
0.12163908
0.12163908
0.1216385
0.1216377
0.12163705
0.12163656
0.12163616
0.12163579
0.12163549
0.12163524
0.12163506
0.12163491
0.12163481
0.10541436
0.10541445
0.10541458
0.10541474
0.10541495
0.10541521
0.10541551
0.10541586
0.1054163
0.10541692
0.10541768
0.10541824
0.10541825
0.10541771
0.10541696
0.10541635
0.10541589
0.1054155
0.10541515
0.10541485
0.10541462
0.10541444
0.1054143
0.1054142
0.089194644
0.089194732
0.089194851
0.089195004
0.089195201
0.089195445
0.089195733
0.089196063
0.089196466
0.089197005
0.089197657
0.089198124
0.089198132
0.089197683
0.08919705
0.089196517
0.089196096
0.089195723
0.089195385
0.089195094
0.089194864
0.089194694
0.089194559
0.089194462
0.072975638
0.072975721
0.072975833
0.072975978
0.072976166
0.0729764
0.072976676
0.072976992
0.072977368
0.072977862
0.072978443
0.07297884
0.072978848
0.07297847
0.072977909
0.072977422
0.072977025
0.072976663
0.072976331
0.072976046
0.072975821
0.072975659
0.07297553
0.072975439
0.056757517
0.056757598
0.056757706
0.056757844
0.056758021
0.056758237
0.05675849
0.056758774
0.056759095
0.056759468
0.056759842
0.056760054
0.056760062
0.056759869
0.056759517
0.056759151
0.056758808
0.056758474
0.056758161
0.056757892
0.056757679
0.056757523
0.056757399
0.05675731
0.04053973
0.040539801
0.040539898
0.040540029
0.040540205
0.04054043
0.040540695
0.040540987
0.040541312
0.040541717
0.04054218
0.040542485
0.040542492
0.040542206
0.040541764
0.040541368
0.04054102
0.040540678
0.040540352
0.040540075
0.040539864
0.040539718
0.040539607
0.040539529
0.024323461
0.024323544
0.024323651
0.024323779
0.024323927
0.024324088
0.024324262
0.024324445
0.02432461
0.024324685
0.024324593
0.024324358
0.024324364
0.024324615
0.024324727
0.024324659
0.024324471
0.024324241
0.024324015
0.02432381
0.024323636
0.024323498
0.024323381
0.024323295
0.0081053666
0.0081054369
0.0081055299
0.0081056514
0.0081058125
0.0081060125
0.0081062336
0.0081064731
0.0081068502
0.0081076834
0.0081091575
0.0081105223
0.0081105257
0.0081091704
0.008107709
0.0081068796
0.0081064869
0.0081062164
0.0081059621
0.0081057372
0.0081055624
0.0081054372
0.0081053416
0.0081052707
)
;

boundaryField
{
    INLET
    {
        type            zeroGradient;
    }
    OUTLET
    {
        type            fixedValue;
        value           uniform 0;
    }
    WALL
    {
        type            zeroGradient;
    }
    frontAndBackPlanes
    {
        type            empty;
    }
}


// ************************************************************************* //
