/*--------------------------------*- C++ -*----------------------------------*\
| =========                 |                                                 |
| \\      /  F ield         | OpenFOAM: The Open Source CFD Toolbox           |
|  \\    /   O peration     | Version:  2406                                  |
|   \\  /    A nd           | Website:  www.openfoam.com                      |
|    \\/     M anipulation  |                                                 |
\*---------------------------------------------------------------------------*/
FoamFile
{
    version     2.0;
    format      ascii;
    arch        "LSB;label=32;scalar=64";
    class       surfaceScalarField;
    location    "37";
    object      phi;
}
// * * * * * * * * * * * * * * * * * * * * * * * * * * * * * * * * * * * * * //

dimensions      [0 3 -1 0 0 0 0];

oriented        oriented;

internalField   nonuniform List<scalar> 
2279
(
2.361746e-08
1.0148926e-05
2.0509758e-07
4.982375e-05
6.9331751e-07
0.00014252872
1.5784714e-06
0.00034353082
2.6788476e-06
0.00075378089
3.3472914e-06
0.0015415573
3.0435205e-06
0.0029497096
2.1516852e-06
0.005249171
1.4318049e-06
0.008582269
9.8959225e-07
0.012685995
5.1266547e-07
0.016666385
-4.8328103e-12
0.01918202
-5.1267318e-07
0.01918202
-9.8958888e-07
0.016666385
-1.431768e-06
0.012685995
-2.1515611e-06
0.0085822689
-3.0432458e-06
0.0052491708
-3.3468365e-06
0.0029497094
-2.6782622e-06
0.0015415572
-1.5778744e-06
0.00075378084
-6.9282755e-07
0.0003435308
-2.047884e-07
0.00014252872
-2.3484199e-08
4.9823749e-05
1.0148926e-05
-9.5248507e-08
1.0244175e-05
-5.3794015e-07
5.0266441e-05
-1.6230013e-06
0.00014361378
-3.5389524e-06
0.00034544677
-5.9201863e-06
0.00075616213
-7.4055015e-06
0.0015430426
-6.5847252e-06
0.0029488888
-3.9361566e-06
0.0052465224
-1.3883859e-06
0.0085797213
-6.5117664e-08
0.012684671
2.4240294e-07
0.016666078
-1.4143189e-11
0.019182263
-2.4243729e-07
0.019182263
6.5073852e-08
0.016666078
1.388329e-06
0.012684671
3.9360824e-06
0.0085797213
6.584607e-06
0.0052465225
7.4053101e-06
0.0029488889
5.9199417e-06
0.0015430427
3.5387161e-06
0.00075616216
1.6228267e-06
0.00034544679
5.3784164e-07
0.00014361379
9.5212779e-08
5.0266444e-05
1.0244176e-05
5.0139805e-08
1.0194035e-05
2.6334492e-07
5.0053236e-05
7.4910715e-07
0.00014312802
1.5314585e-06
0.00034466442
2.3366563e-06
0.00075535693
2.5476637e-06
0.0015428316
1.8390997e-06
0.0029495974
9.7567996e-07
0.0052473858
6.7696409e-07
0.00858002
6.7179114e-07
0.012684677
4.8416651e-07
0.016666266
1.3618959e-12
0.019182747
-4.8416045e-07
0.019182747
-6.7177487e-07
0.016666266
-6.7693146e-07
0.012684677
-9.7563271e-07
0.00858002
-1.8390551e-06
0.0052473858
-2.5476307e-06
0.0029495974
-2.3366364e-06
0.0015428316
-1.5314568e-06
0.00075535692
-7.4911776e-07
0.00034466442
-2.6335894e-07
0.00014312802
-5.0148565e-08
5.0053235e-05
1.0194035e-05
1.9586667e-08
1.0174448e-05
1.1184917e-07
4.9960974e-05
3.6128427e-07
0.00014287858
9.0504802e-07
0.00034412066
1.871661e-06
0.00075439032
3.0948261e-06
0.0015416085
3.8987286e-06
0.0029487935
3.7285612e-06
0.005247556
2.9242166e-06
0.0085808243
1.9733779e-06
0.012685627
1.0127695e-06
0.016667226
-5.4706173e-12
0.01918376
-1.012779e-06
0.01918376
-1.9733837e-06
0.016667226
-2.9242221e-06
0.012685627
-3.7285704e-06
0.0085808244
-3.8987374e-06
0.005247556
-3.0948327e-06
0.0029487935
-1.8716603e-06
0.0015416085
-9.0503726e-07
0.00075439031
-3.6126904e-07
0.00034412066
-1.1183876e-07
0.00014287858
-1.9581939e-08
4.9960973e-05
1.0174448e-05
8.0839364e-09
1.0166364e-05
4.7141507e-08
4.9921916e-05
1.5494709e-07
0.00014277078
3.9846374e-07
0.00034387714
8.7979625e-07
0.00075390899
1.70152e-06
0.0015407867
2.7512814e-06
0.0029477437
3.4623699e-06
0.0052468449
3.4708705e-06
0.0085808158
2.8006926e-06
0.012686298
1.5505161e-06
0.016668476
-3.8321918e-12
0.01918531
-1.5505209e-06
0.01918531
-2.80069e-06
0.016668476
-3.4708605e-06
0.012686298
-3.4623716e-06
0.0085808158
-2.7512994e-06
0.0052468449
-1.7015485e-06
0.0029477437
-8.7982867e-07
0.0015407867
-3.9849173e-07
0.00075390899
-1.549665e-07
0.00034387714
-4.7152835e-08
0.00014277078
-8.0884857e-09
4.9921916e-05
1.0166364e-05
4.935905e-09
1.0161429e-05
2.8698977e-08
4.9898153e-05
9.5121812e-08
0.00014270436
2.492152e-07
0.00034372305
5.6361133e-07
0.00075359459
1.1213788e-06
0.001540229
1.918464e-06
0.0029469467
2.6588292e-06
0.0052461046
2.8930678e-06
0.0085805816
2.4787733e-06
0.012686712
1.4344296e-06
0.016669521
1.4869526e-12
0.019186745
-1.4344231e-06
0.019186745
-2.4787597e-06
0.016669521
-2.8930521e-06
0.012686712
-2.6588174e-06
0.0085805816
-1.9184613e-06
0.0052461046
-1.121383e-06
0.0029469467
-5.6361831e-07
0.001540229
-2.4922187e-07
0.00075359459
-9.5126886e-08
0.00034372305
-2.8701965e-08
0.00014270436
-4.9371992e-09
4.9898153e-05
1.0161429e-05
4.412392e-09
1.0157016e-05
2.5525796e-08
4.987704e-05
8.3830473e-08
0.00014264605
2.1689497e-07
0.00034358999
4.8450295e-07
0.00075332698
9.5636435e-07
0.0015397571
1.6413793e-06
0.0029462616
2.3245897e-06
0.0052454214
2.5939606e-06
0.0085803122
2.2393687e-06
0.012687066
1.3066774e-06
0.016670453
4.1968438e-12
0.019188051
-1.3066665e-06
0.019188051
-2.239354e-06
0.016670453
-2.5939475e-06
0.012687066
-2.3245811e-06
0.0085803122
-1.6413755e-06
0.0052454214
-9.5636247e-07
0.0029462616
-4.845013e-07
0.0015397571
-2.1689338e-07
0.00075332698
-8.3829276e-08
0.00034358999
-2.5524902e-08
0.00014264605
-4.4120072e-09
4.987704e-05
1.0157016e-05
3.625616e-09
1.0153391e-05
2.10368e-08
4.9859629e-05
6.9438573e-08
0.00014259765
1.811424e-07
0.00034347828
4.0971613e-07
0.00075309841
8.2390701e-07
0.0015393429
1.4539972e-06
0.0029456316
2.1430815e-06
0.0052447323
2.4674789e-06
0.0085799878
2.1883976e-06
0.012687346
1.2866455e-06
0.016671355
3.756153e-12
0.019189338
-1.2866365e-06
0.019189338
-2.1883868e-06
0.016671355
-2.4674696e-06
0.012687346
-2.1430755e-06
0.0085799878
-1.4539927e-06
0.0052447323
-8.2390337e-07
0.0029456316
-4.0971348e-07
0.0015393429
-1.8114082e-07
0.00075309841
-6.9437837e-08
0.00034347828
-2.1036445e-08
0.00014259765
-3.6254972e-09
4.9859629e-05
1.0153391e-05
2.9832672e-09
1.0150408e-05
1.7347328e-08
4.9845265e-05
5.7377891e-08
0.00014255762
1.5007487e-07
0.00034338559
3.4097288e-07
0.00075290751
6.9193456e-07
0.001538992
1.2441127e-06
0.0029450794
1.9041907e-06
0.0052440722
2.3016051e-06
0.0085795904
2.0975112e-06
0.01268755
1.2520125e-06
0.016672201
2.5863433e-12
0.01919059
-1.2520065e-06
0.01919059
-2.0975044e-06
0.016672201
-2.3015992e-06
0.01268755
-1.9041855e-06
0.0085795904
-1.2441077e-06
0.0052440722
-6.9193053e-07
0.0029450794
-3.4097035e-07
0.001538992
-1.5007368e-07
0.00075290751
-5.73775e-08
0.00034338559
-1.7347363e-08
0.00014255762
-2.9833535e-09
4.9845265e-05
1.0150408e-05
2.4655792e-09
1.0147942e-05
1.4363476e-08
4.9833367e-05
4.76271e-08
0.00014252436
1.2502966e-07
0.00034330818
2.855904e-07
0.00075274695
5.8418157e-07
0.0015386934
1.0641873e-06
0.0029445994
1.6641613e-06
0.0052434722
2.0898776e-06
0.0085791647
1.9528964e-06
0.012687687
1.1802457e-06
0.016672973
1.2322768e-12
0.01919177
-1.1802429e-06
0.01919177
-1.9528934e-06
0.016672973
-2.0898747e-06
0.012687687
-1.664158e-06
0.0085791647
-1.0641845e-06
0.0052434722
-5.8418019e-07
0.0029445994
-2.8559041e-07
0.0015386934
-1.2503042e-07
0.00075274695
-4.762792e-08
0.00034330818
-1.4364275e-08
0.00014252436
-2.4659898e-09
4.9833367e-05
1.0147942e-05
2.1025717e-09
1.014584e-05
1.2258344e-08
4.9823212e-05
4.0688732e-08
0.00014249593
1.0699088e-07
0.00034324188
2.4507937e-07
0.00075260887
5.0385421e-07
0.0015384346
9.2623647e-07
0.002944177
1.4715133e-06
0.0052429269
1.8909101e-06
0.0085787453
1.8050235e-06
0.012687772
1.1036904e-06
0.016673675
4.2966127e-13
0.019192874
-1.1036895e-06
0.019192874
-1.8050226e-06
0.016673675
-1.8909092e-06
0.012687772
-1.4715124e-06
0.0085787453
-9.2623686e-07
0.005242927
-5.0385643e-07
0.002944177
-2.450827e-07
0.0015384346
-1.069942e-07
0.00075260887
-4.0691228e-08
0.00034324188
-1.2260157e-08
0.00014249593
-2.1034108e-09
4.9823212e-05
1.014584e-05
1.8283008e-09
1.0144011e-05
1.0665643e-08
4.9814374e-05
3.5430533e-08
0.00014247116
9.3283272e-08
0.00034318403
2.1413941e-07
0.00075248801
4.4192785e-07
0.0015382068
8.1811402e-07
0.0029438008
1.3163814e-06
0.0052424287
1.7244945e-06
0.0085783372
1.678043e-06
0.012687819
1.0378044e-06
0.016674315
4.0891774e-14
0.019193912
-1.0378044e-06
0.019193912
-1.678043e-06
0.016674315
-1.7244948e-06
0.012687819
-1.3163824e-06
0.0085783372
-8.1811704e-07
0.0052424287
-4.4193297e-07
0.0029438008
-2.141454e-07
0.0015382068
-9.3288677e-08
0.00075248801
-3.5434427e-08
0.00034318403
-1.0668319e-08
0.00014247116
-1.8295145e-09
4.9814375e-05
1.0144011e-05
1.6105058e-09
1.0142401e-05
9.3996997e-09
4.9806585e-05
3.1244455e-08
0.00014244932
8.2340361e-08
0.00034313293
1.8932049e-07
0.00075238103
3.9182268e-07
0.0015380043
7.2924116e-07
0.0029434634
1.1851454e-06
0.0052419728
1.5781751e-06
0.0085779442
1.5623389e-06
0.012687835
9.766977e-07
0.0166749
-1.8291755e-13
0.019194888
-9.7669811e-07
0.019194888
-1.5623395e-06
0.0166749
-1.5781761e-06
0.012687835
-1.1851478e-06
0.0085779442
-7.2924608e-07
0.0052419728
-3.9182994e-07
0.0029434634
-1.893285e-07
0.0015380043
-8.2347425e-08
0.00075238103
-3.1249507e-08
0.00034313293
-9.4031202e-09
0.00014244932
-1.6120508e-09
4.9806585e-05
1.0142401e-05
1.4323067e-09
1.0140969e-05
8.3630034e-09
4.9799655e-05
2.781258e-08
0.00014242987
7.3352654e-08
0.00034308739
1.6886849e-07
0.00075228551
3.5026753e-07
0.0015378229
6.5458245e-07
0.0029431591
1.0720586e-06
0.0052415553
1.4464327e-06
0.0085775698
1.4548754e-06
0.012687826
9.1880876e-07
0.016675437
-3.1093279e-13
0.019195807
-9.1880938e-07
0.019195807
-1.4548761e-06
0.016675437
-1.4464342e-06
0.012687826
-1.0720618e-06
0.0085775698
-6.545887e-07
0.0052415553
-3.5027643e-07
0.0029431591
-1.6887819e-07
0.0015378229
-7.3361192e-08
0.00075228551
-2.7818696e-08
0.00034308739
-8.3671333e-09
0.00014242987
-1.4341722e-09
4.9799655e-05
1.0140969e-05
1.2849943e-09
1.0139684e-05
7.5050699e-09
4.9793434e-05
2.4968826e-08
0.0001424124
6.5891045e-08
0.00034304647
1.5183787e-07
0.00075219957
3.1548504e-07
0.0015376593
5.9149619e-07
0.0029428831
9.7478634e-07
0.005241172
1.3297038e-06
0.0085772149
1.3567861e-06
0.012687799
8.6525111e-07
0.016675928
-3.4732194e-13
0.019196672
-8.6525175e-07
0.019196672
-1.3567867e-06
0.016675928
-1.3297053e-06
0.012687799
-9.7479009e-07
0.0085772149
-5.9150345e-07
0.005241172
-3.1549542e-07
0.0029428831
-1.5184922e-07
0.0015376593
-6.5901056e-08
0.00075219957
-2.4976007e-08
0.00034304647
-7.5099203e-09
0.0001424124
-1.2871858e-09
4.9793434e-05
1.0139684e-05
1.1614885e-09
1.0138522e-05
6.7852166e-09
4.9787811e-05
2.2580478e-08
0.00014239661
5.9615397e-08
0.00034300944
1.3748103e-07
0.0007521217
2.860465e-07
0.0015375107
5.3771076e-07
0.0029426314
8.9070553e-07
0.005240819
1.2263968e-06
0.0085768792
1.2674885e-06
0.012687758
8.1592578e-07
0.01667638
-2.8435526e-13
0.019197488
-8.1592622e-07
0.019197488
-1.267489e-06
0.01667638
-1.2263982e-06
0.012687758
-8.9070958e-07
0.0085768792
-5.3771903e-07
0.005240819
-2.860585e-07
0.0029426314
-1.374942e-07
0.0015375107
-5.9627011e-08
0.0007521217
-2.25888e-08
0.00034300944
-6.7908322e-09
0.00014239661
-1.1640234e-09
4.9787811e-05
1.0138522e-05
1.056157e-09
1.0137466e-05
6.17101e-09
4.9782696e-05
2.0541388e-08
0.00014238224
5.4252148e-08
0.00034297572
1.2519075e-07
0.00075205076
2.6076789e-07
0.0015373751
4.9125153e-07
0.0029424009
8.1722471e-07
0.005240493
1.1341827e-06
0.0085765622
1.1857895e-06
0.012687707
7.7021388e-07
0.016676795
-1.2033312e-13
0.019198259
-7.7021391e-07
0.019198259
-1.1857894e-06
0.016676795
-1.1341838e-06
0.012687707
-8.1722904e-07
0.0085765622
-4.9126094e-07
0.005240493
-2.6078171e-07
0.0029424009
-1.2520594e-07
0.0015373751
-5.4265508e-08
0.00075205076
-2.0550931e-08
0.00034297572
-6.1774324e-09
0.00014238224
-1.0590505e-09
4.9782696e-05
1.0137466e-05
9.6515981e-10
1.0136501e-05
5.640201e-09
4.9778021e-05
1.877831e-08
0.0001423691
4.9611263e-08
0.00034294489
1.1454161e-07
0.00075198583
2.3881086e-07
0.0015372509
4.5070378e-07
0.002942189
7.5248233e-07
0.0052401913
1.051499e-06
0.0085762632
1.1108305e-06
0.012687647
7.276878e-07
0.016677178
1.2537443e-13
0.019198986
-7.2768727e-07
0.019198986
-1.1108298e-06
0.016677178
-1.0514996e-06
0.012687647
-7.5248697e-07
0.0085762632
-4.5071444e-07
0.0052401913
-2.3882664e-07
0.002942189
-1.1455891e-07
0.0015372509
-4.9626422e-08
0.00075198583
-1.8789095e-08
0.00034294489
-5.6474326e-09
0.0001423691
-9.6841023e-10
4.9778021e-05
1.0136501e-05
8.8581791e-10
1.0135615e-05
5.1772275e-09
4.9773729e-05
1.7239867e-08
0.00014235704
4.555888e-08
0.00034291657
1.0523214e-07
0.00075192616
2.1957633e-07
0.0015371365
4.1504202e-07
0.0029419936
6.9508867e-07
0.0052399112
9.7709331e-07
0.0085759812
1.0418662e-06
0.012687582
6.8800428e-07
0.016677532
4.2115422e-13
0.019199674
-6.880031e-07
0.019199674
-1.0418648e-06
0.016677532
-9.7709349e-07
0.012687582
-6.950936e-07
0.0085759812
-4.1505393e-07
0.0052399112
-2.1959404e-07
0.0029419936
-1.0525149e-07
0.0015371365
-4.5575747e-08
0.00075192616
-1.7251817e-08
0.00034291657
-5.1852069e-09
0.00014235704
-8.8939531e-10
4.9773729e-05
1.0135615e-05
8.1603736e-10
1.0134799e-05
4.7699323e-09
4.9769775e-05
1.5885942e-08
0.00014234592
4.1990489e-08
0.00034289047
9.7026681e-08
0.00075187112
2.0259341e-07
0.0015370309
3.8344865e-07
0.0029418127
6.4389519e-07
0.0052396508
9.0984193e-07
0.0085757152
9.7823488e-07
0.012687514
6.5086563e-07
0.01667786
7.3856571e-13
0.019200325
-6.5086376e-07
0.019200325
-9.782327e-07
0.01667786
-9.0984163e-07
0.012687514
-6.4390037e-07
0.0085757152
-3.834617e-07
0.0052396508
-2.0261285e-07
0.0029418127
-9.7047814e-08
0.0015370309
-4.200881e-08
0.00075187112
-1.5898865e-08
0.00034289047
-4.7785218e-09
0.00014234592
-8.1987769e-10
4.9769775e-05
1.0134799e-05
7.5416917e-10
1.0134045e-05
4.4087312e-09
4.9766121e-05
1.4684875e-08
0.00014233564
3.8823483e-08
0.00034286633
8.9738407e-08
0.00075182021
1.8748683e-07
0.0015369332
3.5526521e-07
0.0029416449
5.9795793e-07
0.0052394081
8.4878765e-07
0.0085754644
9.1936577e-07
0.012687443
6.1600998e-07
0.016678163
1.0641243e-12
0.019200941
-6.1600742e-07
0.019200941
-9.1936285e-07
0.016678163
-8.4878687e-07
0.012687443
-5.9796329e-07
0.0085754644
-3.5527918e-07
0.0052394081
-1.8750761e-07
0.0029416449
-8.9760864e-08
0.0015369332
-3.8842829e-08
0.00075182021
-1.4698454e-08
0.00034286633
-4.4177081e-09
0.00014233564
-7.5816992e-10
4.9766121e-05
1.0134045e-05
6.9892485e-10
1.0133346e-05
4.0861295e-09
4.9762734e-05
1.3611876e-08
0.00014232612
3.5993026e-08
0.00034284395
8.3220196e-08
0.00075177298
1.7395944e-07
0.0015368425
3.2996512e-07
0.0029414889
5.5650705e-07
0.0052391815
7.9312007e-07
0.0085752278
8.6476742e-07
0.012687372
5.8323127e-07
0.016678444
1.3393496e-12
0.019201524
-5.8322811e-07
0.019201524
-8.6476383e-07
0.016678444
-7.9311884e-07
0.012687372
-5.5651248e-07
0.0085752278
-3.2997969e-07
0.0052391815
-1.7398102e-07
0.0029414889
-8.3243317e-08
0.0015368425
-3.6012784e-08
0.00075177298
-1.3625655e-08
0.00034284395
-4.0951785e-09
0.00014232612
-7.0294145e-10
4.9762734e-05
1.0133346e-05
6.4928756e-10
1.0132697e-05
3.796212e-09
4.9759587e-05
1.2647361e-08
0.00014231727
3.3447841e-08
0.00034282315
7.7355444e-08
0.00075172907
1.6177485e-07
0.001536758
3.0712677e-07
0.0029413436
5.1891929e-07
0.0052389697
7.421723e-07
0.0085750045
8.1401327e-07
0.0126873
5.5234241e-07
0.016678706
1.5511062e-12
0.019202077
-5.5233874e-07
0.019202077
-8.1400913e-07
0.016678706
-7.4217069e-07
0.0126873
-5.1892471e-07
0.0085750045
-3.0714152e-07
0.0052389697
-1.6179649e-07
0.0029413436
-7.7378347e-08
0.001536758
-3.3467194e-08
0.00075172907
-1.2660736e-08
0.00034282315
-3.8049156e-09
0.00014231727
-6.5312902e-10
4.9759587e-05
1.0132697e-05
6.0444228e-10
1.0132092e-05
3.534237e-09
4.9756657e-05
1.1775626e-08
0.00014230903
3.1146762e-08
0.00034280378
7.2050361e-08
0.00075168817
1.5074231e-07
0.0015366793
2.8640774e-07
0.0029412079
4.8468149e-07
0.0052387715
6.9538032e-07
0.0085747938
7.6674333e-07
0.012687229
5.2320462e-07
0.01667895
1.6744235e-12
0.0192026
-5.2320064e-07
0.0192026
-7.6673885e-07
0.01667895
-6.9537848e-07
0.012687229
-4.8468677e-07
0.0085747938
-2.8642214e-07
0.0052387715
-1.5076305e-07
0.0029412079
-7.2071909e-08
0.0015366793
-3.1164659e-08
0.00075168817
-1.1787826e-08
0.00034280378
-3.5420637e-09
0.00014230903
-6.0786597e-10
4.9756657e-05
1.0132092e-05
5.6372955e-10
1.0131528e-05
3.296367e-09
4.9753925e-05
1.0983954e-08
0.00014230134
2.9056433e-08
0.0003427857
6.722887e-08
0.00075165
1.4070674e-07
0.0015366059
2.6752859e-07
0.0029410811
4.5337217e-07
0.0052385856
6.5227522e-07
0.0085745949
7.226357e-07
0.012687158
4.9567431e-07
0.016679177
1.6846198e-12
0.019203096
-4.9567029e-07
0.019203096
-7.2263118e-07
0.016679177
-6.5227335e-07
0.012687158
-4.5337719e-07
0.0085745949
-2.6754194e-07
0.0052385856
-1.4072538e-07
0.0029410811
-6.7247634e-08
0.0015366059
-2.9071563e-08
0.00075165
-1.0994018e-08
0.0003427857
-3.3026578e-09
0.00014230134
-5.6643539e-10
4.9753925e-05
1.0131528e-05
5.2660968e-10
1.0131002e-05
3.0794596e-09
4.9751372e-05
1.0261927e-08
0.00014229416
2.7149502e-08
0.00034276882
6.2828494e-08
0.00075161432
1.3154048e-07
0.0015365372
2.5025798e-07
0.0029409624
4.2463778e-07
0.0052384112
6.1245286e-07
0.0085744071
6.8142258e-07
0.012687089
4.6965753e-07
0.016679388
1.5337712e-12
0.019203565
-4.6965382e-07
0.019203565
-6.8141839e-07
0.016679388
-6.1245121e-07
0.012687089
-4.2464234e-07
0.0085744071
-2.5026941e-07
0.0052384112
-1.3155552e-07
0.0029409624
-6.2842711e-08
0.0015365372
-2.716026e-08
0.00075161432
-1.0268685e-08
0.00034276882
-3.0834149e-09
0.00014229416
-5.2823439e-10
4.9751372e-05
1.0131002e-05
4.9263799e-10
1.0130509e-05
2.8809237e-09
4.9748984e-05
9.6009516e-09
0.00014228744
2.5403402e-08
0.00034275302
5.8797669e-08
0.00075158092
1.2313804e-07
0.0015364728
2.3440448e-07
0.0029408511
3.9818536e-07
0.0052382475
5.7557677e-07
0.0085742297
6.428518e-07
0.012687022
4.4503291e-07
0.016679586
1.170332e-12
0.01920401
-4.4502996e-07
0.01920401
-6.4284842e-07
0.016679586
-5.7557563e-07
0.012687022
-3.9818922e-07
0.0085742297
-2.3441292e-07
0.0052382475
-1.2314764e-07
0.0029408511
-5.8805202e-08
0.0015364728
-2.5407858e-08
0.00075158092
-9.6030024e-09
0.00034275302
-2.8815901e-09
0.00014228744
-4.9274933e-10
4.9748984e-05
1.0130509e-05
4.6144303e-10
1.0130048e-05
2.6985945e-09
4.9746747e-05
8.9938445e-09
0.00014228114
2.3799254e-08
0.00034273821
5.5093181e-08
0.00075154963
1.1541081e-07
0.0015364125
2.1980635e-07
0.0029407467
3.7376356e-07
0.0052380935
5.4134944e-07
0.0085740621
6.0672316e-07
0.012686957
4.2174092e-07
0.016679771
5.8372904e-13
0.019204432
-4.2173923e-07
0.019204432
-6.0672114e-07
0.016679771
-5.4134914e-07
0.012686957
-3.7376639e-07
0.0085740621
-2.1981045e-07
0.0052380935
-1.1541274e-07
0.0029407467
-5.5091488e-08
0.0015364125
-2.3795122e-08
0.00075154963
-8.9895373e-09
0.00034273821
-2.694852e-09
0.00014228114
-4.5953409e-10
4.9746747e-05
1.0130048e-05
4.3271248e-10
1.0129615e-05
2.5306507e-09
4.9744649e-05
8.4345621e-09
0.00014227524
2.232118e-08
0.00034272432
5.1678718e-08
0.00075152027
1.0828435e-07
0.0015363559
2.0632782e-07
0.0029406487
3.5116235e-07
0.0052379487
5.0952276e-07
0.0085739038
5.728289e-07
0.012686893
3.99667e-07
0.016679944
-2.7400076e-13
0.019204832
-3.9966717e-07
0.019204832
-5.7282886e-07
0.016679944
-5.0952367e-07
0.012686893
-3.5116372e-07
0.0085739038
-2.0632598e-07
0.0052379487
-1.08276e-07
0.0029406487
-5.1664813e-08
0.0015363559
-2.2305791e-08
0.00075152027
-8.4219747e-09
0.00034272432
-2.5211992e-09
0.00014227524
-4.2819584e-10
4.9744649e-05
1.0129615e-05
4.0618103e-10
1.0129209e-05
2.3755471e-09
4.9742679e-05
7.917975e-09
0.0001422697
2.0955679e-08
0.00034271129
4.8523316e-08
0.00075149271
1.0169494e-07
0.0015363027
1.9385185e-07
0.0029405565
3.3019713e-07
0.0052378123
4.798717e-07
0.0085737541
5.4102241e-07
0.012686832
3.7878335e-07
0.016680107
-1.4296247e-12
0.01920521
-3.7878603e-07
0.01920521
-5.4102505e-07
0.016680107
-4.7987421e-07
0.012686832
-3.301965e-07
0.0085737541
-1.9384217e-07
0.0052378123
-1.0167325e-07
0.0029405565
-4.8493736e-08
0.0015363027
-2.0925954e-08
0.00075149271
-7.8948942e-09
0.00034271129
-2.3588932e-09
0.0001422697
-3.9838283e-10
4.9742679e-05
1.0129209e-05
3.8162086e-10
1.0128828e-05
2.2319541e-09
4.9740829e-05
7.4396719e-09
0.00014226449
1.9691169e-08
0.00034269904
4.56005e-08
0.0007514668
9.5588276e-08
0.0015362527
1.8227902e-07
0.0029404698
3.107127e-07
0.0052376839
4.522078e-07
0.0085736126
5.1112046e-07
0.012686773
3.5896872e-07
0.016680259
-2.9143169e-12
0.019205569
-3.5897467e-07
0.019205569
-5.1112659e-07
0.016680259
-4.5221233e-07
0.012686773
-3.1070943e-07
0.0085736126
-1.8225929e-07
0.0052376839
-9.5549705e-08
0.0029404698
-4.5551274e-08
0.0015362527
-1.9643585e-08
0.0007514668
-7.4035719e-09
0.00034269904
-2.2063969e-09
0.00014226449
-3.6977443e-10
4.9740829e-05
1.0128828e-05
3.5883743e-10
1.0128469e-05
2.0987419e-09
4.9739089e-05
6.9959017e-09
0.00014225959
1.8517754e-08
0.00034268751
4.2887485e-08
0.00075144243
8.9917262e-08
0.0015362057
1.7152231e-07
0.0029403882
2.925701e-07
0.0052375628
4.2635824e-07
0.0085734788
4.8302529e-07
0.012686717
3.4023105e-07
0.016680402
-4.7616866e-12
0.01920591
-3.4024108e-07
0.01920591
-4.8303581e-07
0.016680402
-4.2636526e-07
0.012686717
-2.9256342e-07
0.0085734788
-1.7148999e-07
0.0052375628
-8.9857786e-08
0.0029403882
-4.2814098e-08
0.0015362057
-1.8448316e-08
0.00075144243
-6.9439225e-09
0.00034268751
-2.0623587e-09
0.00014225959
-3.4207677e-10
4.973909e-05
1.0128469e-05
3.3765798e-10
1.0128131e-05
1.9749006e-09
4.9737452e-05
6.5833145e-09
0.00014225498
1.7426664e-08
0.00034267667
4.0364301e-08
0.00075141949
8.4641003e-08
0.0015361614
1.6150662e-07
0.0029403113
2.7565092e-07
0.0052374487
4.021739e-07
0.0085733523
4.5655966e-07
0.012686662
3.2242774e-07
0.016680536
-7.0070653e-12
0.019206232
-3.2244275e-07
0.019206232
-4.5657554e-07
0.016680536
-4.0218393e-07
0.012686662
-2.7563994e-07
0.0085733523
-1.6145882e-07
0.0052374487
-8.455607e-08
0.0029403113
-4.0261665e-08
0.0015361614
-1.7330878e-08
0.00075141949
-6.5122418e-09
0.00034267667
-1.925533e-09
0.00014225498
-3.1501182e-10
4.9737452e-05
1.0128131e-05
3.179387e-10
1.0127813e-05
1.8596022e-09
4.9735911e-05
6.1991616e-09
0.00014225064
1.6410599e-08
0.00034266646
3.8013979e-08
0.00075139789
7.9724132e-08
0.0015361197
1.5216625e-07
0.0029402389
2.5984965e-07
0.005237341
3.7952415e-07
0.0085732326
4.3167888e-07
0.01268661
3.0561337e-07
0.016680662
-9.6770864e-12
0.019206538
-3.0563435e-07
0.019206538
-4.3170122e-07
0.016680662
-3.7953773e-07
0.01268661
-2.5983336e-07
0.0085732326
-1.5209973e-07
0.005237341
-7.9608637e-08
0.0029402389
-3.7876403e-08
0.0015361197
-1.6283447e-08
0.00075139789
-6.1054118e-09
0.00034266646
-1.7948473e-09
0.00014225064
-2.8832652e-10
4.9735911e-05
1.0127814e-05
2.9954134e-10
1.0127514e-05
1.7520321e-09
4.9734458e-05
5.840745e-09
0.00014224655
1.5462563e-08
0.00034265684
3.5820789e-08
0.00075137753
7.5134703e-08
0.0015360804
1.434423e-07
0.0029401706
2.4507143e-07
0.0052372394
3.582813e-07
0.0085731194
4.0818934e-07
0.01268656
2.8960461e-07
0.01668078
-1.2804425e-11
0.019206827
-2.8963262e-07
0.019206827
-4.0821932e-07
0.01668078
-3.5829903e-07
0.01268656
-2.4504869e-07
0.0085731194
-1.4335343e-07
0.0052372394
-7.4982959e-08
0.0029401706
-3.5641946e-08
0.0015360804
-1.5298477e-08
0.00075137753
-5.7203468e-09
0.00034265684
-1.6692309e-09
0.00014224656
-2.617687e-10
4.9734459e-05
1.0127514e-05
2.8236476e-10
1.0127232e-05
1.6516234e-09
4.9733089e-05
5.506179e-09
0.0001422427
1.4577431e-08
0.00034264777
3.3772455e-08
0.00075135833
7.0846541e-08
0.0015360433
1.35286e-07
0.0029401061
2.3123935e-07
0.0052371434
3.383573e-07
0.0085730123
3.8611563e-07
0.012686512
2.7452286e-07
0.016680892
-1.6403636e-11
0.019207102
-2.74559e-07
0.019207102
-3.861545e-07
0.016680892
-3.383798e-07
0.012686512
-2.3120886e-07
0.0085730123
-1.3517073e-07
0.0052371434
-7.0652262e-08
0.0029401061
-3.3545371e-08
0.0015360433
-1.4370286e-08
0.00075135833
-5.3547656e-09
0.00034264777
-1.5478567e-09
0.0001422427
-2.3512128e-10
4.973309e-05
1.0127232e-05
2.6628641e-10
1.0126965e-05
1.5576367e-09
4.9731798e-05
5.1930218e-09
0.00014223906
1.3749024e-08
0.00034263921
3.1855556e-08
0.00075134023
6.683309e-08
0.0015360084
1.2764798e-07
0.0029400453
2.182695e-07
0.0052370528
3.1962424e-07
0.0085729109
3.6521541e-07
0.012686467
2.6011581e-07
0.016680997
-2.0477197e-11
0.019207362
-2.601612e-07
0.019207362
-3.6526449e-07
0.016680997
-3.1965212e-07
0.012686467
-2.1822977e-07
0.0085729109
-1.2750185e-07
0.0052370528
-6.6589386e-08
0.0029400453
-3.1572629e-08
0.0015360083
-1.3492172e-08
0.00075134023
-5.0058716e-09
0.00034263921
-1.4297559e-09
0.00014223907
-2.0816114e-10
4.9731798e-05
1.0126966e-05
2.5125479e-10
1.0126714e-05
1.4698211e-09
4.9730579e-05
4.9004264e-09
0.00014223563
1.2974717e-08
0.00034263114
3.0062811e-08
0.00075132314
6.3077321e-08
0.0015359753
1.204965e-07
0.0029399879
2.0611752e-07
0.0052369672
3.0205251e-07
0.008572815
3.4561753e-07
0.012686423
2.4660549e-07
0.016681096
-2.4988665e-11
0.019207609
-2.4666119e-07
0.019207609
-3.4567809e-07
0.016681096
-3.0208631e-07
0.012686423
-2.0606685e-07
0.008572815
-1.2031459e-07
0.0052369672
-6.2776681e-08
0.0029399879
-2.9715822e-08
0.0015359753
-1.2661014e-08
0.00075132314
-4.6724893e-09
0.00034263114
-1.3144748e-09
0.00014223564
-1.8075123e-10
4.973058e-05
1.0126714e-05
2.3713457e-10
1.0126477e-05
1.3873224e-09
4.9729429e-05
4.6255878e-09
0.0001422324
1.2247738e-08
0.00034262351
2.8380585e-08
0.00075130701
5.9553955e-08
0.0015359442
1.1378401e-07
0.0029399337
1.9469313e-07
0.0052368863
2.8547924e-07
0.0085727242
3.2697948e-07
0.012686382
2.3362821e-07
0.016681189
-2.9893232e-11
0.019207842
-2.3369519e-07
0.019207842
-3.2705272e-07
0.016681189
-2.8551936e-07
0.012686382
-1.9462946e-07
0.0085727242
-1.1356087e-07
0.0052368863
-5.9188268e-08
0.0029399337
-2.7960762e-08
0.0015359442
-1.1869632e-08
0.00075130701
-4.3515473e-09
0.00034262352
-1.2010113e-09
0.0001422324
-1.5269829e-10
4.972943e-05
1.0126477e-05
2.2396495e-10
1.0126253e-05
1.3104826e-09
4.9728343e-05
4.3695892e-09
0.00014222934
1.1569918e-08
0.00034261631
2.6809863e-08
0.00075129176
5.6259865e-08
0.0015359147
1.0750439e-07
0.0029398824
1.8400546e-07
0.0052368098
2.6997852e-07
0.0085726382
3.0960245e-07
0.012686342
2.2156245e-07
0.016681277
-3.5079673e-11
0.019208064
-2.2164139e-07
0.019208064
-3.096893e-07
0.016681277
-2.7002507e-07
0.012686342
-1.8392635e-07
0.0085726382
-1.0723411e-07
0.0052368098
-5.5820621e-08
0.0029398824
-2.6308185e-08
0.0015359147
-1.1119752e-08
0.00075129176
-4.0441004e-09
0.00034261631
-1.0897202e-09
0.00014222934
-1.2405734e-10
4.9728343e-05
1.0126253e-05
2.1152464e-10
1.0126041e-05
1.2378483e-09
4.9727316e-05
4.1277052e-09
0.00014222645
1.0930455e-08
0.00034260951
2.5330949e-08
0.00075127736
5.3162425e-08
0.0015358869
1.0159688e-07
0.002939834
1.7392456e-07
0.0052367375
2.5528827e-07
0.0085725569
2.9296047e-07
0.012686304
2.0987049e-07
0.01668136
-4.045992e-11
0.019208274
-2.0996182e-07
0.019208274
-2.9306162e-07
0.01668136
-2.5534102e-07
0.012686304
-1.7382725e-07
0.0085725569
-1.0127338e-07
0.0052367374
-5.2641295e-08
0.002939834
-2.4739014e-08
0.0015358869
-1.0401388e-08
0.00075127736
-3.7462587e-09
0.00034260951
-9.7970054e-10
0.00014222645
-9.4842294e-11
4.9727317e-05
1.0126042e-05
2.0009265e-10
1.0125841e-05
1.1713165e-09
4.9726344e-05
3.9060326e-09
0.00014222371
1.0342544e-08
0.00034260307
2.3965203e-08
0.00075126374
5.0290851e-08
0.0015358606
9.6111713e-08
0.0029397882
1.645737e-07
0.005236669
2.4169291e-07
0.0085724798
2.7765643e-07
0.012686268
1.9918184e-07
0.016681439
-4.5799479e-11
0.019208473
-1.9928538e-07
0.019208473
-2.77772e-07
0.016681439
-2.4175117e-07
0.012686268
-1.6445506e-07
0.0085724798
-9.5728878e-08
0.005236669
-4.9679974e-08
0.0029397881
-2.3275481e-08
0.0015358605
-9.7288033e-09
0.00075126374
-3.4650148e-09
0.00034260308
-8.7360357e-10
0.00014222371
-6.5733328e-11
4.9726345e-05
1.0125841e-05
1.8906402e-10
1.0125652e-05
1.1069583e-09
4.9725426e-05
3.6919719e-09
0.00014222113
9.7780835e-09
0.00034259698
2.2663898e-08
0.00075125085
4.7571758e-08
0.0015358356
9.0925502e-08
0.0029397448
1.5569984e-07
0.0052366042
2.2870482e-07
0.0085724068
2.6285762e-07
0.012686234
1.8870305e-07
0.016681513
-5.0861243e-11
0.019208662
-1.8881844e-07
0.019208662
-2.629875e-07
0.016681513
-2.2876748e-07
0.012686234
-1.5555638e-07
0.0085724068
-9.0477342e-08
0.0052366042
-4.6864176e-08
0.0029397448
-2.1870367e-08
0.0015358356
-9.0755113e-09
0.00075125085
-3.1889892e-09
0.00034259699
-7.6847807e-10
0.00014222113
-3.659464e-11
4.9725427e-05
1.0125652e-05
1.795735e-10
1.0125472e-05
1.0520226e-09
4.9724553e-05
3.5085731e-09
0.00014221867
9.2881878e-09
0.0003425912
2.1514918e-08
0.00075123862
4.5134413e-08
0.001535812
8.6244214e-08
0.0029397037
1.4770093e-07
0.0052365428
2.1705631e-07
0.0085723374
2.4971573e-07
0.012686202
1.7948484e-07
0.016681583
-5.509637e-11
0.019208841
-1.7961101e-07
0.019208841
-2.4985942e-07
0.016681583
-2.1712222e-07
0.012686202
-1.4752954e-07
0.0085723374
-8.5726566e-08
0.0052365427
-4.4327291e-08
0.0029397037
-2.0617549e-08
0.001535812
-8.4990166e-09
0.00075123862
-2.9464514e-09
0.00034259121
-6.752965e-10
0.00014221867
-1.028542e-11
4.9724554e-05
1.0125472e-05
1.6833547e-10
1.0125303e-05
9.867779e-10
4.9723734e-05
3.2946036e-09
0.00014221636
8.7377137e-09
0.00034258576
2.0286445e-08
0.00075122707
4.2652516e-08
0.0015357897
8.1631297e-08
0.0029396647
1.3991955e-07
0.0052364845
2.0572473e-07
0.0085722716
2.3677495e-07
0.012686171
1.7031156e-07
0.01668165
-5.7849533e-11
0.019209011
-1.7044632e-07
0.019209011
-2.3693145e-07
0.01668165
-2.0579333e-07
0.012686171
-1.3971968e-07
0.0085722716
-8.1046149e-08
0.0052364844
-4.175444e-08
0.0029396647
-1.9301129e-08
0.0015357896
-7.8812414e-09
0.00075122707
-2.6904764e-09
0.00034258576
-5.8446651e-10
0.00014221636
1.1691392e-11
4.9723735e-05
1.0125303e-05
1.6340468e-10
1.0125139e-05
9.5854832e-10
4.9722938e-05
3.1948952e-09