/*--------------------------------*- C++ -*----------------------------------*\
| =========                 |                                                 |
| \\      /  F ield         | OpenFOAM: The Open Source CFD Toolbox           |
|  \\    /   O peration     | Version:  2406                                  |
|   \\  /    A nd           | Website:  www.openfoam.com                      |
|    \\/     M anipulation  |                                                 |
\*---------------------------------------------------------------------------*/
FoamFile
{
    version     2.0;
    format      ascii;
    arch        "LSB;label=32;scalar=64";
    class       volVectorField;
    location    "37";
    object      U;
}
// * * * * * * * * * * * * * * * * * * * * * * * * * * * * * * * * * * * * * //

dimensions      [0 1 -1 0 0 0 0];

internalField   nonuniform List<vector> 
1176
(
(0.019493789 7.0786176e-07 0)
(0.066677318 8.1696515e-06 0)
(0.13357994 3.9503153e-05 0)
(0.22724701 0.00010873574 0)
(0.35591522 0.00021176024 0)
(0.52772023 0.00030396284 0)
(0.74780387 0.00031818021 0)
(1.0136216 0.00024904594 0)
(1.3093323 0.00016667003 0)
(1.6017081 0.00011264681 0)
(1.8421723 7.0213941e-05 0)
(1.9793239 2.3940383e-05 0)
(1.9793239 -2.3941241e-05 0)
(1.8421723 -7.0214221e-05 0)
(1.6017081 -0.00011264514 0)
(1.3093323 -0.00016666277 0)
(1.0136216 -0.00024902698 0)
(0.74780387 -0.00031814438 0)
(0.52772024 -0.00030391094 0)
(0.35591523 -0.00021170094 0)
(0.22724701 -0.00010868101 0)
(0.13357995 -3.9463207e-05 0)
(0.066677324 -8.1474954e-06 0)
(0.019493791 -7.012138e-07 0)
(0.020187017 -3.7419199e-06 0)
(0.068813532 -2.4638645e-05 0)
(0.13732107 -9.6548562e-05 0)
(0.23247391 -0.00024839461 0)
(0.36204617 -0.00047268781 0)
(0.53373557 -0.00067421179 0)
(0.75267407 -0.00069486931 0)
(1.0170176 -0.00049687347 0)
(1.3116385 -0.00023345894 0)
(1.6034438 -4.982427e-05 0)
(1.8436588 1.9764558e-05 0)
(1.9807026 1.3426881e-05 0)
(1.9807026 -1.3429721e-05 0)
(1.8436588 -1.9768114e-05 0)
(1.6034438 4.9819307e-05 0)
(1.3116385 0.00023345235 0)
(1.0170176 0.0004968641 0)
(0.75267403 0.000694854 0)
(0.53373553 0.00067419004 0)
(0.36204615 0.00047266384 0)
(0.2324739 0.00024837411 0)
(0.13732107 9.6535098e-05 0)
(0.068813532 2.4632113e-05 0)
(0.020187017 3.7401194e-06 0)
(0.020018442 2.0918351e-06 0)
(0.068327405 1.2720768e-05 0)
(0.13655404 4.6877252e-05 0)
(0.23159544 0.00011389739 0)
(0.36138709 0.00019769271 0)
(0.53366969 0.00023903246 0)
(0.75344344 0.00020559837 0)
(1.0184881 0.00011361151 0)
(1.3134639 7.431401e-05 0)
(1.6053464 7.9533242e-05 0)
(1.8455118 7.0516735e-05 0)
(1.9825245 2.7825724e-05 0)
(1.9825245 -2.7825396e-05 0)
(1.8455118 -7.0515675e-05 0)
(1.6053464 -7.9530738e-05 0)
(1.3134639 -7.430968e-05 0)
(1.0184882 -0.0001136062 0)
(0.75344346 -0.00020559568 0)
(0.53366971 -0.00023902942 0)
(0.3613871 -0.00019769184 0)
(0.23159545 -0.000113898 0)
(0.13655405 -4.6878598e-05 0)
(0.068327406 -1.2721981e-05 0)
(0.020018442 -2.0922711e-06 0)
(0.019966547 7.0076239e-07 0)
(0.068159231 4.6870408e-06 0)
(0.13624021 1.9355435e-05 0)
(0.2311194 5.6456176e-05 0)
(0.36078093 0.00013444571 0)
(0.53306293 0.00025829332 0)
(0.75295637 0.0003534477 0)
(1.0181104 0.00036912046 0)
(1.313184 0.00030758924 0)
(1.6051633 0.00022777278 0)
(1.8453995 0.00014555951 0)
(1.9824491 4.9996898e-05 0)
(1.9824491 -4.9997939e-05 0)
(1.8453995 -0.00014556023 0)
(1.6051633 -0.00022777283 0)
(1.313184 -0.00030759033 0)
(1.0181104 -0.00036912176 0)
(0.75295636 -0.0003534475 0)
(0.53306292 -0.00025829409 0)
(0.36078092 -0.00013444508 0)
(0.23111939 -5.6454785e-05 0)
(0.1362402 -1.9354147e-05 0)
(0.068159229 -4.6862611e-06 0)
(0.019966546 -7.005239e-07 0)
(0.019942203 2.9076954e-07 0)
(0.068078703 1.9872071e-06 0)
(0.13608628 8.2361306e-06 0)
(0.23087699 2.3699363e-05 0)
(0.36044744 5.6881722e-05 0)
(0.53266448 0.00012306907 0)
(0.75256878 0.00022681858 0)
(1.017808 0.00032272281 0)
(1.3129044 0.00034572535 0)
(1.604912 0.00030730044 0)
(1.8452029 0.00021095346 0)
(1.9822898 7.4614404e-05 0)
(1.9822898 -7.4615018e-05 0)
(1.8452029 -0.00021095361 0)
(1.604912 -0.00030729997 0)
(1.3129044 -0.00034572452 0)
(1.017808 -0.00032272396 0)
(0.75256878 -0.00022682078 0)
(0.53266448 -0.00012307221 0)
(0.36044744 -5.688471e-05 0)
(0.23087699 -2.3701706e-05 0)
(0.13608628 -8.2376563e-06 0)
(0.068078703 -1.9879861e-06 0)
(0.019942204 -2.9099559e-07 0)
(0.019933132 1.7181706e-07 0)
(0.068047755 1.1940841e-06 0)
(0.13602488 5.0652222e-06 0)
(0.23077535 1.4968917e-05 0)
(0.36029898 3.6219671e-05 0)
(0.5324792 7.6944502e-05 0)
(0.75239427 0.00014713817 0)
(1.0177222 0.00023749096 0)
(1.3129292 0.00028525678 0)
(1.6049746 0.00027441567 0)
(1.8452865 0.00019644673 0)
(1.9823834 7.1177225e-05 0)
(1.9823834 -7.1176857e-05 0)
(1.8452865 -0.00019644581 0)
(1.6049746 -0.00027441422 0)
(1.3129292 -0.00028525523 0)
(1.0177222 -0.00023749022 0)
(0.75239428 -0.00014713825 0)
(0.5324792 -7.6945109e-05 0)
(0.36029899 -3.6220381e-05 0)
(0.23077535 -1.4969511e-05 0)
(0.13602489 -5.0656214e-06 0)
(0.068047755 -1.1942967e-06 0)
(0.019933132 -1.718804e-07 0)
(0.0199234 1.5587767e-07 0)
(0.068015507 1.0700835e-06 0)
(0.13596286 4.4934868e-06 0)
(0.23067607 1.3195517e-05 0)
(0.36015773 3.1857249e-05 0)
(0.53230178 6.6958478e-05 0)
(0.75221429 0.0001241193 0)
(1.0176105 0.00019917114 0)
(1.3129358 0.00025490919 0)
(1.6050904 0.00024595241 0)
(1.8454579 0.00018127952 0)
(1.9825798 6.6548935e-05 0)
(1.9825798 -6.6548077e-05 0)
(1.8454579 -0.00018127827 0)
(1.6050904 -0.00024595101 0)
(1.3129358 -0.00025490807 0)
(1.0176105 -0.00019917056 0)
(0.75221429 -0.00012411902 0)
(0.53230178 -6.6958315e-05 0)
(0.36015773 -3.1857098e-05 0)
(0.23067607 -1.3195381e-05 0)
(0.13596286 -4.4933798e-06 0)
(0.068015507 -1.0700201e-06 0)
(0.0199234 -1.5585807e-07 0)
(0.019915697 1.2759024e-07 0)
(0.067989792 8.7803072e-07 0)
(0.13591293 3.6960325e-06 0)
(0.23059503 1.0901668e-05 0)
(0.36003987 2.6613471e-05 0)
(0.53214753 5.7237338e-05 0)
(0.75204133 0.00010911084 0)
(1.0174723 0.00017936678 0)
(1.3128926 0.00023802537 0)
(1.6051414 0.00023746809 0)
(1.8455877 0.00017750721 0)
(1.9827514 6.5539761e-05 0)
(1.9827514 -6.5539004e-05 0)
(1.8455877 -0.00017750621 0)
(1.6051414 -0.00023746706 0)
(1.3128926 -0.00023802465 0)
(1.0174723 -0.00017936628 0)
(0.75204133 -0.00010911045 0)
(0.53214753 -5.7237031e-05 0)
(0.36003987 -2.6613263e-05 0)
(0.23059503 -1.0901556e-05 0)
(0.13591293 -3.6959803e-06 0)
(0.067989792 -8.7800949e-07 0)
(0.019915697 -1.2758462e-07 0)
(0.019909217 1.0466492e-07 0)
(0.067968141 7.2315901e-07 0)
(0.13587084 3.0521497e-06 0)
(0.23052654 9.0119104e-06 0)
(0.35993984 2.2000009e-05 0)
(0.53201542 4.7473637e-05 0)
(0.75188901 9.2014351e-05 0)
(1.0173341 0.00015618226 0)
(1.3128278 0.00021699719 0)
(1.6051595 0.00022709667 0)
(1.8456699 0.0001723266 0)
(1.982868 6.4147941e-05 0)
(1.982868 -6.4147429e-05 0)
(1.8456699 -0.00017232595 0)
(1.6051595 -0.00022709601 0)
(1.3128278 -0.00021699669 0)
(1.0173341 -0.00015618176 0)
(0.75188901 -9.2013909e-05 0)
(0.53201542 -4.7473318e-05 0)
(0.35993984 -2.1999829e-05 0)
(0.23052654 -9.011837e-06 0)
(0.13587084 -3.0521381e-06 0)
(0.067968141 -7.2316796e-07 0)
(0.019909217 -1.0466966e-07 0)
(0.019903971 8.6134538e-08 0)
(0.067950552 5.9698807e-07 0)
(0.13583649 2.5274272e-06 0)
(0.2304703 7.4916948e-06 0)
(0.35985692 1.837642e-05 0)
(0.53190436 3.9835861e-05 0)
(0.75175836 7.7712389e-05 0)
(1.0172122 0.00013432464 0)
(1.3127613 0.00019323401 0)
(1.6051772 0.00021058375 0)
(1.8457533 0.0001627299 0)
(1.9829863 6.1084378e-05 0)
(1.9829863 -6.1084135e-05 0)
(1.8457533 -0.0001627296 0)
(1.6051772 -0.00021058346 0)
(1.3127613 -0.00019323374 0)
(1.0172122 -0.00013432433 0)
(0.75175836 -7.7712178e-05 0)
(0.53190436 -3.9835798e-05 0)
(0.35985692 -1.8376463e-05 0)
(0.2304703 -7.4917775e-06 0)
(0.13583649 -2.527515e-06 0)
(0.067950553 -5.9705003e-07 0)
(0.019903971 -8.615529e-08 0)
(0.019899543 7.3362946e-08 0)
(0.067935688 5.0898209e-07 0)
(0.13580742 2.1569263e-06 0)
(0.23042259 6.4028237e-06 0)
(0.35978626 1.5747676e-05 0)
(0.5318089 3.4277937e-05 0)
(0.75164409 6.7204754e-05 0)
(1.0171021 0.00011723013 0)
(1.3126976 0.00017262484 0)
(1.6051928 0.00019308921 0)
(1.8458371 0.00015219876 0)
(1.9831061 5.7544848e-05 0)
(1.9831061 -5.7544764e-05 0)
(1.8458371 -0.00015219866 0)
(1.6051928 -0.00019308913 0)
(1.3126976 -0.00017262476 0)
(1.0171021 -0.00011723008 0)
(0.75164409 -6.7204876e-05 0)
(0.5318089 -3.4278217e-05 0)
(0.35978626 -1.574801e-05 0)
(0.23042259 -6.4031156e-06 0)
(0.13580742 -2.1571478e-06 0)
(0.067935688 -5.0911464e-07 0)
(0.019899543 -7.3404792e-08 0)
(0.019895721 6.3730505e-08 0)
(0.06792285 4.4253184e-07 0)
(0.13578228 1.8767577e-06 0)
(0.23038125 5.5765581e-06 0)
(0.35972483 1.3738722e-05 0)
(0.53172535 2.9998054e-05 0)
(0.75154264 5.9111624e-05 0)
(1.0170011 0.00010388828 0)
(1.3126344 0.0001554029 0)
(1.6052015 0.00017849535 0)
(1.8459125 0.00014271559 0)
(1.9832185 5.4330628e-05 0)
(1.9832185 -5.433062e-05 0)
(1.8459125 -0.00014271559 0)
(1.6052015 -0.00017849537 0)
(1.3126345 -0.00015540296 0)
(1.0170011 -0.00010388845 0)
(0.75154264 -5.9112019e-05 0)
(0.53172535 -2.999861e-05 0)
(0.35972483 -1.373929e-05 0)
(0.23038125 -5.5770218e-06 0)
(0.13578228 -1.877092e-06 0)
(0.06792285 -4.4272533e-07 0)
(0.019895721 -6.3790787e-08 0)
(0.019892371 5.6090866e-08 0)
(0.067911586 3.8978005e-07 0)
(0.13576021 1.654129e-06 0)
(0.2303449 4.9187719e-06 0)
(0.35967069 1.2132017e-05 0)
(0.53165136 2.6542439e-05 0)
(0.7514519 5.2498776e-05 0)
(1.0169086 9.2875699e-05 0)
(1.3125728 0.0001406149 0)
(1.605205 0.00016529619 0)
(1.8459798 0.00013398929 0)
(1.9833221 5.1387438e-05 0)
(1.9833221 -5.1387472e-05 0)
(1.8459798 -0.00013398933 0)
(1.605205 -0.00016529627 0)
(1.3125728 -0.00014061505 0)
(1.0169086 -9.2876036e-05 0)
(0.7514519 -5.2499369e-05 0)
(0.53165136 -2.65432e-05 0)
(0.35967069 -1.2132768e-05 0)
(0.2303449 -4.9193751e-06 0)
(0.13576021 -1.6545588e-06 0)
(0.067911586 -3.9002685e-07 0)
(0.019892371 -5.6167499e-08 0)
(0.019889403 4.9848375e-08 0)
(0.067901607 3.4661517e-07 0)
(0.13574064 1.4717603e-06 0)
(0.23031264 4.3793849e-06 0)
(0.35962253 1.08123e-05 0)
(0.53158531 2.3691387e-05 0)
(0.75137029 4.6984107e-05 0)
(1.016824 8.3546261e-05 0)
(1.3125139 0.00012773742 0)
(1.6052051 0.00015293344 0)
(1.8460415 0.00012582035 0)
(1.9834196 4.861647e-05 0)
(1.9834196 -4.8616527e-05 0)
(1.8460415 -0.00012582041 0)
(1.6052051 -0.00015293354 0)
(1.3125139 -0.00012773763 0)
(1.016824 -8.3546704e-05 0)
(0.75137029 -4.6984844e-05 0)
(0.53158531 -2.3692314e-05 0)
(0.35962253 -1.0813208e-05 0)
(0.23031264 -4.3801143e-06 0)
(0.13574064 -1.4722797e-06 0)
(0.067901607 -3.469132e-07 0)
(0.019889403 -4.9940882e-08 0)
(0.019886752 4.4698028e-08 0)
(0.067892685 3.1094077e-07 0)
(0.13572313 1.3208129e-06 0)
(0.23028375 3.9321999e-06 0)
(0.35957935 9.7158699e-06 0)
(0.53152592 2.1315573e-05 0)
(0.75129648 4.2360229e-05 0)
(1.0167465 7.5619847e-05 0)
(1.3124581 0.00011654228 0)
(1.6052027 0.00014169866 0)
(1.8460982 0.00011827096 0)
(1.9835117 4.6031521e-05 0)
(1.9835117 -4.6031584e-05 0)
(1.8460982 -0.00011827102 0)
(1.6052027 -0.00014169876 0)
(1.3124581 -0.00011654252 0)
(1.0167465 -7.562036e-05 0)
(0.75129648 -4.2361088e-05 0)
(0.53152592 -2.1316657e-05 0)
(0.35957935 -9.716934e-06 0)
(0.23028375 -3.9330559e-06 0)
(0.13572313 -1.3214229e-06 0)
(0.067892685 -3.1129086e-07 0)
(0.019886752 -4.4806701e-08 0)
(0.019884362 4.0385908e-08 0)
(0.067884644 2.8103757e-07 0)
(0.13570735 1.194153e-06 0)
(0.23025769 3.5564838e-06 0)
(0.35954035 8.7928904e-06 0)
(0.53147216 1.9310025e-05 0)
(0.75122934 3.8440149e-05 0)
(1.0166753 6.8838914e-05 0)
(1.3124053 0.00010678348 0)
(1.6051983 0.00013155222 0)
(1.8461504 0.00011132794 0)
(1.9835985 4.3631098e-05 0)
(1.9835985 -4.3631148e-05 0)
(1.8461504 -0.00011132798 0)
(1.6051983 -0.0001315523 0)
(1.3124053 -0.00010678372 0)
(1.0166753 -6.8839486e-05 0)
(0.75122934 -3.8441137e-05 0)
(0.53147216 -1.931128e-05 0)
(0.35954035 -8.7941253e-06 0)
(0.23025769 -3.5574765e-06 0)
(0.13570735 -1.1948595e-06 0)
(0.067884644 -2.8144268e-07 0)
(0.019884362 -4.0511603e-08 0)
(0.019882195 3.6711298e-08 0)
(0.067877349 2.555381e-07 0)
(0.13569303 1.0860781e-06 0)
(0.23023403 3.2356296e-06 0)
(0.3595049 8.0035841e-06 0)
(0.5314232 1.7590932e-05 0)
(0.75116797 3.5067223e-05 0)
(1.0166096 6.2964127e-05 0)
(1.3123553 9.8203168e-05 0)
(1.6051923 0.00012233355 0)
(1.8461982 0.00010491308 0)
(1.9836803 4.1390409e-05 0)
(1.9836803 -4.1390426e-05 0)
(1.8461982 -0.00010491307 0)
(1.6051923 -0.00012233359 0)
(1.3123553 -9.8203396e-05 0)
(1.0166096 -6.2964764e-05 0)
(0.75116797 -3.5068358e-05 0)
(0.5314232 -1.7592381e-05 0)
(0.3595049 -8.0050069e-06 0)
(0.23023403 -3.2367699e-06 0)
(0.13569303 -1.086887e-06 0)
(0.067877349 -2.5600092e-07 0)
(0.019882195 -3.6854761e-08 0)
(0.019880219 3.3538811e-08 0)
(0.067870695 2.3351104e-07 0)
(0.13567996 9.9267366e-07 0)
(0.23021243 2.9581547e-06 0)
(0.35947252 7.3202983e-06 0)
(0.53137842 1.6100141e-05 0)
(0.75111164 3.2133007e-05 0)
(1.0165488 5.7823383e-05 0)
(1.3123082 9.0602439e-05 0)
(1.6051852 0.00011395336 0)
(1.8462423 9.8955894e-05 0)
(1.9837576 3.9288909e-05 0)
(1.9837576 -3.9288877e-05 0)
(1.8462423 -9.8955831e-05 0)
(1.6051852 -0.00011395333 0)
(1.3123082 -9.0602654e-05 0)
(1.0165488 -5.7824092e-05 0)
(0.75111164 -3.21343e-05 0)
(0.53137842 -1.6101795e-05 0)
(0.35947252 -7.3219167e-06 0)
(0.23021243 -2.959446e-06 0)
(0.13567996 -9.93586e-07 0)
(0.067870695 -2.3403146e-07 0)
(0.019880219 -3.369993e-08 0)
(0.019878409 3.0774365e-08 0)
(0.0678646 2.1430727e-07 0)
(0.13566798 9.1120326e-07 0)
(0.23019263 2.7159911e-06 0)
(0.35944282 6.7234336e-06 0)
(0.53133728 1.4796023e-05 0)
(0.75105977 2.9559696e-05 0)
(1.0164925 5.3292538e-05 0)
(1.3122638 8.3831558e-05 0)
(1.6051772 0.000106324 0)
(1.846283 9.3403167e-05 0)
(1.9838307 3.7312391e-05 0)
(1.9838307 -3.7312302e-05 0)
(1.846283 -9.3403037e-05 0)
(1.6051772 -0.00010632391 0)
(1.3122638 -8.383176e-05 0)
(1.0164925 -5.3293319e-05 0)
(0.75105977 -2.9561147e-05 0)
(0.53133728 -1.4797876e-05 0)
(0.35944282 -6.7252395e-06 0)
(0.23019263 -2.7174252e-06 0)
(0.13566798 -9.122118e-07 0)
(0.0678646 -2.148807e-07 0)
(0.019878409 -3.0951646e-08 0)
(0.019876745 2.8344297e-08 0)
(0.067858993 1.9741914e-07 0)
(0.13565697 8.395288e-07 0)
(0.23017441 2.50284e-06 0)
(0.35941547 6.1976685e-06 0)
(0.53129936 1.3645823e-05 0)
(0.75101183 2.728534e-05 0)
(1.0164401 4.927175e-05 0)
(1.3122219 7.7767712e-05 0)
(1.6051688 9.93561e-05 0)
(1.8463207 8.8213504e-05 0)
(1.9838998 3.544948e-05 0)
(1.9838998 -3.5449328e-05 0)
(1.8463207 -8.8213302e-05 0)
(1.6051688 -9.9355949e-05 0)
(1.3122219 -7.7767896e-05 0)
(1.0164401 -4.9272596e-05 0)
(0.75101183 -2.7286933e-05 0)
(0.53129936 -1.3647853e-05 0)
(0.35941547 -6.1996359e-06 0)
(0.23017441 -2.5043943e-06 0)
(0.13565697 -8.4061663e-07 0)
(0.067858993 -1.9803546e-07 0)
(0.019876745 -2.8534552e-08 0)
(0.019875208 2.619068e-08 0)
(0.067853818 1.8244674e-07 0)
(0.1356468 7.7596422e-07 0)
(0.23015758 2.3137301e-06 0)
(0.3593902 5.7309035e-06 0)
(0.5312643 1.2623611e-05 0)
(0.75096742 2.5260405e-05 0)
(1.0163914 4.5679602e-05 0)
(1.3121824 7.2308103e-05 0)
(1.6051599 9.2973386e-05 0)
(1.8463555 8.335029e-05 0)
(1.9839652 3.3689518e-05 0)
(1.9839652 -3.3689304e-05 0)
(1.8463555 -8.3350018e-05 0)
(1.6051599 -9.297317e-05 0)
(1.3121824 -7.2308267e-05 0)
(1.0163914 -4.56805e-05 0)
(0.75096742 -2.5262113e-05 0)
(0.5312643 -1.2625775e-05 0)
(0.3593902 -5.7329881e-06 0)
(0.23015758 -2.3153674e-06 0)
(0.1356468 -7.7710371e-07 0)
(0.067853818 -1.8308971e-07 0)
(0.019875208 -2.6388814e-08 0)
(0.019873787 2.4268348e-08 0)
(0.067849027 1.6907785e-07 0)
(0.13563738 7.1919093e-07 0)
(0.230142 2.1447663e-06 0)
(0.35936679 5.313635e-06 0)
(0.53123178 1.170896e-05 0)
(0.75092616 2.3445666e-05 0)
(1.016346 4.2450637e-05 0)
(1.3121452 6.7367696e-05 0)
(1.6051509 8.7107579e-05 0)
(1.8463878 7.8785183e-05 0)
(1.9840271 3.2023925e-05 0)
(1.9840271 -3.2023654e-05 0)
(1.8463878 -7.8784848e-05 0)
(1.6051509 -8.7107303e-05 0)
(1.3121452 -6.7367837e-05 0)
(1.016346 -4.245157e-05 0)
(0.75092616 -2.3447446e-05 0)
(0.53123178 -1.1711199e-05 0)
(0.35936679 -5.3157731e-06 0)
(0.230142 -2.1464332e-06 0)
(0.13563738 -7.2034286e-07 0)
(0.067849027 -1.6972451e-07 0)
(0.019873787 -2.4467179e-08 0)
(0.019872467 2.2541692e-08 0)
(0.067844581 1.5706618e-07 0)
(0.13562864 6.6816831e-07 0)
(0.23012754 1.992871e-06 0)
(0.35934505 4.9383393e-06 0)
(0.53120156 1.0885661e-05 0)
(0.75088776 2.1809898e-05 0)
(1.0163035 3.9532335e-05 0)
(1.31211 6.2876619e-05 0)
(1.6051418 8.170217e-05 0)
(1.8464178 7.4491947e-05 0)
(1.9840857 3.044455e-05 0)
(1.9840857 -3.0444237e-05 0)
(1.8464178 -7.449156e-05 0)
(1.6051418 -8.1701845e-05 0)
(1.31211 -6.2876738e-05 0)
(1.0163035 -3.9533278e-05 0)
(0.75088776 -2.1811693e-05 0)
(0.53120156 -1.0887893e-05 0)
(0.35934505 -4.9404461e-06 0)
(0.23012754 -1.9944963e-06 0)
(0.13562864 -6.6928065e-07 0)
(0.067844581 -1.5768617e-07 0)
(0.019872467 -2.2731733e-08 0)
(0.01987124 2.0982184e-08 0)
(0.067840446 1.4621445e-07 0)
(0.13562051 6.2206235e-07 0)
(0.23011408 1.8555754e-06 0)
(0.35932481 4.5989715e-06 0)
(0.53117342 1.0140651e-05 0)
(0.75085195 2.0327843e-05 0)
(1.0162638 3.6881998e-05 0)
(1.3120768 5.8777157e-05 0)
(1.6051327 7.6706886e-05 0)
(1.8464458 7.0451464e-05 0)
(1.9841412 2.8945352e-05 0)
(1.9841412 -2.8945012e-05 0)
(1.8464458 -7.0451043e-05 0)
(1.6051327 -7.670653e-05 0)
(1.3120768 -5.877726e-05 0)
(1.0162638 -3.6882923e-05 0)
(0.75085195 -2.0329581e-05 0)
(0.53117342 -1.0142773e-05 0)
(0.35932481 -4.6009377e-06 0)
(0.23011408 -1.8570682e-06 0)
(0.13562051 -6.2306875e-07 0)
(0.067840446 -1.4676915e-07 0)
(0.01987124 -2.1151385e-08 0)
(0.019870096 1.9566755e-08 0)
(0.067836592 1.36363e-07 0)
(0.13561293 5.8019791e-07 0)
(0.23010153 1.7308801e-06 0)
(0.35930594 4.2906323e-06 0)
(0.53114716 9.4633314e-06 0)
(0.75081849 1.8978943e-05 0)
(1.0162266 3.4464635e-05 0)
(1.3120455 5.5021177e-05 0)
(1.6051237 7.2080934e-05 0)
(1.8464718 6.6642959e-05 0)
(1.9841938 2.7519893e-05 0)
(1.9841938 -2.7519552e-05 0)
(1.8464718 -6.6642531e-05 0)
(1.6051237 -7.2080573e-05 0)
(1.3120455 -5.502127e-05 0)
(1.0162266 -3.4465506e-05 0)
(0.75081849 -1.8980533e-05 0)
(0.53114716 -9.4652097e-06 0)
(0.35930594 -4.2923208e-06 0)
(0.23010153 -1.7321269e-06 0)
(0.13561293 -5.8101599e-07 0)
(0.067836592 -1.3680462e-07 0)
(0.019870096 -1.9700217e-08 0)
(0.019869029 1.8276539e-08 0)
(0.067832994 1.273812e-07 0)
(0.13560586 5.4202222e-07 0)
(0.23008981 1.6171468e-06 0)
(0.35928831 4.0093017e-06 0)
(0.53112262 8.8449848e-06 0)
(0.75078719 1.7746249e-05 0)
(1.0161917 3.2251304e-05 0)
(1.312016 5.1568482e-05 0)
(1.6051149 6.7786477e-05 0)
(1.846496 6.305321e-05 0)
(1.9842436 2.616414e-05 0)
(1.9842436 -2.6163828e-05 0)
(1.846496 -6.3052811e-05 0)
(1.6051149 -6.7786143e-05 0)
(1.312016 -5.1568573e-05 0)
(1.0161917 -3.2252074e-05 0)
(0.75078719 -1.7747575e-05 0)
(0.53112262 -8.8464567e-06 0)
(0.35928831 -4.0105443e-06 0)
(0.23008981 -1.618009e-06 0)
(0.13560586 -5.4255185e-07 0)
(0.067832994 -1.2765182e-07 0)
(0.019869029 -1.835623e-08 0)
(0.019868031 1.7096005e-08 0)
(0.067829631 1.1916138e-07 0)
(0.13559924 5.0707938e-07 0)
(0.23007886 1.513024e-06 0)
(0.35927183 3.7516632e-06 0)
(0.53109966 8.2784192e-06 0)
(0.75075787 1.661575e-05 0)
(1.0161589 3.0217918e-05 0)
(1.311988 4.8385041e-05 0)
(1.6051063 6.3793901e-05 0)
(1.8465187 5.9664022e-05 0)
(1.9842909 2.4872732e-05 0)
(1.9842909 -2.4872487e-05 0)
(1.8465187 -5.9663695e-05 0)
(1.6051063 -6.3793635e-05 0)
(1.311988 -4.8385138e-05 0)
(1.0161589 -3.0218527e-05 0)
(0.75075787 -1.6616669e-05 0)
(0.53109966 -8.2792857e-06 0)
(0.35927183 -3.7522567e-06 0)
(0.23007886 -1.5133354e-06 0)
(0.13559924 -5.0720098e-07 0)
(0.067829631 -1.1919202e-07 0)
(0.019868031 -1.7100475e-08 0)
(0.019867097 1.6012182e-08 0)
(0.067826482 1.1161363e-07 0)
(0.13559305 4.7498858e-07 0)
(0.2300686 1.4173816e-06 0)
(0.35925639 3.514939e-06 0)
(0.53107814 7.7575951e-06 0)
(0.75073038 1.5575656e-05 0)
(1.0161281 2.8344223e-05 0)
(1.3119617 4.5442203e-05 0)
(1.6050979 6.0073694e-05 0)
(1.8465398 5.6466948e-05 0)
(1.9843356 2.3643349e-05 0)
(1.9843356 -2.3643218e-05 0)
(1.8465398 -5.6466747e-05 0)
(1.6050979 -6.0073543e-05 0)
(1.3119617 -4.5442312e-05 0)
(1.0161281 -2.8344594e-05 0)
(0.75073038 -1.5575995e-05 0)
(0.53107814 -7.7576179e-06 0)
(0.35925639 -3.5146423e-06 0)
(0.2300686 -1.4169459e-06 0)
(0.13559305 -4.7456147e-07 0)
(0.067826482 -1.1132334e-07 0)
(0.019867097 -1.5916284e-08 0)
(0.019866221 1.501417e-08 0)
(0.067823531 1.0466228e-07 0)
(0.13558724 4.4542922e-07 0)
(0.23005898 1.3292689e-06 0)
(0.35924191 3.2967951e-06 0)
(0.53105796 7.2774447e-06 0)
(0.75070457 1.4616062e-05 0)
(1.0160992 2.661303e-05 0)
(1.3119367 4.2715126e-05 0)
(1.6050897 5.6604187e-05 0)
(1.8465596 5.3444413e-05 0)
(1.984378 2.247101e-05 0)
(1.984378 -2.2471045e-05 0)
(1.8465596 -5.3444397e-05 0)
(1.6050897 -5.6604202e-05 0)
(1.3119367 -4.2715253e-05 0)
(1.0160992 -2.6613072e-05 0)
(0.75070457 -1.4615613e-05 0)
(0.53105796 -7.276343e-06 0)
(0.35924191 -3.2953258e-06 0)
(0.23005898 -1.3278572e-06 0)
(0.13558724 -4.4428994e-07 0)
(0.067823531 -1.039572e-07 0)
(0.019866221 -1.4788766e-08 0)
(0.0198654 1.4092708e-08 0)
(0.067820762 9.8243187e-08 0)
(0.1355818 4.1812957e-07 0)
(0.23004996 1.2478788e-06 0)
(0.35922832 3.0952429e-06 0)
(0.53103901 6.8336316e-06 0)
(0.75068032 1.3728475e-05 0)
(1.0160719 2.5009708e-05 0)
(1.3119132 4.018292e-05 0)
(1.6050818 5.3361448e-05 0)
(1.8465781 5.0592603e-05 0)
(1.9844182 2.135496e-05 0)
(1.9844182 -2.1355221e-05 0)
(1.8465781 -5.0592838e-05 0)
(1.6050818 -5.3361689e-05 0)
(1.3119132 -4.0183066e-05 0)
(1.0160719 -2.500931e-05 0)
(0.75068032 -1.3726995e-05 0)
(0.53103901 -6.8310789e-06 0)
(0.35922832 -3.0922744e-06 0)
(0.23004996 -1.2452272e-06 0)
(0.1355818 -4.1609018e-07 0)
(0.067820762 -9.7015581e-08 0)
(0.0198654 -1.370438e-08 0)
(0.019864628 1.3239845e-08 0)
(0.067818161 9.230111e-08 0)
(0.13557668 3.9285555e-07 0)
(0.23004148 1.1725174e-06 0)
(0.35921555 2.9085811e-06 0)
(0.5310212 6.4224635e-06 0)
(0.75065752 1.2905657e-05 0)
(1.0160463 2.3521554e-05 0)
(1.3118909 3.7826766e-05 0)
(1.6050743 5.0329653e-05 0)
(1.8465955 4.7892776e-05 0)
(1.9844563 2.0289888e-05 0)
(1.9844563 -2.0290439e-05 0)
(1.8465955 -4.789334e-05 0)
(1.6050743 -5.0330186e-05 0)
(1.3118909 -3.7826931e-05 0)
(1.0160463 -2.3520583e-05 0)
(0.75065752 -1.2902865e-05 0)
(0.5310212 -6.4180841e-06 0)
(0.35921555 -2.9037392e-06 0)
(0.23004148 -1.1683245e-06 0)
(0.13557668 -3.8970178e-07 0)
(0.067818161 -9.0428342e-08 0)
(0.019864628 -1.2650577e-08 0)
(0.019863903 1.244879e-08 0)
(0.067815716 8.6789162e-08 0)
(0.13557187 3.694087e-07 0)
(0.23003351 1.102594e-06 0)
(0.35920355 2.7353484e-06 0)
(0.53100445 6.0407385e-06 0)
(0.75063606 1.2141319e-05 0)
(1.0160221 2.213776e-05 0)
(1.3118699 3.5631279e-05 0)
(1.6050669 4.7488762e-05 0)
(1.8466118 4.5346452e-05 0)
(1.9844924 1.9276747e-05 0)
(1.9844924 -1.9277661e-05 0)
(1.8466118 -4.5347428e-05 0)
(1.6050669 -4.748966e-05 0)
(1.3118699 -3.5631462e-05 0)
(1.0160221 -2.2136066e-05 0)
(0.75063606 -1.2136893e-05 0)
(0.53100445 -6.034105e-06 0)
(0.35920355 -2.7282086e-06 0)
(0.23003351 -1.0965183e-06 0)
(0.13557187 -3.6489818e-07 0)
(0.067815716 -8.4132657e-08 0)
(0.019863903 -1.1615646e-08 0)
(0.019863221 1.1713505e-08 0)
(0.067813417 8.1665313e-08 0)
(0.13556735 3.4761088e-07 0)
(0.23002601 1.0375822e-06 0)
(0.35919226 2.5742603e-06 0)
(0.53098868 5.6856804e-06 0)
(0.75061585 1.1430004e-05 0)
(1.0159993 2.0848579e-05 0)
(1.31185 3.3581507e-05 0)
(1.6050599 4.482725e-05 0)
(1.8466272 4.2931722e-05 0)
(1.9845266 1.8309107e-05 0)
(1.9845266 -1.8310462e-05 0)
(1.8466272 -4.2933203e-05 0)
(1.6050599 -4.4828594e-05 0)
(1.31185 -3.3581701e-05 0)
(1.0159993 -2.0845987e-05 0)
(0.75061585 -1.142358e-05 0)
(0.53098868 -5.6763101e-06 0)
(0.35919226 -2.5643442e-06 0)
(0.23002601 -1.0292396e-06 0)
(0.13556735 -3.4147144e-07 0)
(0.067813417 -7.8069598e-08 0)
(0.019863221 -1.0588332e-08 0)
(0.019862579 1.1028969e-08 0)
(0.067811252 7.6895243e-08 0)
(0.13556309 3.2731725e-07 0)
(0.23001895 9.7704843e-07 0)
(0.35918162 2.4242327e-06 0)
(0.53097384 5.3548877e-06 0)
(0.75059681 1.0766982e-05 0)
(1.0159778 1.9645997e-05 0)
(1.3118312 3.1666372e-05 0)
(1.6050532 4.2328137e-05 0)
(1.8466415 4.0657009e-05 0)
(1.984559 1.7390148e-05 0)
(1.984559 -1.7392031e-05 0)
(1.8466415 -4.0659098e-05 0)
(1.6050532 -4.2330017e-05 0)
(1.3118312 -3.1666571e-05 0)
(1.0159778 -1.9642312e-05 0)
(0.75059681 -1.075815e-05 0)
(0.53097384 -5.3422401e-06 0)
(0.35918162 -2.4110058e-06 0)
(0.23001895 -9.6601046e-07 0)
(0.13556309 -3.1924564e-07 0)
(0.067811252 -7.2187296e-08 0)
(0.019862579 -9.5582032e-09 0)
(0.019861974 1.039034e-08 0)
(0.067809213 7.2444941e-08 0)
(0.13555908 3.0838349e-07 0)
(0.2300123 9.2056975e-07 0)
(0.3591716 2.2842489e-06 0)
(0.53095985 5.0461932e-06 0)
(0.75057886 1.0147987e-05 0)
(1.0159575 1.8522144e-05 0)
(1.3118134 2.9873067e-05 0)
(1.6050467 3.9982659e-05 0)
(1.8466551 3.8494603e-05 0)
(1.9845898 1.651131e-05 0)
(1.9845898 -1.6513811e-05 0)
(1.8466551 -3.849741e-05 0)
(1.6050467 -3.9985173e-05 0)
(1.3118134 -2.9873261e-05 0)
(1.0159575 -1.8517145e-05 0)
(0.75057886 -1.0136289e-05 0)
(0.53095985 -5.029667e-06 0)
(0.3591716 -2.2671178e-06 0)
(0.2300123 -9.0636131e-07 0)
(0.13555908 -2.9804399e-07 0)
(0.067809213 -6.6433407e-08 0)
(0.019861974 -8.5147744e-09 0)
(0.019861404 9.7940855e-09 0)
(0.067807292 6.8291017e-08 0)
(0.13555529 2.9071159e-07 0)
(0.23000603 8.6784695e-07 0)
(0.35916216 2.1535341e-06 0)
(0.53094666 4.7578252e-06 0)
(0.75056194 9.5695072e-06 0)
(1.0159384 1.7471332e-05 0)
(1.3117965 2.8194543e-05 0)
(1.6050405 3.7777138e-05 0)
(1.8466678 3.6462545e-05 0)
(1.9846188 1.5679015e-05 0)
(1.9846188 -1.5682228e-05 0)
(1.8466678 -3.6466188e-05 0)
(1.6050405 -3.7780389e-05 0)
(1.3117965 -2.8194719e-05 0)
(1.0159384 -1.7464774e-05 0)
(0.75056193 -9.5544383e-06 0)
(0.53094666 -4.7367566e-06 0)
(0.35916216 -2.131845e-06 0)
(0.23000603 -8.499454e-07 0)
(0.1355553 -2.7773535e-07 0)
(0.067807292 -6.0765884e-08 0)
(0.019861404 -7.448771e-09 0)
(0.019860867 9.2359015e-09 0)
(0.067805479 6.4402389e-08 0)
(0.13555173 2.7416913e-07 0)
(0.23000012 8.1849981e-07 0)
(0.35915325 2.031209e-06 0)
(0.53093422 4.4879794e-06 0)
(0.75054596 9.0280001e-06 0)
(1.0159203 1.6486624e-05 0)
(1.3117806 2.6618335e-05 0)
(1.6050346 3.5703342e-05 0)
(1.8466798 3.4523579e-05 0)
(1.9846465 1.4881112e-05 0)
(1.9846465 -1.4885134e-05 0)
(1.8466798 -3.4528179e-05 0)
(1.6050346 -3.5707437e-05 0)
(1.3117806 -2.6618471e-05 0)
(1.0159203 -1.6478231e-05 0)
(0.75054596 -9.009002e-06 0)
(0.53093421 -4.4616426e-06 0)
(0.35915325 -2.0042507e-06 0)
(0.23000012 -7.9633905e-07 0)
(0.13555173 -2.581579e-07 0)
(0.06780548 -5.513738e-08 0)
(0.019860867 -6.350916e-09 0)
(0.01986036 8.7140059e-09 0)
(0.067803771 6.0769102e-08 0)
(0.13554837 2.587159e-07 0)
(0.22999455 7.7238893e-07 0)
(0.35914485 1.9168397e-06 0)
(0.53092248 4.2355213e-06 0)
(0.75053089 8.5211618e-06 0)
(1.0159032 1.5564835e-05 0)
(1.3117655 2.5142357e-05 0)
(1.605029 3.3752925e-05 0)
(1.846691 3.270974e-05 0)
(1.9846726 1.4129021e-05 0)
(1.9846726 -1.4133939e-05 0)
(1.846691 -3.2715413e-05 0)
(1.605029 -3.375797e-05 0)
(1.3117655 -2.5142418e-05 0)
(1.0159032 -1.55543e-05 0)
(0.75053088 -8.4976233e-06 0)
(0.53092248 -4.2031286e-06 0)
(0.35914485 -1.8838459e-06 0)
(0.22999455 -7.4536206e-07 0)
(0.13554837 -2.3924494e-07 0)
(0.067803771 -4.9523815e-08 0)
(0.01986036 -5.2152019e-09 0)
(0.019859881 8.2236106e-09 0)
(0.067802156 5.7354791e-08 0)
(0.13554519 2.4419589e-07 0)
(0.22998928 7.2908275e-07 0)
(0.35913691 1.809502e-06 0)
(0.53091139 3.9987116e-06 0)
(0.75051664 8.0456418e-06 0)
(1.0158871 1.4698764e-05 0)
(1.3117512 2.3751873e-05 0)
(1.6050236 3.1914176e-05 0)
(1.8467017 3.0968773e-05 0)
(1.9846975 1.3404794e-05 0)
(1.9846975 -1.3410689e-05 0)
(1.8467017 -3.0975629e-05 0)
(1.6050236 -3.1920263e-05 0)
(1.3117512 -2.3751805e-05 0)
(1.0158871 -1.4685738e-05 0)
(0.75051663 -8.0168956e-06 0)
(0.53091139 -3.9594173e-06 0)
(0.35913691 -1.7696584e-06 0)
(0.22998928 -6.9654948e-07 0)
(0.13554519 -2.2082021e-07 0)
(0.067802157 -4.3878864e-08 0)
(0.019859882 -4.0339984e-09 0)
(0.01985943 7.7661782e-09 0)
(0.067800634 5.4175031e-08 0)
(0.13554219 2.3067866e-07 0)
(0.22998431 6.8873627e-07 0)
(0.35912943 1.7093516e-06 0)
(0.53090093 3.7774214e-06 0)
(0.7505032 7.6009405e-06 0)
(1.0158719 1.3889112e-05 0)
(1.3117377 2.2452951e-05 0)
(1.6050185 3.0189552e-05 0)
(1.8467117 2.9353699e-05 0)
(1.9847208 1.2727774e-05 0)
(1.9847208 -1.2734703e-05 0)
(1.8467117 -2.9361818e-05 0)
(1.6050185 -3.0196752e-05 0)
(1.3117377 -2.2452665e-05 0)
(1.0158719 -1.3873203e-05 0)
(0.7505032 -7.5662761e-06 0)
(0.53090093 -3.7303473e-06 0)
(0.35912943 -1.6618269e-06 0)
(0.22998432 -6.5005027e-07 0)
(0.1355422 -2.0295332e-07 0)
(0.067800635 -3.8219863e-08 0)
(0.01985943 -2.8095797e-09 0)
(0.019859003 7.3337607e-09 0)
(0.067799193 5.1166955e-08 0)
(0.13553936 2.1789407e-07 0)
(0.22997961 6.5063127e-07 0)
(0.35912234 1.614979e-06 0)
(0.53089102 3.5693114e-06 0)
(0.75049047 7.1828343e-06 0)
(1.0158574 1.3126142e-05 0)
(1.3117249 2.1223814e-05 0)
(1.6050136 2.8556334e-05 0)
(1.8467212 2.7789456e-05 0)
(1.9847433 1.2070914e-05 0)
(1.9847433 -1.2078915e-05 0)
(1.8467212 -2.7798899e-05 0)
(1.6050136 -2.8564689e-05 0)
(1.3117249 -2.1223192e-05 0)
(1.0158574 -1.3106934e-05 0)
(0.75049046 -7.141539e-06 0)
(0.53089102 -3.5136184e-06 0)
(0.35912234 -1.5590142e-06 0)
(0.22997961 -6.0523191e-07 0)
(0.13553936 -1.854439e-07 0)
(0.067799194 -3.2523932e-08 0)
(0.019859003 -1.5458875e-09 0)
(0.0198586 6.9365449e-09 0)
(0.067797836 4.8413822e-08 0)
(0.13553669 2.0619975e-07 0)
(0.22997518 6.1568545e-07 0)
(0.35911566 1.5280324e-06 0)
(0.5308817 3.3766891e-06 0)
(0.75047849 6.7949176e-06 0)
(1.0158438 1.2418802e-05 0)
(1.3117128 2.0086847e-05 0)
(1.605009 2.7040026e-05 0)
(1.84673 2.6361481e-05 0)
(1.9847642 1.1466453e-05 0)
(1.9847642 -1.1475523e-05 0)
(1.84673 -2.6372246e-05 0)
(1.605009 -2.7049531e-05 0)
(1.3117128 -2.0085725e-05 0)
(1.0158438 -1.239585e-05 0)
(0.75047848 -6.7462948e-06 0)
(0.5308817 -3.3116032e-06 0)