/*--------------------------------*- C++ -*----------------------------------*\
  =========                 |
  \\      /  F ield         | OpenFOAM: The Open Source CFD Toolbox
   \\    /   O peration     | Website:  https://openfoam.org
    \\  /    A nd           | Version:  10
     \\/     M anipulation  |
\*---------------------------------------------------------------------------*/
FoamFile
{
    format      ascii;
    class       volScalarField;
    location    "27.5";
    object      T;
}
// * * * * * * * * * * * * * * * * * * * * * * * * * * * * * * * * * * * * * //

dimensions      [0 0 -1 0 0 0 0];

internalField   nonuniform List<scalar> 
100
(
0.999931
2.99051
4.95454
6.87459
8.73363
10.5151
12.2033
13.7832
15.2407
16.563
17.7382
18.756
19.6073
20.2846
20.7818
21.0946
21.2201
21.1573
20.9067
20.4706
19.8527
19.0586
18.0954
16.9715
15.697
14.2832
12.7426
11.0889
9.3368
7.50181
5.60023
3.64894
1.66527
-0.333178
-2.32867
-4.30349
-6.24011
-8.12134
-9.93048
-11.6515
-13.2691
-14.7688
-16.1376
-17.363
-18.4344
-19.3421
-20.0781
-20.636
-21.0106
-21.1988
-21.1988
-21.0106
-20.6359
-20.0781
-19.3421
-18.4344
-17.363
-16.1375
-14.7688
-13.269
-11.6514
-9.93044
-8.1213
-6.24007
-4.30345
-2.32862
-0.333132
1.66532
3.64899
5.60028
7.50186
9.33685
11.089
12.7427
14.2833
15.6971
16.9716
18.0954
19.0587
19.8527
20.4706
20.9068
21.1574
21.2202
21.0946
20.7819
20.2846
19.6073
18.756
17.7382
16.563
15.2407
13.7832
12.2033
10.5152
8.73364
6.8746
4.95454
2.99051
0.999933
)
;

boundaryField
{
    xmin
    {
        type            fixedValue;
        value           uniform 0;
    }
    xmax
    {
        type            fixedValue;
        value           uniform 0;
    }
    frontAndBack
    {
        type            empty;
    }
}


// ************************************************************************* //
