/*--------------------------------*- C++ -*----------------------------------*\
  =========                 |
  \\      /  F ield         | OpenFOAM: The Open Source CFD Toolbox
   \\    /   O peration     | Website:  https://openfoam.org
    \\  /    A nd           | Version:  10
     \\/     M anipulation  |
\*---------------------------------------------------------------------------*/
FoamFile
{
    format      ascii;
    class       volScalarField;
    location    "27.5";
    object      T_0;
}
// * * * * * * * * * * * * * * * * * * * * * * * * * * * * * * * * * * * * * //

dimensions      [0 0 -1 0 0 0 0];

internalField   nonuniform List<scalar> 
100
(
1.00089
2.99339
4.95931
6.88121
8.74204
10.5253
12.2151
13.7965
15.2554
16.5789
17.7553
18.7741
19.6262
20.3041
20.8019
21.1149
21.2406
21.1777
20.9269
20.4903
19.8718
19.077
18.1128
16.9879
15.7122
14.297
12.7549
11.0996
9.3458
7.50903
5.60562
3.65246
1.66688
-0.333499
-2.33091
-4.30763
-6.24612
-8.12916
-9.94005
-11.6627
-13.2818
-14.7831
-16.1531
-17.3798
-18.4521
-19.3607
-20.0975
-20.6558
-21.0309
-21.2192
-21.2192
-21.0309
-20.6558
-20.0975
-19.3607
-18.4521
-17.3797
-16.1531
-14.7831
-13.2818
-11.6627
-9.94001
-8.12912
-6.24608
-4.30759
-2.33087
-0.333453
1.66692
3.65251
5.60567
7.50908
9.34585
11.0997
12.7549
14.297
15.7122
16.9879
18.1129
19.077
19.8719
20.4903
20.9269
21.1778
21.2406
21.115
20.8019
20.3042
19.6262
18.7741
17.7553
16.579
15.2554
13.7965
12.2151
10.5253
8.74205
6.88122
4.95932
2.99339
1.0009
)
;

boundaryField
{
    xmin
    {
        type            fixedValue;
        value           uniform 0;
    }
    xmax
    {
        type            fixedValue;
        value           uniform 0;
    }
    frontAndBack
    {
        type            empty;
    }
}


// ************************************************************************* //
