/*--------------------------------*- C++ -*----------------------------------*\
  =========                 |
  \\      /  F ield         | OpenFOAM: The Open Source CFD Toolbox
   \\    /   O peration     | Website:  https://openfoam.org
    \\  /    A nd           | Version:  10
     \\/     M anipulation  |
\*---------------------------------------------------------------------------*/
FoamFile
{
    format      ascii;
    class       volScalarField;
    location    "2.9";
    object      T;
}
// * * * * * * * * * * * * * * * * * * * * * * * * * * * * * * * * * * * * * //

dimensions      [0 0 -1 0 0 0 0];

internalField   nonuniform List<scalar> 
100
(
-0.0701862
-0.208071
-0.338584
-0.457103
-0.559429
-0.641937
-0.701703
-0.736612
-0.745426
-0.727833
-0.684455
-0.616831
-0.527355
-0.419198
-0.29619
-0.162689
-0.0234253
0.116668
0.252629
0.37964
0.493203
0.589293
0.664507
0.716181
0.742484
0.742484
0.716181
0.664507
0.589292
0.493202
0.37964
0.252628
0.116667
-0.0234264
-0.16269
-0.296191
-0.419199
-0.527356
-0.616832
-0.684456
-0.727833
-0.745426
-0.736612
-0.701703
-0.641936
-0.559428
-0.457102
-0.338583
-0.208069
-0.0701846
0.0701862
0.208071
0.338584
0.457103
0.559429
0.641936
0.701703
0.736612
0.745426
0.727832
0.684455
0.616831
0.527355
0.419197
0.29619
0.162689
0.0234249
-0.116669
-0.25263
-0.379641
-0.493203
-0.589293
-0.664508
-0.716181
-0.742484
-0.742484
-0.716181
-0.664507
-0.589292
-0.493202
-0.379639
-0.252628
-0.116667
0.0234269
0.162691
0.296191
0.419199
0.527356
0.616832
0.684456
0.727833
0.745426
0.736612
0.701703
0.641936
0.559428
0.457102
0.338583
0.208069
0.0701847
)
;

boundaryField
{
    inlet
    {
        type            cyclic;
    }
    outlet
    {
        type            cyclic;
    }
    bottom
    {
        type            slip;
    }
    top
    {
        type            slip;
    }
    frontAndBack
    {
        type            empty;
    }
}


// ************************************************************************* //
