/*--------------------------------*- C++ -*----------------------------------*\
| =========                 |                                                 |
| \\      /  F ield         | OpenFOAM: The Open Source CFD Toolbox           |
|  \\    /   O peration     | Version:  2406                                  |
|   \\  /    A nd           | Website:  www.openfoam.com                      |
|    \\/     M anipulation  |                                                 |
\*---------------------------------------------------------------------------*/
FoamFile
{
    version     2.0;
    format      ascii;
    arch        "LSB;label=32;scalar=64";
    class       volScalarField;
    location    "13";
    object      p;
}
// * * * * * * * * * * * * * * * * * * * * * * * * * * * * * * * * * * * * * //

dimensions      [0 2 -2 0 0 0 0];

internalField   nonuniform List<scalar> 
1176
(
0.79699968
0.79702255
0.79704621
0.79705388
0.79702235
0.79692765
0.79677042
0.79658426
0.79640506
0.79623791
0.79608328
0.79598768
0.79598768
0.79608328
0.79623789
0.79640502
0.79658418
0.79677031
0.79692748
0.79702211
0.79705355
0.7970458
0.79702205
0.79699912
0.77385125
0.77380429
0.77375653
0.77373963
0.77380213
0.77400449
0.77436981
0.77483421
0.77526508
0.77555118
0.77567057
0.77570484
0.77570484
0.77567059
0.7755512
0.77526512
0.77483429
0.77436992
0.77400463
0.77380231
0.77373985
0.77375678
0.77380457
0.77385155
0.75676649
0.7567885
0.75680829
0.75680639
0.75674732
0.75658615
0.75631438
0.75598643
0.75568022
0.75546743
0.75535663
0.75530781
0.75530781
0.75535662
0.75546741
0.7556802
0.7559864
0.75631434
0.75658611
0.75674728
0.75680634
0.75680825
0.75678846
0.75676645
0.74009459
0.74010372
0.74011578
0.74013218
0.74015472
0.74017229
0.74014006
0.74000665
0.73977454
0.73950197
0.73927777
0.73915727
0.73915727
0.73927777
0.73950197
0.73977454
0.74000665
0.74014006
0.74017229
0.74015472
0.74013217
0.74011576
0.7401037
0.74009457
0.72367554
0.7236795
0.72368449
0.72369055
0.72370025
0.72372053
0.72375671
0.72379822
0.72381989
0.72379602
0.7237339
0.72368127
0.72368127
0.7237339
0.72379602
0.72381989
0.72379823
0.72375672
0.72372054
0.72370026
0.72369057
0.72368451
0.72367952
0.72367556
0.70721388
0.7072163
0.70721954
0.70722359
0.7072285
0.70723533
0.7072495
0.70728081
0.7073308
0.70738805
0.70743076
0.70744741
0.70744741
0.70743076
0.70738805
0.7073308
0.70728081
0.7072495
0.70723533
0.7072285
0.70722359
0.70721955
0.70721631
0.7072139
0.69080807
0.69081021
0.69081302
0.69081645
0.69082035
0.69082386
0.69082593
0.6908281
0.69083665
0.69085388
0.69087178
0.6908835
0.6908835
0.69087178
0.69085388
0.69083665
0.6908281
0.69082593
0.69082386
0.69082035
0.69081646
0.69081303
0.69081022
0.69080809
0.67442821
0.67442996
0.67443229
0.67443521
0.67443888
0.67444326
0.67444771
0.67445086
0.6744521
0.67445372
0.67445076
0.67444825
0.67444825
0.67445076
0.67445372
0.6744521
0.67445086
0.67444771
0.67444326
0.67443889
0.67443522
0.67443231
0.67442998
0.67442823
0.65807392
0.65807537
0.6580773
0.65807972
0.65808273
0.65808652
0.65809156
0.65809861
0.65810729
0.65811732
0.65812509
0.65812868
0.65812868
0.65812509
0.65811732
0.65810729
0.65809861
0.65809156
0.65808652
0.65808274
0.65807973
0.65807732
0.6580754
0.65807395
0.64173623
0.64173743
0.64173904
0.64174107
0.64174364
0.64174682
0.64175098
0.64175737
0.64176753
0.64178066
0.64179499
0.64180429
0.64180429
0.64179499
0.64178066
0.64176752
0.64175736
0.64175097
0.64174682
0.64174365
0.64174109
0.64173906
0.64173746
0.64173627
0.62541185
0.62541287
0.62541425
0.62541599
0.62541821
0.62542093
0.62542433
0.62542917
0.62543704
0.6254477
0.62546026
0.62546939
0.62546939
0.62546026
0.6254477
0.62543703
0.62542917
0.62542432
0.62542093
0.62541822
0.62541601
0.62541428
0.62541292
0.6254119
0.60909837
0.60909926
0.60910046
0.60910199
0.60910393
0.60910633
0.60910929
0.6091133
0.60911952
0.60912818
0.60913874
0.60914619
0.60914619
0.60913874
0.60912817
0.60911951
0.60911329
0.60910928
0.60910633
0.60910394
0.60910201
0.6091005
0.60909932
0.60909844
0.59279418
0.59279496
0.59279602
0.59279737
0.59279909
0.59280122
0.59280385
0.59280739
0.59281279
0.59282054
0.59283023
0.59283691
0.59283691
0.59283023
0.59282054
0.59281279
0.59280738
0.59280385
0.59280122
0.5927991
0.5927974
0.59279607
0.59279503
0.59279426
0.57649796
0.57649866
0.5764996
0.5765008
0.57650234
0.57650424
0.57650659
0.57650973
0.5765145
0.57652147
0.57653014
0.57653622
0.57653622
0.57653013
0.57652146
0.57651449
0.57650971
0.57650658
0.57650424
0.57650235
0.57650084
0.57649966
0.57649874
0.57649806
0.56020869
0.56020932
0.56021016
0.56021124
0.56021263
0.56021434
0.56021644
0.56021921
0.56022337
0.5602295
0.56023702
0.56024242
0.56024242
0.56023702
0.56022949
0.56022335
0.56021919
0.56021643
0.56021434
0.56021265
0.56021129
0.56021023
0.56020942
0.56020881
0.54392557
0.54392613
0.5439269
0.54392788
0.54392913
0.54393069
0.54393258
0.54393504
0.54393867
0.54394405
0.54395059
0.54395538
0.54395538
0.54395058
0.54394404
0.54393866
0.54393502
0.54393257
0.54393069
0.54392916
0.54392793
0.54392699
0.54392626
0.54392571
0.52764794
0.52764846
0.52764915
0.52765004
0.52765119
0.5276526
0.52765433
0.52765653
0.52765975
0.52766451
0.52767024
0.52767453
0.52767453
0.52767023
0.5276645
0.52765973
0.52765651
0.52765431
0.52765261
0.52765122
0.52765011
0.52764926
0.5276486
0.52764812
0.51137526
0.51137573
0.51137637
0.51137719
0.51137823
0.51137953
0.5113811
0.51138309
0.51138597
0.51139021
0.51139527
0.51139913
0.51139913
0.51139527
0.5113902
0.51138595
0.51138307
0.51138108
0.51137953
0.51137827
0.51137726
0.51137649
0.5113759
0.51137547
0.49510707
0.4951075
0.49510808
0.49510883
0.4951098
0.49511099
0.49511243
0.49511423
0.49511681
0.49512062
0.49512512
0.49512861
0.49512861
0.49512511
0.49512061
0.49511679
0.49511421
0.49511241
0.49511099
0.49510984
0.49510892
0.49510823
0.4951077
0.4951073
0.47884296
0.47884336
0.4788439
0.47884459
0.47884547
0.47884657
0.4788479
0.47884955
0.47885187
0.47885529
0.47885933
0.47886249
0.47886249
0.47885932
0.47885528
0.47885184
0.47884951
0.47884788
0.47884658
0.47884552
0.47884469
0.47884406
0.47884358
0.47884322
0.46258259
0.46258296
0.46258345
0.46258409
0.46258492
0.46258593
0.46258715
0.46258866
0.46259077
0.46259387
0.46259751
0.46260038
0.46260038
0.46259751
0.46259385
0.46259074
0.46258863
0.46258713
0.46258594
0.46258497
0.46258421
0.46258364
0.46258321
0.46258289
0.44632566
0.446326
0.44632646
0.44632705
0.44632781
0.44632876
0.44632989
0.44633128
0.44633319
0.44633601
0.44633933
0.44634194
0.44634194
0.44633932
0.44633599
0.44633316
0.44633124
0.44632986
0.44632876
0.44632787
0.44632718
0.44632666
0.44632627
0.44632599
0.43007189
0.43007221
0.43007264
0.43007319
0.4300739
0.43007478
0.43007583
0.43007711
0.43007886
0.43008143
0.43008446
0.43008685
0.43008685
0.43008446
0.43008141
0.43007882
0.43007707
0.4300758
0.43007478
0.43007396
0.43007333
0.43007286
0.43007251
0.43007225
0.41382106
0.41382136
0.41382176
0.41382227
0.41382293
0.41382375
0.41382472
0.41382591
0.41382752
0.41382987
0.41383266
0.41383485
0.41383485
0.41383266
0.41382985
0.41382748
0.41382587
0.41382469
0.41382376
0.413823
0.41382242
0.41382199
0.41382168
0.41382145
0.39757295
0.39757322
0.39757359
0.39757407
0.39757469
0.39757545
0.39757636
0.39757746
0.39757894
0.39758111
0.39758368
0.39758569
0.39758569
0.39758368
0.39758109
0.3975789
0.39757742
0.39757633
0.39757546
0.39757476
0.39757423
0.39757385
0.39757356
0.39757336
0.38132736
0.38132762
0.38132796
0.38132841
0.38132898
0.3813297
0.38133055
0.38133157
0.38133294
0.38133493
0.38133732
0.38133917
0.38133917
0.38133731
0.38133492
0.3813329
0.38133152
0.38133052
0.38132971
0.38132907
0.38132858
0.38132823
0.38132797
0.38132779
0.36508412
0.36508436
0.36508468
0.3650851
0.36508564
0.36508631
0.3650871
0.36508806
0.36508932
0.36509117
0.36509338
0.36509509
0.36509509
0.36509338
0.36509115
0.36508928
0.36508801
0.36508707
0.36508632
0.36508572
0.36508528
0.36508496
0.36508473
0.36508456
0.34884307
0.3488433
0.3488436
0.34884399
0.3488445
0.34884512
0.34884587
0.34884676
0.34884793
0.34884964
0.3488517
0.34885328
0.34885329
0.3488517
0.34884962
0.34884789
0.34884671
0.34884583
0.34884514
0.34884458
0.34884417
0.34884388
0.34884367
0.34884352
0.33260407
0.33260428
0.33260457
0.33260494
0.33260541
0.33260599
0.33260669
0.33260753
0.33260862
0.3326102
0.33261212
0.33261359
0.3326136
0.33261212
0.33261019
0.33260858
0.33260747
0.33260666
0.33260601
0.33260549
0.33260511
0.33260485
0.33260466
0.33260452
0.31636699
0.31636719
0.31636745
0.3163678
0.31636824
0.31636879
0.31636945
0.31637023
0.31637124
0.31637272
0.31637451
0.31637588
0.31637588
0.31637451
0.3163727
0.3163712
0.31637017
0.31636941
0.31636881
0.31636833
0.31636797
0.31636773
0.31636755
0.31636743
0.30013169
0.30013188
0.30013213
0.30013245
0.30013287
0.30013339
0.300134
0.30013473
0.30013569
0.30013706
0.30013873
0.30014001
0.30014001
0.30013874
0.30013704
0.30013564
0.30013468
0.30013397
0.3001334
0.30013296
0.30013263
0.3001324
0.30013224
0.30013212
0.28389808
0.28389826
0.28389849
0.2838988
0.28389919
0.28389968
0.28390025
0.28390094
0.28390183
0.28390311
0.28390467
0.28390586
0.28390587
0.28390468
0.28390309
0.28390179
0.28390089
0.28390022
0.28389969
0.28389927
0.28389896
0.28389875
0.28389859
0.28389848
0.26766605
0.26766621
0.26766643
0.26766672
0.26766709
0.26766755
0.26766809
0.26766873
0.26766957
0.26767076
0.26767223
0.26767335
0.26767335
0.26767224
0.26767075
0.26766953
0.26766869
0.26766806
0.26766756
0.26766716
0.26766687
0.26766667
0.26766652
0.26766642
0.25143549
0.25143565
0.25143586
0.25143613
0.25143647
0.2514369
0.25143741
0.25143802
0.2514388
0.25143992
0.2514413
0.25144234
0.25144234
0.2514413
0.2514399
0.25143877
0.25143798
0.25143739
0.25143691
0.25143654
0.25143626
0.25143607
0.25143593
0.25143582
0.23520633
0.23520648
0.23520667
0.23520693
0.23520725
0.23520766
0.23520814
0.23520871
0.23520944
0.23521049
0.23521179
0.23521276
0.23521277
0.23521179
0.23521048
0.23520941
0.23520867
0.23520812
0.23520767
0.23520731
0.23520704
0.23520685
0.23520671
0.23520661
0.21897848
0.21897862
0.2189788
0.21897904
0.21897935
0.21897973
0.21898018
0.21898072
0.21898141
0.21898239
0.2189836
0.21898452
0.21898452
0.21898361
0.21898238
0.21898138
0.21898069
0.21898017
0.21897974
0.2189794
0.21897914
0.21897895
0.21897881
0.21897871
0.20275186
0.20275199
0.20275217
0.20275239
0.20275268
0.20275304
0.20275347
0.20275397
0.20275462
0.20275554
0.20275669
0.20275754
0.20275755
0.20275669
0.20275553
0.2027546
0.20275395
0.20275345
0.20275305
0.20275272
0.20275246
0.20275227
0.20275213
0.20275203
0.18652641
0.18652653
0.18652669
0.1865269
0.18652718
0.18652752
0.18652792
0.1865284
0.186529
0.18652986
0.18653094
0.18653174
0.18653174
0.18653094
0.18652986
0.18652899
0.18652838
0.18652791
0.18652752
0.1865272
0.18652695
0.18652676
0.18652661
0.1865265
0.17030204
0.17030216
0.17030231
0.17030251
0.17030277
0.17030309
0.17030347
0.17030392
0.17030449
0.1703053
0.17030632
0.17030707
0.17030708
0.17030632
0.1703053
0.17030448
0.17030391
0.17030346
0.17030309
0.17030278
0.17030253
0.17030233
0.17030218
0.17030207
0.15407871
0.15407882
0.15407897
0.15407916
0.1540794
0.1540797
0.15408006
0.15408048
0.15408102
0.15408178
0.15408272
0.15408342
0.15408343
0.15408273
0.15408178
0.15408102
0.15408048
0.15408006
0.1540797
0.1540794
0.15407915
0.15407895
0.15407879
0.15407867
0.13785635
0.13785645
0.13785659
0.13785677
0.137857
0.13785729
0.13785763
0.13785802
0.13785853
0.13785924
0.13786013
0.1378608
0.1378608
0.13786014
0.13785925
0.13785853
0.13785803
0.13785763
0.13785728
0.13785698
0.13785673
0.13785652
0.13785636
0.13785623
0.12163493
0.12163502
0.12163515
0.12163532
0.12163554
0.12163581
0.12163613
0.1216365
0.12163697
0.12163763
0.12163844
0.12163905
0.12163905
0.12163845
0.12163764
0.12163698
0.12163652
0.12163614
0.1216358
0.12163551
0.12163525
0.12163504
0.12163486
0.12163473
0.10541435
0.10541444
0.10541456
0.10541472
0.10541493
0.10541518
0.10541549
0.10541584
0.10541628
0.10541689
0.10541765
0.10541821
0.10541822
0.10541766
0.1054169
0.10541629
0.10541586
0.1054155
0.10541517
0.10541488
0.10541462
0.1054144
0.10541422
0.10541408
0.089194634
0.089194721
0.089194838
0.08919499
0.089195185
0.089195426
0.089195711
0.08919604
0.089196441
0.08919698
0.089197634
0.089198103
0.089198105
0.089197641
0.089196994
0.089196465
0.089196068
0.089195729
0.089195413
0.089195122
0.08919486
0.089194633
0.089194442
0.089194297
0.07297563
0.072975712
0.072975823
0.072975966
0.072976153
0.072976385
0.072976659
0.072976972
0.072977347
0.072977841
0.072978424
0.072978822
0.072978823
0.07297843
0.072977857
0.072977376
0.072977007
0.07297668
0.072976369
0.072976077
0.072975812
0.072975582
0.072975386
0.072975239
0.056757512
0.056757592
0.056757699
0.056757836
0.05675801
0.056758225
0.056758476
0.056758758
0.056759078
0.056759451
0.056759827
0.05676004
0.056760041
0.056759831
0.056759469
0.056759112
0.056758799
0.0567585
0.056758206
0.056757926
0.056757666
0.056757435
0.056757239
0.05675709
0.040539726
0.040539797
0.040539893
0.040540023
0.040540198
0.040540421
0.040540685
0.040540976
0.0405413
0.040541704
0.04054217
0.040542476
0.040542475
0.040542173
0.040541722
0.040541337
0.04054102
0.040540712
0.040540403
0.040540112
0.040539853
0.040539633
0.040539451
0.040539315
0.024323459
0.024323541
0.024323649
0.024323776
0.024323922
0.024324083
0.024324256
0.024324438
0.024324602
0.024324678
0.024324588
0.024324354
0.024324352
0.024324588
0.024324693
0.024324638
0.02432448
0.02432428
0.024324064
0.024323843
0.024323626
0.024323426
0.024323253
0.024323122
0.0081053664
0.0081054365
0.0081055292
0.0081056503
0.0081058111
0.0081060106
0.0081062312
0.00810647
0.008106847
0.0081076812
0.0081091576
0.0081105232
0.0081105211
0.008109155
0.0081076878
0.0081068684
0.0081064985
0.0081062491
0.008106
0.0081057601
0.0081055527
0.0081053854
0.0081052523
0.0081051527
)
;

boundaryField
{
    INLET
    {
        type            zeroGradient;
    }
    OUTLET
    {
        type            fixedValue;
        value           uniform 0;
    }
    WALL
    {
        type            zeroGradient;
    }
    frontAndBackPlanes
    {
        type            empty;
    }
}


// ************************************************************************* //
