/*--------------------------------*- C++ -*----------------------------------*\
| =========                 |                                                 |
| \\      /  F ield         | OpenFOAM: The Open Source CFD Toolbox           |
|  \\    /   O peration     | Version:  2406                                  |
|   \\  /    A nd           | Website:  www.openfoam.com                      |
|    \\/     M anipulation  |                                                 |
\*---------------------------------------------------------------------------*/
FoamFile
{
    version     2.0;
    format      ascii;
    arch        "LSB;label=32;scalar=64";
    class       surfaceScalarField;
    location    "13";
    object      phi;
}
// * * * * * * * * * * * * * * * * * * * * * * * * * * * * * * * * * * * * * //

dimensions      [0 3 -1 0 0 0 0];

oriented        oriented;

internalField   nonuniform List<scalar> 
2279
(
2.3617424e-08
1.0148927e-05
2.0509723e-07
4.982375e-05
6.9331627e-07
0.00014252872
1.5784683e-06
0.00034353082
2.6788415e-06
0.0007537809
3.3472817e-06
0.0015415573
3.0435088e-06
0.0029497096
2.151674e-06
0.005249171
1.4317962e-06
0.008582269
9.8958565e-07
0.012685995
5.1266284e-07
0.016666385
-1.2046697e-12
0.01918202
-5.1265976e-07
0.01918202
-9.8956382e-07
0.016666385
-1.4317365e-06
0.012685995
-2.1515513e-06
0.0085822689
-3.0432958e-06
0.0052491709
-3.346946e-06
0.0029497095
-2.6783643e-06
0.0015415572
-1.577912e-06
0.00075378079
-6.9279685e-07
0.00034353075
-2.0474485e-07
0.00014252868
-2.345345e-08
4.9823733e-05
1.0148922e-05
-9.5248502e-08
1.0244175e-05
-5.3794038e-07
5.0266442e-05
-1.6230022e-06
0.00014361378
-3.538955e-06
0.00034544678
-5.9201915e-06
0.00075616214
-7.4055104e-06
0.0015430426
-6.5847387e-06
0.0029488888
-3.9361726e-06
0.0052465224
-1.388401e-06
0.0085797213
-6.5129134e-08
0.012684671
2.4239763e-07
0.016666078
-9.9462102e-12
0.019182263
-2.4241933e-07
0.019182263
6.5101665e-08
0.016666078
1.3883616e-06
0.012684671
3.9361152e-06
0.0085797213
6.5846504e-06
0.0052465225
7.4053714e-06
0.0029488889
5.9199903e-06
0.0015430427
3.5387238e-06
0.00075616219
1.6227986e-06
0.00034544681
5.3781175e-07
0.0001436138
9.5194589e-08
5.0266447e-05
1.0244176e-05
5.0139888e-08
1.0194035e-05
2.6334496e-07
5.0053237e-05
7.4910682e-07
0.00014312802
1.5314572e-06
0.00034466443
2.3366531e-06
0.00075535694
2.5476571e-06
0.0015428316
1.8390878e-06
0.0029495974
9.7566234e-07
0.0052473859
6.7694432e-07
0.00858002
6.7177322e-07
0.012684677
4.8415191e-07
0.016666266
-1.0778075e-11
0.019182747
-4.8417453e-07
0.019182747
-6.7179693e-07
0.016666266
-6.7696391e-07
0.012684677
-9.7567809e-07
0.00858002
-1.8390983e-06
0.0052473858
-2.5476603e-06
0.0029495974
-2.3366536e-06
0.0015428316
-1.5314614e-06
0.00075535693
-7.4911925e-07
0.00034466443
-2.6335902e-07
0.00014312802
-5.0149553e-08
5.0053238e-05
1.0194036e-05
1.9586757e-08
1.0174449e-05
1.1184924e-07
4.9960975e-05
3.6128399e-07
0.00014287859
9.0504671e-07
0.00034412067
1.8716573e-06
0.00075439033
3.0948182e-06
0.0015416085
3.8987161e-06
0.0029487935
3.7285446e-06
0.005247556
2.9241968e-06
0.0085808244
1.9733599e-06
0.012685627
1.0127584e-06
0.016667226
-6.4751313e-12
0.01918376
-1.0127692e-06
0.01918376
-1.973365e-06
0.016667226
-2.9241955e-06
0.012685627
-3.72854e-06
0.0085808244
-3.8987103e-06
0.005247556
-3.0948059e-06
0.0029487935
-1.8716342e-06
0.0015416085
-9.0501611e-07
0.00075439033
-3.6125371e-07
0.00034412066
-1.118283e-07
0.00014287859
-1.9576948e-08
4.9960974e-05
1.0174448e-05
8.0840759e-09
1.0166365e-05
4.7141718e-08
4.9921918e-05
1.5494713e-07
0.00014277078
3.9846311e-07
0.00034387715
8.7979395e-07
0.000753909
1.7015144e-06
0.0015407868
2.7512702e-06
0.0029477438
3.4623521e-06
0.005246845
3.470848e-06
0.0085808159
2.8006717e-06
0.012686298
1.5505011e-06
0.016668476
-1.1008563e-11
0.01918531
-1.5505222e-06
0.01918531
-2.8006913e-06
0.016668476
-3.4708677e-06
0.012686298
-3.4623705e-06
0.0085808159
-2.7512858e-06
0.005246845
-1.7015287e-06
0.0029477438
-8.7980929e-07
0.0015407868
-3.9847963e-07
0.00075390901
-1.5496194e-07
0.00034387715
-4.7151651e-08
0.00014277078
-8.088612e-09
4.9921918e-05
1.0166365e-05
4.9360598e-09
1.0161429e-05
2.8699233e-08
4.9898155e-05
9.5121955e-08
0.00014270436
2.492148e-07
0.00034372306
5.6360947e-07
0.00075359461
1.1213739e-06
0.001540229
1.9184539e-06
0.0029469467
2.6588125e-06
0.0052461046
2.8930475e-06
0.0085805816
2.478753e-06
0.012686712
1.4344128e-06
0.016669521
-1.129898e-11
0.019186745
-1.4344342e-06
0.019186745
-2.4787706e-06
0.016669521
-2.8930592e-06
0.012686712
-2.6588209e-06
0.0085805816
-1.9184602e-06
0.0052461046
-1.1213813e-06
0.0029469467
-5.6361998e-07
0.001540229
-2.4922858e-07
0.00075359461
-9.5136321e-08
0.00034372306
-2.8710155e-08
0.00014270436
-4.9417222e-09
4.9898155e-05
1.0161429e-05
4.4125062e-09
1.0157017e-05
2.5525976e-08
4.9877042e-05
8.3830551e-08
0.00014264606
2.1689462e-07
0.00034359
4.8450154e-07
0.000753327
9.563608e-07
0.0015397572
1.6413719e-06
0.0029462617
2.324577e-06
0.0052454214
2.5939447e-06
0.0085803123
2.2393517e-06
0.012687066
1.3066616e-06
0.016670453
-1.0573058e-11
0.019188051
-1.3066808e-06
0.019188051
-2.2393653e-06
0.016670453
-2.5939516e-06
0.012687066
-2.3245801e-06
0.0085803123
-1.6413748e-06
0.0052454214
-9.5636765e-07
0.0029462617
-4.8451456e-07
0.0015397572
-2.169128e-07
0.000753327
-8.3849372e-08
0.00034359
-2.5540129e-08
0.00014264606
-4.419759e-09
4.9877042e-05
1.0157017e-05
3.6256648e-09
1.0153391e-05
2.1036864e-08
4.9859631e-05
6.9438561e-08
0.00014259765
1.8114213e-07
0.00034347829
4.0971535e-07
0.00075309843
8.2390518e-07
0.001539343
1.4539931e-06
0.0029456316
2.1430736e-06
0.0052447323
2.4674675e-06
0.0085799879
2.1883843e-06
0.012687346
1.2866317e-06
0.016671355
-1.0613436e-11
0.019189338
-1.2866505e-06
0.019189338
-2.1883971e-06
0.016671355
-2.4674737e-06
0.012687346
-2.1430761e-06
0.0085799879
-1.4539966e-06
0.0052447323
-8.2391578e-07
0.0029456316
-4.0973599e-07
0.001539343
-1.8117044e-07
0.00075309843
-6.9467242e-08
0.00034347829
-2.105803e-08
0.00014259765
-3.636353e-09
4.9859631e-05
1.0153391e-05
2.9832416e-09
1.0150408e-05
1.7347253e-08
4.9845267e-05
5.7377744e-08
0.00014255762
1.5007463e-07
0.0003433856
3.4097261e-07
0.00075290754
6.9193423e-07
0.001538992
1.2441115e-06
0.0029450794
1.9041871e-06
0.0052440723
2.3015975e-06
0.0085795905
2.097501e-06
0.01268755
1.2520004e-06
0.016672201
-1.0601833e-11
0.01919059
-1.2520189e-06
0.01919059
-2.0975129e-06
0.016672201
-2.3016028e-06
0.01268755
-1.9041885e-06
0.0085795905
-1.2441153e-06
0.0052440723
-6.9194831e-07
0.0029450794
-3.4100041e-07
0.001538992
-1.5011257e-07
0.00075290754
-5.7415984e-08
0.0003433856
-1.7375382e-08
0.00014255762
-2.9974259e-09
4.9845267e-05
1.0150408e-05
2.4655044e-09
1.0147943e-05
1.4363323e-08
4.9833369e-05
4.7626912e-08
0.00014252436
1.2502957e-07
0.0003433082
2.8559076e-07
0.00075274698
5.8418271e-07
0.0015386934
1.0641887e-06
0.0029445994
1.6641613e-06
0.0052434723
2.089874e-06
0.0085791648
1.952889e-06
0.012687687
1.1802355e-06
0.016672973
-1.0660947e-11
0.01919177
-1.1802539e-06
0.01919177
-1.9529004e-06
0.016672973
-2.0898779e-06
0.012687687
-1.6641609e-06
0.0085791648
-1.0641926e-06
0.0052434723
-5.8420078e-07
0.0029445994
-2.8562695e-07
0.0015386934
-1.2507894e-07
0.00075274698
-4.7676575e-08
0.00034330819
-1.4399798e-08
0.00014252436
-2.4838782e-09
4.9833369e-05
1.0147942e-05
2.102492e-09
1.014584e-05
1.2258211e-08
4.9823214e-05
4.0688656e-08
0.00014249593
1.0699115e-07
0.00034324189
2.4508056e-07
0.00075260889
5.0385689e-07
0.0015384346
9.2624033e-07
0.0029441771
1.4715165e-06
0.005242927
1.8909102e-06
0.0085787454
1.8050191e-06
0.012687773
1.1036819e-06
0.016673675
-1.0512871e-11
0.019192874
-1.1036997e-06
0.019192874
-1.8050291e-06
0.016673675
-1.8909117e-06
0.012687773
-1.4715136e-06
0.0085787454
-9.2624413e-07
0.005242927
-5.0387968e-07
0.0029441771
-2.4512693e-07
0.0015384346
-1.0705456e-07
0.00075260889
-4.0752455e-08
0.00034324189
-1.2305051e-08
0.00014249593
-2.1260793e-09
4.9823213e-05
1.014584e-05
1.8282574e-09
1.0144012e-05
1.0665614e-08
4.9814376e-05
3.543068e-08
0.00014247117
9.3284004e-08
0.00034318404
2.1414143e-07
0.00075248803
4.4193187e-07
0.0015382069
8.1811987e-07
0.0029438009
1.3163872e-06
0.0052424288
1.7244972e-06
0.0085783373
1.6780409e-06
0.012687819
1.0377974e-06
0.016674315
-9.9767122e-12
0.019193912
-1.0378139e-06
0.019193912
-1.6780485e-06
0.016674315
-1.7244951e-06
0.012687819
-1.3163809e-06
0.0085783373
-8.1812335e-07
0.0052424288
-4.4196016e-07
0.0029438009
-2.1420002e-07
0.0015382069
-9.3364374e-08
0.00075248803
-3.5511553e-08
0.00034318404
-1.0724972e-08
0.00014247117
-1.8581403e-09
4.9814376e-05
1.0144012e-05
1.6105156e-09
1.0142401e-05
9.3998019e-09
4.9806587e-05
3.1244842e-08
0.00014244932
8.2341505e-08
0.00034313295
1.8932316e-07
0.00075238105
3.9182771e-07
0.0015380044
7.2924852e-07
0.0029434635
1.1851533e-06
0.0052419729
1.5781802e-06
0.0085779443
1.5623391e-06
0.012687835
9.7669232e-07
0.016674901
-9.1423501e-12
0.019194888
-9.7670665e-07
0.019194888
-1.5623432e-06
0.016674901
-1.5781731e-06
0.012687835
-1.1851426e-06
0.0085779442
-7.2925134e-07
0.0052419729
-3.9186248e-07
0.0029434635
-1.8939637e-07
0.0015380044
-8.2442124e-08
0.00075238105
-3.1346015e-08
0.00034313294
-9.4739905e-09
0.00014244932
-1.6478408e-09
4.9806587e-05
1.0142401e-05
1.4323603e-09
1.0140969e-05
8.3632088e-09
4.9799657e-05
2.7813151e-08
0.00014242987
7.335408e-08
0.00034308741
1.6887159e-07
0.00075228554
3.5027325e-07
0.001537823
6.5459095e-07
0.0029431591
1.0720682e-06
0.0052415554
1.44644e-06
0.0085775699
1.4548775e-06
0.012687826
9.1880493e-07
0.016675437
-8.0964445e-12
0.019195807
-9.1881648e-07
0.019195807
-1.4548771e-06
0.016675437
-1.4464267e-06
0.012687826
-1.0720521e-06
0.0085775699
-6.5459285e-07
0.0052415554
-3.5031561e-07
0.0029431591
-1.6896193e-07
0.001537823
-7.347831e-08
0.00075228554
-2.7937873e-08
0.0003430874
-8.4545413e-09
0.00014242987
-1.4782679e-09
4.9799656e-05
1.0140969e-05
1.2850715e-09
1.0139684e-05
7.5053317e-09
4.9793436e-05
2.49695e-08
0.00014241241
6.5892624e-08
0.00034304648
1.5184121e-07
0.00075219959
3.1549119e-07
0.0015376593
5.9150551e-07
0.0029428831
9.7479733e-07
0.0052411721
1.329713e-06
0.008577215
1.35679e-06
0.012687799
8.6524873e-07
0.016675928
-6.9230939e-12
0.019196673
-8.6525707e-07
0.019196673
-1.3567842e-06
0.016675928
-1.3296925e-06
0.012687799
-9.7477495e-07
0.008577215
-5.9150636e-07
0.0052411721
-3.155423e-07
0.0029428831
-1.5195115e-07
0.0015376593
-6.6043689e-08
0.00075219959
-2.5120865e-08
0.00034304648
-7.6160018e-09
0.00014241241
-1.3406411e-09
4.9793436e-05
1.0139684e-05
1.1615764e-09
1.0138523e-05
6.785507e-09
4.9787813e-05
2.2581213e-08
0.00014239661
5.9617069e-08
0.00034300945
1.3748452e-07
0.00075212173
2.8605294e-07
0.0015375107
5.3772068e-07
0.0029426315
8.9071764e-07
0.0052408191
1.2264076e-06
0.0085768793
1.267494e-06
0.012687758
8.159246e-07
0.01667638
-5.7014626e-12
0.019197488
-8.1592946e-07
0.019197488
-1.2674821e-06
0.01667638
-1.226379e-06
0.012687758
-8.9068814e-07
0.0085768793
-5.3772046e-07
0.0052408191
-2.8611396e-07
0.0029426315
-1.3761639e-07
0.0015375108
-5.9797969e-08
0.00075212172
-2.2762085e-08
0.00034300945
-6.9175416e-09
0.00014239661
-1.2278037e-09
4.9787812e-05
1.0138522e-05
1.0562577e-09
1.0137466e-05
6.1713354e-09
4.9782698e-05
2.0542196e-08
0.00014238224
5.4253935e-08
0.00034297574
1.2519441e-07
0.00075205079
2.6077458e-07
0.0015373752
4.9126194e-07
0.002942401
8.1723774e-07
0.0052404932
1.1341949e-06
0.0085765624
1.1857963e-06
0.012687707
7.7021364e-07
0.016676795
-4.5179084e-12
0.019198259
-7.7021503e-07
0.019198259
-1.185778e-06
0.016676795
-1.1341576e-06
0.012687707
-8.1720064e-07
0.0085765623
-4.9126075e-07
0.0052404932
-2.6084662e-07
0.002942401
-1.2535032e-07
0.0015373752
-5.4467376e-08
0.00075205079
-2.0755139e-08
0.00034297573
-6.32654e-09
0.00014238224
-1.1340272e-09
4.9782697e-05
1.0137466e-05
9.6528896e-10
1.0136501e-05
5.6405956e-09
4.9778023e-05
1.8779245e-08
0.0001423691
4.9613234e-08
0.0003429449
1.1454548e-07
0.00075198586
2.388178e-07
0.0015372509
4.5071455e-07
0.0029421891
7.5249603e-07
0.0052401914
1.0515121e-06
0.0085762633
1.1108383e-06
0.012687647
7.2768812e-07
0.016677178
-3.4773981e-12
0.019198986
-7.2768623e-07
0.019198986
-1.1108134e-06
0.016677178
-1.0514656e-06
0.012687647
-7.5245098e-07
0.0085762633
-4.5071257e-07
0.0052401914
-2.3890188e-07
0.0029421891
-1.147273e-07
0.0015372509
-4.9861524e-08
0.00075198586
-1.9026419e-08
0.0003429449
-5.8204773e-09
0.0001423691
-1.0553346e-09
4.9778021e-05
1.0136501e-05
8.8599816e-10
1.0135615e-05
5.1777401e-09
4.9773731e-05
1.7241002e-08
0.00014235704
4.5561125e-08
0.00034291658
1.052363e-07
0.00075192618
2.1958352e-07
0.0015371366
4.1505306e-07
0.0029419936
6.9510283e-07
0.0052399113
9.7710712e-07
0.0085759813
1.0418746e-06
0.012687583
6.8800478e-07
0.016677532
-2.7667383e-12
0.019199674
-6.8799997e-07
0.019199674
-1.0418431e-06
0.016677532
-9.7705125e-07
0.012687583
-6.9504965e-07
0.0085759813
-4.1505052e-07
0.0052399113
-2.1968052e-07
0.0029419936
-1.0544553e-07
0.0015371366
-4.5846065e-08
0.00075192618
-1.7524046e-08
0.00034291658
-5.3834204e-09
0.00014235704
-9.888586e-10
4.977373e-05
1.0135615e-05
8.1629372e-10
1.0134799e-05
4.7706162e-09
4.9769777e-05
1.5887359e-08
0.00014234593
4.1993103e-08
0.00034289048
9.7031213e-08
0.00075187115
2.0260088e-07
0.001537031
3.8345991e-07
0.0029418128
6.4390966e-07
0.0052396509
9.098562e-07
0.0085757154
9.7824351e-07
0.012687514
6.5086596e-07
0.01667786
-2.2419937e-12
0.019200325
-6.5085868e-07
0.019200325
-9.7820573e-07
0.01667786
-9.0979108e-07
0.012687514
-6.4384849e-07
0.0085757154
-3.8345714e-07
0.0052396509
-2.0271152e-07
0.0029418128
-9.7268879e-08
0.001537031
-4.2315839e-08
0.00075187115
-1.6207241e-08
0.00034289048
-5.0027211e-09
0.00014234592
-9.3225764e-10
4.9769776e-05
1.0134799e-05
7.5452663e-10
1.0134045e-05
4.4096396e-09
4.9766123e-05
1.4686656e-08
0.00014233565
3.8826559e-08
0.00034286634
8.9743384e-08
0.00075182023
1.8749461e-07
0.0015369332
3.5527663e-07
0.002941645
5.9797257e-07
0.0052394082
8.4880216e-07
0.0085754646
9.1937439e-07
0.012687444
6.1600981e-07
0.016678163
-2.1037253e-12
0.019200941
-6.1600065e-07
0.019200941
-9.193307e-07
0.016678163
-8.4872805e-07
0.012687444
-5.9790367e-07
0.0085754646
-3.5527399e-07
0.0052394082
-1.8761933e-07
0.002941645
-9.0009947e-08
0.0015369333
-3.9187414e-08
0.00075182023
-1.5043519e-08
0.00034286634
-4.6681898e-09
0.00014233565
-8.8357829e-10
4.9766121e-05
1.0134045e-05
6.9940784e-10
1.0133346e-05
4.0873146e-09
4.9762735e-05
1.36141e-08
0.00014232612
3.5996658e-08
0.00034284396
8.3225701e-08
0.000751773
1.7396758e-07
0.0015368425
3.299767e-07
0.002941489
5.5652178e-07
0.0052391817
7.9313463e-07
0.008575228
8.6477577e-07
0.012687372
5.8323026e-07
0.016678445
-2.4156897e-12
0.019201525
-5.8321997e-07
0.019201525
-8.6472675e-07
0.016678445
-7.9305203e-07
0.012687372
-5.5644558e-07
0.008575228
-3.2997451e-07
0.0052391817
-1.7410648e-07
0.002941489
-8.3520895e-08
0.0015368425
-3.6394978e-08
0.00075177301
-1.4007111e-08
0.00034284396
-4.3716219e-09
0.00014232612
-8.4117657e-10
4.9762734e-05
1.0133346e-05
6.4992008e-10
1.0132697e-05
3.7977255e-09
4.9759588e-05
1.2650109e-08
0.00014231727
3.3452127e-08
0.00034282316
7.7361567e-08
0.00075172909
1.6178341e-07
0.0015367581
3.0713852e-07
0.0029413436
5.1893406e-07
0.0052389699
7.4218679e-07
0.0085750047
8.1402111e-07
0.0126873
5.5234021e-07
0.016678706
-3.2226179e-12
0.019202077
-5.5232964e-07
0.019202077
-8.1396751e-07
0.016678706
-7.420964e-07
0.0126873
-5.1885118e-07
0.0085750047
-3.0713712e-07
0.0052389699
-1.6193621e-07
0.0029413437
-7.7684301e-08
0.0015367581
-3.3886148e-08
0.0007517291
-1.3077345e-08
0.00034282316
-4.1063116e-09
0.00014231727
-8.0364095e-10
4.9759587e-05
1.0132696e-05
6.0524816e-10
1.0132092e-05
3.5361307e-09
4.9756659e-05
1.177898e-08
0.00014230903
3.1151803e-08
0.00034280379
7.2057203e-08
0.00075168819
1.5075135e-07
0.0015366794
2.8641968e-07
0.002941208
4.8469627e-07
0.0052387716
6.9539464e-07
0.008574794
7.6675048e-07
0.012687229
5.2320096e-07
0.01667895
-4.4471602e-12
0.0192026
-5.2319094e-07
0.0192026
-7.6669317e-07
0.01667895
-6.9529738e-07
0.012687229
-4.8460753e-07
0.008574794
-2.8641937e-07
0.0052387716
-1.5091732e-07
0.002941208
-7.2405477e-08
0.0015366794
-3.1618557e-08
0.00075168819
-1.223734e-08
0.00034280378
-3.8666714e-09
0.00014230903
-7.6973564e-10
4.9756657e-05
1.0132092e-05
5.6473248e-10
1.0131529e-05
3.2986924e-09
4.9753926e-05
1.0987996e-08
0.00014230134
2.906233e-08
0.00034278571
6.723653e-08
0.00075165002
1.4071635e-07
0.0015366059
2.6754076e-07
0.0029410811
4.5338694e-07
0.0052385857
6.522893e-07
0.0085745951
7.2264201e-07
0.012687158
4.9566898e-07
0.016679177
-6.0351796e-12
0.019203096
-4.956603e-07
0.019203096
-7.2258194e-07
0.016679177
-6.5218629e-07
0.012687158
-4.5329334e-07
0.0085745951
-2.6754179e-07
0.0052385858
-1.4089426e-07
0.0029410812
-6.7607391e-08
0.0015366059
-2.9557599e-08
0.00075165002
-1.1473167e-08
0.00034278571
-3.6479963e-09
0.00014230134
-7.3837157e-10
4.9753924e-05
1.0131528e-05
5.2783277e-10
1.0131002e-05
3.0822666e-09
4.9751373e-05
1.0266736e-08
0.00014229416
2.7156353e-08
0.00034276883
6.2837067e-08
0.00075161434
1.3155072e-07
0.0015365372
2.502704e-07
0.0029409624
4.2465252e-07
0.0052384114
6.1246665e-07
0.0085744073
6.8142797e-07
0.01268709
4.6965041e-07
0.016679389
-7.8878436e-12
0.019203565
-4.6964374e-07
0.019203565
-6.8136614e-07
0.016679389
-6.123592e-07
0.012687089
-4.2455523e-07
0.0085744073
-2.5027298e-07
0.0052384114
-1.3173886e-07
0.0029409625
-6.32266e-08
0.0015365372
-2.7674671e-08
0.00075161434
-1.0773208e-08
0.00034276882
-3.4462908e-09
0.00014229416
-7.0858823e-10
4.9751371e-05
1.0131002e-05
4.94103e-10
1.013051e-05
2.8842592e-09
4.9748985e-05
9.6065991e-09
0.00014228744
2.5411295e-08
0.00034275302
5.8807235e-08
0.00075158094
1.2314897e-07
0.0015364729
2.3441717e-07
0.0029408512
3.9820007e-07
0.0052382476
5.7559025e-07
0.0085742299
6.4285627e-07
0.012687022
4.4502406e-07
0.016679586
-9.8836552e-12
0.01920401
-4.4501986e-07
0.01920401
-6.4279369e-07
0.016679586
-5.7547981e-07
0.012687022
-3.9810042e-07
0.0085742299
-2.3442144e-07
0.0052382476
-1.2334515e-07
0.0029408512
-5.9210603e-08
0.0015364729
-2.5946016e-08
0.00075158095
-1.0127738e-08
0.00034275302
-3.2581662e-09
0.00014228744
-6.7954918e-10
4.9748983e-05
1.0130509e-05
4.6316926e-10
1.0130048e-05
2.7024994e-09
4.9746748e-05
9.0003932e-09
0.00014228115
2.3808261e-08
0.00034273822
5.5103801e-08
0.00075154965
1.1542245e-07
0.0015364125
2.198193e-07
0.0029407468
3.7377822e-07
0.0052380936
5.4136261e-07
0.0085740623
6.0672678e-07
0.012686957
4.217305e-07
0.016679771
-1.1993296e-11
0.019204432
-4.2172917e-07
0.019204432
-6.0666447e-07
0.016679771
-5.412508e-07
0.012686957
-3.7367769e-07
0.0085740624
-2.1982533e-07
0.0052380937
-1.1562405e-07
0.0029407468
-5.5515334e-08
0.0015364126
-2.435168e-08
0.00075154965
-9.5285658e-09
0.00034273822
-3.080751e-09
0.00014228114
-6.5053793e-10
4.9746746e-05
1.0130048e-05
4.3471532e-10
1.0129616e-05
2.5351569e-09
4.974465e-05
8.4420585e-09
0.00014227524
2.2331351e-08
0.00034272433
5.1690432e-08
0.00075152029
1.0829672e-07
0.0015363559
2.0634102e-07
0.0029406487
3.5117693e-07
0.0052379488
5.0953564e-07
0.008573904
5.7283178e-07
0.012686894
3.9965526e-07
0.016679945
-1.4078974e-11
0.019204832
-3.9965708e-07
0.019204832
-5.7277081e-07
0.016679945
-5.0942422e-07
0.012686894
-3.5107715e-07
0.008573904
-2.0634885e-07
0.0052379489
-1.0850071e-07
0.0029406488
-5.2103747e-08
0.001536356
-2.2874877e-08
0.0007515203
-8.9688042e-09
0.00034272433
-2.9116395e-09
0.00014227524
-6.2095885e-10
4.9744648e-05
1.0129615e-05
4.084706e-10
1.0129209e-05
2.3806745e-09
4.9742681e-05
7.9264462e-09
0.0001422697
2.096704e-08
0.00034271129
4.8536138e-08
0.00075149272
1.0170804e-07
0.0015363028
1.938653e-07
0.0029405566
3.3021164e-07
0.0052378124
4.7988434e-07
0.0085737543
5.4102472e-07
0.012686832
3.7877064e-07
0.016680107
-1.6024334e-11
0.019205211
-3.7877575e-07
0.019205211
-5.4096615e-07
0.016680107
-4.7977515e-07
0.012686832
-3.301143e-07
0.0085737543
-1.9387489e-07
0.0052378125
-1.019111e-07
0.0029405566
-4.8944299e-08
0.0015363028
-2.1501405e-08
0.00075149273
-8.4426882e-09
0.00034271129
-2.7488526e-09
0.0001422697
-5.9033854e-10
4.9742679e-05
1.0129209e-05
3.8420066e-10
1.0128828e-05
2.2377081e-09
4.974083e-05
7.4491211e-09
0.00014226449
1.9703716e-08
0.00034269904
4.5614415e-08
0.00075146681
9.5602088e-08
0.0015362528
1.822927e-07
0.0029404699
3.1072715e-07
0.005237684
4.5222027e-07
0.0085736128
5.1112244e-07
0.012686774
3.589555e-07
0.016680259
-1.7738539e-11
0.01920557
-3.589639e-07
0.01920557
-5.1106733e-07
0.016680259
-4.5211524e-07
0.012686773
-3.1063402e-07
0.0085736128
-1.8230397e-07
0.0052376841
-9.5800663e-08
0.0029404699
-4.6010104e-08
0.0015362528
-2.0219208e-08
0.00075146682
-7.9453904e-09
0.00034269904
-2.5907856e-09
0.00014226449
-5.583203e-10
4.9740829e-05
1.0128828e-05
3.6170323e-10
1.0128469e-05
2.1051111e-09
4.973909e-05
7.0063056e-09
0.00014225959
1.8531451e-08
0.00034268752
4.2902453e-08
0.00075144244
8.9931755e-08
0.0015362057
1.7153621e-07
0.0029403883
2.9258452e-07
0.005237563
4.2637065e-07
0.008573479
4.8302721e-07
0.012686717
3.4021783e-07
0.016680402
-1.9141774e-11
0.01920591
-3.402294e-07
0.01920591
-4.8297656e-07
0.016680402
-4.2627171e-07
0.012686717
-2.9249737e-07
0.0085734791
-1.7154904e-07
0.005237563
-9.0122166e-08
0.0029403883
-4.3278161e-08
0.0015362058
-1.9018166e-08
0.00075144245
-7.4729883e-09
0.00034268752
-2.4362082e-09
0.00014225959
-5.2466719e-10
4.9739089e-05
1.0128469e-05
3.4079713e-10
1.0128132e-05
1.9818552e-09
4.9737453e-05
6.5946215e-09
0.00014225499
1.7441441e-08
0.00034267668
4.0380255e-08
0.00075141951
8.4656137e-08
0.0015361615
1.6152075e-07
0.0029403114
2.7566534e-07
0.0052374488
4.0218637e-07
0.0085733525
4.5656182e-07
0.012686662
3.2241512e-07
0.016680536
-2.0170115e-11
0.019206232
-3.2242962e-07
0.019206232
-4.5651657e-07
0.016680536
-4.0209544e-07
0.012686662
-2.7558594e-07
0.0085733525
-1.6153496e-07
0.0052374489
-8.483466e-08
0.0029403114
-4.072847e-08
0.0015361615
-1.7889531e-08
0.00075141951
-7.0221951e-09
0.00034267668
-2.284177e-09
0.00014225498
-4.8924678e-10
4.9737452e-05
1.0128131e-05
3.2132986e-10
1.0127814e-05
1.867094e-09
4.9735912e-05
6.2112913e-09
0.00014225065
1.6426353e-08
0.00034266647
3.8030824e-08
0.0007513979
7.9739856e-08
0.0015361197
1.5218061e-07
0.002940239
2.5986413e-07
0.0052373411
3.7953678e-07
0.0085732328
4.3168159e-07
0.01268661
3.0560198e-07
0.016680662
-2.0766907e-11
0.019206538
-3.0561907e-07
0.019206538
-4.3164262e-07
0.016680662
-3.7945571e-07
0.01268661
-2.5979416e-07
0.0085732329
-1.5219602e-07
0.0052373412
-7.9902826e-08
0.002940239
-3.834422e-08
0.0015361198
-1.6826264e-08
0.00075139791
-6.5905573e-09
0.00034266646
-2.1340955e-09
0.00014225064
-4.5203666e-10
4.9735911e-05
1.0127813e-05
3.0315461e-10
1.0127514e-05
1.7599948e-09
4.9734459e-05
5.8535897e-09
0.00014224656
1.5479161e-08
0.00034265684
3.5838404e-08
0.00075137754
7.5150954e-08
0.0015360804
1.434569e-07
0.0029401706
2.4508601e-07
0.0052372395
3.5829419e-07
0.0085731196
4.0819288e-07
0.01268656
2.8959507e-07
0.016680781
-2.0892751e-11
0.019206828
-2.8961435e-07
0.019206828
-4.08161e-07
0.016680781
-3.5822474e-07
0.01268656
-2.4502707e-07
0.0085731196
-1.4347327e-07
0.0052372396
-7.5294849e-08
0.0029401707
-3.6110012e-08
0.0015360805
-1.5821857e-08
0.00075137755
-6.1758853e-09
0.00034265684
-1.9855309e-09
0.00014224656
-4.1309413e-10
4.9734459e-05
1.0127514e-05
2.8616213e-10
1.0127232e-05
1.6599734e-09
4.973309e-05
5.5196054e-09
0.0001422427
1.4594711e-08
0.00034264777
3.37907e-08
0.00075135835
7.0863247e-08
0.0015360434
1.3530084e-07
0.0029401062
2.3125407e-07
0.0052371435
3.3837051e-07
0.0085730125
3.8612021e-07
0.012686513
2.7451578e-07
0.016680892
-2.0525311e-11
0.019207102
-2.7453676e-07
0.019207102
-3.8609612e-07
0.016680892
-3.3831429e-07
0.012686513
-2.3120762e-07
0.0085730125
-1.3531792e-07
0.0052371436
-7.0984768e-08
0.0029401062
-3.4014062e-08
0.0015360434
-1.4871877e-08
0.00075135835
-5.7769964e-09
0.00034264777
-1.8384355e-09
0.0001422427
-3.7258114e-10
4.973309e-05
1.0127232e-05
2.7022269e-10
1.0126966e-05
1.5662758e-09
4.9731799e-05
5.2068742e-09
0.00014223907
1.3766799e-08
0.00034263922
3.1874269e-08
0.00075134024
6.6850167e-08
0.0015360084
1.2766306e-07
0.0029400454
2.1828436e-07
0.0052370529
3.1963779e-07
0.0085729111
3.6522121e-07
0.012686467
2.6011172e-07
0.016680997
-1.9653629e-11
0.019207362
-2.601339e-07
0.019207362
-3.6520547e-07
0.016680997
-3.1959621e-07
0.012686467
-2.1825167e-07
0.0085729112
-1.2768057e-07
0.005237053
-6.6946316e-08
0.0029400454
-3.2043607e-08
0.0015360084
-1.3971061e-08
0.00075134024
-5.3923734e-09
0.00034263922
-1.6927474e-09
0.00014223907
-3.3071643e-10
4.9731799e-05
1.0126966e-05
2.5527886e-10
1.0126714e-05
1.4786389e-09
4.973058e-05
4.9145316e-09
0.00014223564
1.2992782e-08
0.00034263114
3.0081816e-08
0.00075132315
6.3094672e-08
0.0015359754
1.2051179e-07
0.002939988
2.061325e-07
0.0052369673
3.0206632e-07
0.0085728152
3.4562458e-07
0.012686424
2.4660482e-07
0.016681096
-1.8281258e-11
0.019207609
-2.4662761e-07
0.019207609
-3.4561763e-07
0.016681096
-3.0204057e-07
0.012686424
-2.0611462e-07
0.0085728152
-1.2052941e-07
0.0052369673
-6.3162773e-08
0.002939988
-3.0192098e-08
0.0015359754
-1.3117798e-08
0.00075132316
-5.0221818e-09
0.00034263114
-1.5489557e-09
0.00014223564
-2.878219e-10
4.9730581e-05
1.0126715e-05
2.4119108e-10
1.0126477e-05
1.3962001e-09
4.972943e-05
4.6397607e-09
0.0001422324
1.2265877e-08
0.00034262352
2.8399699e-08
0.00075130702
5.9571481e-08
0.0015359442
1.1379948e-07
0.0029399337
1.9470817e-07
0.0052368864
2.8549318e-07
0.0085727244
3.2698771e-07
0.012686382
2.3363127e-07
0.01668119
-1.6433872e-11
0.019207843
-2.3365403e-07
0.019207843
-3.2698979e-07
0.01668119
-2.8548415e-07
0.012686382
-1.9470585e-07
0.0085727244
-1.1381683e-07
0.0052368864
-5.9609252e-08
0.0029399337
-2.8446782e-08
0.0015359442
-1.2306529e-08
0.00075130702
-4.6648268e-09
0.00034262352
-1.4070868e-09
0.0001422324
-2.4420475e-10
4.9729431e-05
1.0126478e-05
2.2799628e-10
1.0126253e-05
1.3192971e-09
4.9728343e-05
4.383639e-09
0.00014222934
1.1587911e-08
0.00034261632
2.68289e-08
0.00075129178
5.6277458e-08
0.0015359147
1.0751999e-07
0.0029398825
1.8402043e-07
0.0052368099
2.6999233e-07
0.0085726384
3.0961163e-07
0.012686342
2.2156937e-07
0.016681278
-1.4011494e-11
0.019208064
-2.2159136e-07
0.019208064
-3.0962272e-07
0.016681278
-2.7000054e-07
0.012686342
-1.8403407e-07
0.0085726385
-1.075366e-07
0.0052368099
-5.62831e-08
0.0029398825
-2.6809767e-08
0.0015359147
-1.1540645e-08
0.00075129178
-4.322962e-09
0.00034261632
-1.2686278e-09
0.00014222934
-2.0048048e-10
4.9728344e-05
1.0126254e-05
2.154731e-10
1.0126042e-05
1.2464772e-09
4.9727317e-05
4.1414437e-09
0.00014222645
1.0948089e-08
0.00034260952
2.5349734e-08
0.00075127738
5.3179987e-08
0.0015358869
1.0161253e-07
0.0029398341
1.739393e-07
0.0052367376
2.5530159e-07
0.0085725571
2.9297018e-07
0.012686305
2.0988117e-07
0.016681361
-1.1145132e-11
0.019208274
-2.0990169e-07
0.019208274
-2.929901e-07
0.016681361
-2.5532721e-07
0.012686305
-1.7396897e-07
0.0085725571
-1.0162789e-07
0.0052367376
-5.3152144e-08
0.0029398341
-2.5262394e-08
0.0015358869
-1.0810782e-08
0.00075127738
-3.9933128e-09
0.00034260952
-1.1331961e-09
0.00014222645
-1.5697883e-10
4.9727318e-05
1.0126042e-05
2.0390288e-10
1.0125841e-05
1.1796435e-09
4.9726345e-05
3.919282e-09
0.00014222371
1.0359621e-08
0.00034260308
2.398358e-08
0.00075126375
5.0308297e-08
0.0015358606
9.6127343e-08
0.0029397882
1.64588e-07
0.0052366691
2.4170525e-07
0.00857248
2.7766598e-07
0.012686269
1.9919578e-07
0.016681439
-7.8663744e-12
0.019208473
-1.9921417e-07
0.019208473
-2.7769431e-07
0.016681439
-2.4174797e-07
0.012686269
-1.6463329e-07
0.00857248
-9.6140834e-08
0.0052366691
-5.0246263e-08
0.0029397882
-2.3827498e-08
0.0015358606
-1.0132136e-08
0.00075126375
-3.683976e-09
0.00034260308
-1.004142e-09
0.00014222372
-1.1472067e-10
4.9726347e-05
1.0125842e-05
1.926841e-10
1.0125652e-05
1.1148759e-09
4.9725427e-05
3.704571e-09
0.00014222113
9.7944363e-09
0.00034259699
2.2681754e-08
0.00075125087
4.758905e-08
0.0015358357
9.0941078e-08
0.0029397449
1.5571346e-07
0.0052366043
2.2871562e-07
0.008572407
2.6286616e-07
0.012686235
1.8871955e-07
0.016681513
-4.1599784e-12
0.019208662
-1.8873514e-07
0.019208662
-2.6290225e-07
0.016681513
-2.2877458e-07
0.012686235
-1.5577334e-07
0.008572407
-9.0951808e-08
0.0052366043
-4.7492685e-08
0.0029397449
-2.2458022e-08
0.0015358357
-9.4790969e-09
0.00075125087
-3.3850369e-09
0.000342597
-8.7957427e-10
0.00014222113
-7.4191628e-11
4.9725429e-05
1.0125653e-05
1.8295505e-10
1.0125472e-05
1.059432e-09
4.9724554e-05
3.5203767e-09
0.00014221867
9.3036759e-09
0.00034259121
2.153218e-08
0.00075123864
4.515157e-08
0.001535812
8.6259767e-08
0.0029397038
1.4771373e-07
0.0052365429
2.1706498e-07
0.0085723376
2.4972228e-07
0.012686202
1.7950288e-07
0.016681584
-2.6688887e-13
0.019208841
-1.795151e-07
0.019208841
-2.4976519e-07
0.016681584
-2.1713855e-07
0.012686202
-1.4778599e-07
0.0085723376
-8.6266013e-08
0.0052365429
-4.502108e-08
0.0029397037
-2.124383e-08
0.001535812
-8.9060391e-09
0.00075123864
-3.1228291e-09
0.00034259121
-7.6917162e-10
0.00014221867
-3.7555194e-11
4.9724556e-05
1.0125473e-05
1.7142845e-10
1.0125303e-05
9.9357646e-10
4.9723735e-05
3.3054595e-09
0.00014221636
8.7521851e-09
0.00034258576
2.0303026e-08
0.00075122709
4.2669562e-08
0.0015357897
8.1646918e-08
0.0029396648
1.3993147e-07
0.0052364846
2.0573086e-07
0.0085722718
2.3677859e-07
0.012686171
1.7032983e-07
0.01668165
3.6474653e-12
0.019209012
-1.7033826e-07
0.019209012
-2.3682744e-07
0.01668165
-2.0581675e-07
0.012686171
-1.4001237e-07
0.0085722718
-8.164568e-08
0.0052364846
-4.2506256e-08
0.0029396648
-1.9958037e-08
0.0015357897
-8.2862685e-09
0.00075122709
-2.8458021e-09
0.00034258577
-6.6074027e-10
0.00014221637
-5.5343357e-12
4.9723737e-05
1.0125304e-05
1.6615578e-10
1.0125139e-05
9.6461963e-10
4.9722938e-05
3.2046144e-09
0.00014221412