/*--------------------------------*- C++ -*----------------------------------*\
| =========                 |                                                 |
| \\      /  F ield         | OpenFOAM: The Open Source CFD Toolbox           |
|  \\    /   O peration     | Version:  2406                                  |
|   \\  /    A nd           | Website:  www.openfoam.com                      |
|    \\/     M anipulation  |                                                 |
\*---------------------------------------------------------------------------*/
FoamFile
{
    version     2.0;
    format      ascii;
    arch        "LSB;label=32;scalar=64";
    class       volVectorField;
    location    "13";
    object      U;
}
// * * * * * * * * * * * * * * * * * * * * * * * * * * * * * * * * * * * * * //

dimensions      [0 1 -1 0 0 0 0];

internalField   nonuniform List<vector> 
1176
(
(0.019493789 7.0786065e-07 0)
(0.066677318 8.1696384e-06 0)
(0.13357994 3.9503086e-05 0)
(0.22724701 0.00010873554 0)
(0.35591522 0.00021175979 0)
(0.52772024 0.00030396205 0)
(0.74780387 0.00031817914 0)
(1.0136216 0.00024904482 0)
(1.3093323 0.00016666908 0)
(1.6017081 0.00011264609 0)
(1.8421723 7.0213511e-05 0)
(1.9793239 2.3940445e-05 0)
(1.9793239 -2.3940412e-05 0)
(1.8421723 -7.0212345e-05 0)
(1.6017081 -0.0001126423 0)
(1.3093323 -0.0001666606 0)
(1.0136215 -0.00024902905 0)
(0.74780384 -0.0003181526 0)
(0.5277202 -0.00030392107 0)
(0.35591519 -0.00021170604 0)
(0.22724697 -0.00010868044 0)
(0.13357992 -3.9459126e-05 0)
(0.066677303 -8.1456442e-06 0)
(0.019493784 -7.0281176e-07 0)
(0.020187017 -3.7419196e-06 0)
(0.068813533 -2.4638651e-05 0)
(0.13732107 -9.654861e-05 0)
(0.23247391 -0.00024839477 0)
(0.36204617 -0.00047268817 0)
(0.53373557 -0.00067421249 0)
(0.75267407 -0.00069487044 0)
(1.0170176 -0.00049687496 0)
(1.3116385 -0.00023346047 0)
(1.6034438 -4.9825565e-05 0)
(1.8436588 1.9763714e-05 0)
(1.9807026 1.3426748e-05 0)
(1.9807026 -1.3428886e-05 0)
(1.8436588 -1.9766284e-05 0)
(1.6034438 4.9822173e-05 0)
(1.3116385 0.0002334559 0)
(1.0170176 0.00049686834 0)
(0.75267408 0.00069485969 0)
(0.53373557 0.00067419532 0)
(0.36204616 0.00047266549 0)
(0.23247389 0.00024837249 0)
(0.13732106 9.6532131e-05 0)
(0.068813523 2.4630301e-05 0)
(0.020187013 3.7403641e-06 0)
(0.020018442 2.0918382e-06 0)
(0.068327406 1.2720777e-05 0)
(0.13655405 4.6877245e-05 0)
(0.23159545 0.00011389732 0)
(0.36138709 0.00019769249 0)
(0.53366969 0.00023903201 0)
(0.75344344 0.00020559756 0)
(1.0184881 0.00011360994 0)
(1.3134639 7.4312118e-05 0)
(1.6053464 7.9531376e-05 0)
(1.8455118 7.0515182e-05 0)
(1.9825245 2.782452e-05 0)
(1.9825245 -2.7826504e-05 0)
(1.8455118 -7.0517388e-05 0)
(1.6053464 -7.953366e-05 0)
(1.3134639 -7.4314063e-05 0)
(1.0184881 -0.00011361134 0)
(0.75344344 -0.00020559836 0)
(0.5336697 -0.00023903223 0)
(0.3613871 -0.0001976925 0)
(0.23159546 -0.00011389814 0)
(0.13655406 -4.6878743e-05 0)
(0.068327413 -1.2721952e-05 0)
(0.020018445 -2.0921747e-06 0)
(0.019966548 7.0076602e-07 0)
(0.068159233 4.6870514e-06 0)
(0.13624021 1.9355432e-05 0)
(0.2311194 5.6456114e-05 0)
(0.36078093 0.00013444549 0)
(0.53306294 0.00025829275 0)
(0.75295637 0.00035344662 0)
(1.0181104 0.00036911907 0)
(1.313184 0.0003075875 0)
(1.6051633 0.00022777085 0)
(1.8453995 0.00014555809 0)
(1.9824491 4.9996306e-05 0)
(1.9824491 -4.9997546e-05 0)
(1.8453995 -0.00014555899 0)
(1.6051633 -0.00022777116 0)
(1.313184 -0.00030758695 0)
(1.0181104 -0.00036911841 0)
(0.75295637 -0.00035344583 0)
(0.53306293 -0.0002582909 0)
(0.36078093 -0.00013444278 0)
(0.2311194 -5.6453005e-05 0)
(0.13624021 -1.9352831e-05 0)
(0.068159232 -4.6856152e-06 0)
(0.019966547 -7.0046569e-07 0)
(0.019942204 2.9077358e-07 0)
(0.068078705 1.9872248e-06 0)
(0.13608629 8.236148e-06 0)
(0.230877 2.3699344e-05 0)
(0.36044745 5.68816e-05 0)
(0.53266449 0.00012306871 0)
(0.75256878 0.00022681777 0)
(1.017808 0.0003227214 0)
(1.3129044 0.00034572332 0)
(1.604912 0.00030729829 0)
(1.8452029 0.00021095169 0)
(1.9822898 7.4613306e-05 0)
(1.9822898 -7.4615445e-05 0)
(1.8452029 -0.00021095371 0)
(1.604912 -0.00030730008 0)
(1.3129044 -0.00034572517 0)
(1.017808 -0.00032272316 0)
(0.75256878 -0.00022681916 0)
(0.53266449 -0.00012307018 0)
(0.36044745 -5.6883266e-05 0)
(0.230877 -2.3700954e-05 0)
(0.13608628 -8.2373797e-06 0)
(0.068078704 -1.9878946e-06 0)
(0.019942204 -2.9090826e-07 0)
(0.019933132 1.7182119e-07 0)
(0.068047757 1.1941041e-06 0)
(0.13602489 5.0652461e-06 0)
(0.23077536 1.4968912e-05 0)
(0.36029899 3.6219576e-05 0)
(0.53247921 7.6944202e-05 0)
(0.75239428 0.00014713748 0)
(1.0177222 0.00023748964 0)
(1.3129292 0.00028525492 0)
(1.6049746 0.00027441361 0)
(1.8452865 0.00019644492 0)
(1.9823834 7.1175803e-05 0)
(1.9823834 -7.1177978e-05 0)
(1.8452865 -0.00019644686 0)
(1.6049746 -0.000274415 0)
(1.3129292 -0.00028525585 0)
(1.0177222 -0.00023749042 0)
(0.75239428 -0.00014713816 0)
(0.53247921 -7.6945108e-05 0)
(0.36029899 -3.6220844e-05 0)
(0.23077536 -1.4970368e-05 0)
(0.13602489 -5.0665334e-06 0)
(0.068047758 -1.1948884e-06 0)
(0.019933132 -1.7199699e-07 0)
(0.019923401 1.5588058e-07 0)
(0.068015509 1.0700979e-06 0)
(0.13596286 4.4935024e-06 0)
(0.23067607 1.319551e-05 0)
(0.36015774 3.1857174e-05 0)
(0.53230179 6.6958257e-05 0)
(0.7522143 0.0001241188 0)
(1.0176105 0.00019917018 0)
(1.3129358 0.0002549077 0)
(1.6050904 0.0002459508 0)
(1.8454579 0.00018127789 0)
(1.9825798 6.6547455e-05 0)
(1.9825798 -6.6549484e-05 0)
(1.8454579 -0.00018127955 0)
(1.6050904 -0.00024595175 0)
(1.3129358 -0.00025490813 0)
(1.0176105 -0.00019917047 0)
(0.7522143 -0.0001241193 0)
(0.53230179 -6.6959321e-05 0)
(0.36015774 -3.1858835e-05 0)
(0.23067607 -1.3197428e-05 0)
(0.13596286 -4.4951704e-06 0)
(0.068015509 -1.0711087e-06 0)
(0.019923401 -1.5610434e-07 0)
(0.019915698 1.2759043e-07 0)
(0.067989795 8.7803563e-07 0)
(0.13591294 3.6960358e-06 0)
(0.23059503 1.0901656e-05 0)
(0.36003988 2.6613425e-05 0)
(0.53214754 5.7237225e-05 0)
(0.75204134 0.00010911058 0)
(1.0174723 0.00017936623 0)
(1.3128926 0.00023802437 0)
(1.6051414 0.00023746687 0)
(1.8455877 0.00017750585 0)
(1.9827514 6.5538386e-05 0)
(1.9827514 -6.5540408e-05 0)
(1.8455877 -0.00017750743 0)
(1.6051414 -0.00023746777 0)
(1.3128926 -0.00023802476 0)
(1.0174723 -0.00017936651 0)
(0.75204134 -0.0001091113 0)
(0.53214754 -5.7238889e-05 0)
(0.36003988 -2.6616026e-05 0)
(0.23059503 -1.0904605e-05 0)
(0.13591294 -3.6985515e-06 0)
(0.067989795 -8.7953708e-07 0)
(0.019915698 -1.2791977e-07 0)
(0.019909218 1.0466179e-07 0)
(0.067968144 7.2315285e-07 0)
(0.13587084 3.0521376e-06 0)
(0.23052655 9.0118896e-06 0)
(0.35993985 2.1999983e-05 0)
(0.53201543 4.7473616e-05 0)
(0.75188903 9.2014312e-05 0)
(1.0173342 0.00015618208 0)
(1.3128278 0.00021699664 0)
(1.6051595 0.00022709575 0)
(1.8456699 0.00017232549 0)
(1.982868 6.4146703e-05 0)
(1.982868 -6.4148715e-05 0)
(1.8456699 -0.00017232699 0)
(1.6051595 -0.00022709656 0)
(1.3128278 -0.00021699696 0)
(1.0173342 -0.00015618231 0)
(0.75188903 -9.2015216e-05 0)
(0.53201543 -4.7475849e-05 0)
(0.35993985 -2.2003475e-05 0)
(0.23052655 -9.0158286e-06 0)
(0.13587084 -3.0554853e-06 0)
(0.067968143 -7.2514723e-07 0)
(0.019909218 -1.0509913e-07 0)
(0.019903972 8.6129517e-08 0)
(0.067950555 5.9697517e-07 0)
(0.13583649 2.5274078e-06 0)
(0.23047031 7.4916768e-06 0)
(0.35985693 1.8376428e-05 0)
(0.53190437 3.9835935e-05 0)
(0.75175838 7.7712542e-05 0)
(1.0172122 0.00013432477 0)
(1.3127614 0.00019323386 0)
(1.6051772 0.00021058316 0)
(1.8457533 0.00016272902 0)
(1.9829863 6.1083274e-05 0)
(1.9829863 -6.1085289e-05 0)
(1.8457533 -0.00016273048 0)
(1.6051772 -0.0002105839 0)
(1.3127614 -0.00019323403 0)
(1.0172122 -0.0001343249 0)
(0.75175838 -7.7713661e-05 0)
(0.53190437 -3.9838834e-05 0)
(0.35985693 -1.8380974e-05 0)
(0.23047031 -7.4967966e-06 0)
(0.13583649 -2.5317514e-06 0)
(0.067950555 -5.995602e-07 0)
(0.019903972 -8.6695964e-08 0)
(0.019899544 7.3358331e-08 0)
(0.067935691 5.089697e-07 0)
(0.13580742 2.1569121e-06 0)
(0.2304226 6.4028267e-06 0)
(0.35978627 1.5747739e-05 0)
(0.53180891 3.4278124e-05 0)
(0.75164411 6.7205097e-05 0)
(1.0171021 0.00011723053 0)
(1.3126976 0.00017262505 0)
(1.6051929 0.00019308898 0)
(1.8458371 0.0001521981 0)
(1.9831061 5.754386e-05 0)
(1.9831061 -5.7545833e-05 0)
(1.8458371 -0.00015219948 0)
(1.6051929 -0.00019308955 0)
(1.3126976 -0.00017262496 0)
(1.0171021 -0.00011723053 0)
(0.75164411 -6.7206466e-05 0)
(0.53180891 -3.4281824e-05 0)
(0.35978627 -1.5753574e-05 0)
(0.23042259 -6.4094039e-06 0)
(0.13580742 -2.162491e-06 0)
(0.06793569 -5.1228901e-07 0)
(0.019899544 -7.4085474e-08 0)
(0.019895722 6.3728058e-08 0)
(0.067922853 4.4252617e-07 0)
(0.13578229 1.8767589e-06 0)
(0.23038126 5.5765931e-06 0)
(0.35972485 1.3738846e-05 0)
(0.53172537 2.9998345e-05 0)
(0.75154266 5.9112127e-05 0)
(1.0170011 0.0001038889 0)
(1.3126345 0.00015540339 0)
(1.6052015 0.00017849534 0)
(1.8459125 0.00014271513 0)
(1.9832185 5.4329756e-05 0)
(1.9832185 -5.4331611e-05 0)
(1.8459125 -0.00014271634 0)
(1.6052015 -0.00017849565 0)
(1.3126345 -0.00015540294 0)
(1.0170011 -0.00010388872 0)
(0.75154266 -5.9113774e-05 0)
(0.53172537 -3.0003002e-05 0)
(0.35972484 -1.3746235e-05 0)
(0.23038126 -5.5849307e-06 0)
(0.13578229 -1.8838293e-06 0)
(0.067922852 -4.4673232e-07 0)
(0.019895722 -6.464933e-08 0)
(0.019892371 5.6091013e-08 0)
(0.067911589 3.8978327e-07 0)
(0.13576021 1.6541481e-06 0)
(0.23034491 4.9188381e-06 0)
(0.3596707 1.2132192e-05 0)
(0.53165138 2.654281e-05 0)
(0.75145192 5.24994e-05 0)
(1.0169086 9.2876499e-05 0)
(1.3125728 0.00014061561 0)
(1.605205 0.00016529642 0)
(1.8459798 0.00013398902 0)
(1.9833221 5.1386694e-05 0)
(1.9833221 -5.1388366e-05 0)
(1.8459798 -0.00013398996 0)
(1.605205 -0.00016529632 0)
(1.3125728 -0.00014061469 0)
(1.0169086 -9.2876067e-05 0)
(0.75145192 -5.2501362e-05 0)
(0.53165138 -2.6548607e-05 0)
(0.3596707 -1.214144e-05 0)
(0.23034491 -4.9292723e-06 0)
(0.13576021 -1.6629881e-06 0)
(0.067911588 -3.9503918e-07 0)
(0.019892371 -5.7241794e-08 0)
(0.019889404 4.9850389e-08 0)
(0.067901609 3.4662542e-07 0)
(0.13574064 1.4717932e-06 0)
(0.23031265 4.3794735e-06 0)
(0.35962254 1.0812509e-05 0)
(0.53158533 2.3691811e-05 0)
(0.75137031 4.6984817e-05 0)
(1.016824 8.3547199e-05 0)
(1.3125139 0.00012773832 0)
(1.6052051 0.0001529339 0)
(1.8460415 0.00012582025 0)
(1.9834196 4.8615855e-05 0)
(1.9834196 -4.8617299e-05 0)
(1.8460415 -0.00012582086 0)
(1.6052051 -0.00015293325 0)
(1.3125139 -0.00012773683 0)
(1.016824 -8.3546451e-05 0)
(0.75137031 -4.698714e-05 0)
(0.53158533 -2.3698945e-05 0)
(0.35962254 -1.0823927e-05 0)
(0.23031265 -4.3923448e-06 0)
(0.13574064 -1.4826815e-06 0)
(0.067901609 -3.5309357e-07 0)
(0.019889404 -5.1265893e-08 0)
(0.019886752 4.4700862e-08 0)
(0.067892688 3.1095472e-07 0)
(0.13572314 1.3208534e-06 0)
(0.23028376 3.9323009e-06 0)
(0.35957936 9.7160976e-06 0)
(0.53152594 2.1316028e-05 0)
(0.7512965 4.2360997e-05 0)
(1.0167466 7.5620892e-05 0)
(1.3124581 0.00011654334 0)
(1.6052027 0.00014169933 0)
(1.8460982 0.00011827102 0)
(1.9835117 4.6031034e-05 0)
(1.9835117 -4.6032217e-05 0)
(1.8460982 -0.00011827122 0)
(1.6052027 -0.00014169807 0)
(1.3124581 -0.00011654118 0)
(1.0167466 -7.5619775e-05 0)
(0.7512965 -4.2363738e-05 0)
(0.53152594 -2.1324694e-05 0)
(0.35957936 -9.7299879e-06 0)
(0.23028376 -3.9479341e-06 0)
(0.13572314 -1.3340549e-06 0)
(0.067892687 -3.1878908e-07 0)
(0.019886752 -4.6414437e-08 0)
(0.019884363 4.0388942e-08 0)
(0.067884646 2.8105321e-07 0)
(0.13570735 1.1941976e-06 0)
(0.2302577 3.5565921e-06 0)
(0.35954036 8.7931294e-06 0)
(0.53147217 1.9310499e-05 0)
(0.75122936 3.8440958e-05 0)
(1.0166753 6.8840042e-05 0)
(1.3124053 0.00010678467 0)
(1.6051983 0.00013155305 0)
(1.8461504 0.00011132814 0)
(1.9835985 4.3630723e-05 0)
(1.9835985 -4.3631634e-05 0)
(1.8461504 -0.00011132789 0)
(1.6051983 -0.00013155108 0)
(1.3124053 -0.00010678176 0)
(1.0166753 -6.8838516e-05 0)
(0.75122936 -3.8444176e-05 0)
(0.53147217 -1.9320885e-05 0)
(0.35954036 -8.8097739e-06 0)
(0.2302577 -3.5752887e-06 0)
(0.13570735 -1.2099572e-06 0)
(0.067884645 -2.9039591e-07 0)
(0.019884363 -4.2431348e-08 0)
(0.019882196 3.671459e-08 0)
(0.067877351 2.5555581e-07 0)
(0.13569303 1.0861276e-06 0)
(0.23023404 3.2357469e-06 0)
(0.35950491 8.0038364e-06 0)
(0.53142322 1.7591425e-05 0)
(0.75116799 3.5068066e-05 0)
(1.0166096 6.2965321e-05 0)
(1.3123554 9.8204467e-05 0)
(1.6051923 0.00012233454 0)
(1.8461983 0.00010491338 0)
(1.9836803 4.1390127e-05 0)
(1.9836803 -4.1390771e-05 0)
(1.8461983 -0.00010491266 0)
(1.6051923 -0.00012233184 0)
(1.3123554 -9.8200742e-05 0)
(1.0166096 -6.2963367e-05 0)
(0.75116799 -3.5071826e-05 0)
(0.53142322 -1.7603703e-05 0)
(0.35950491 -8.0234904e-06 0)
(0.23023404 -3.2577775e-06 0)
(0.13569303 -1.1046639e-06 0)
(0.06787735 -2.6653329e-07 0)
(0.019882196 -3.911315e-08 0)
(0.01988022 3.3542919e-08 0)
(0.067870698 2.3353318e-07 0)
(0.13567996 9.9273244e-07 0)
(0.23021244 2.9582872e-06 0)
(0.35947253 7.3205708e-06 0)
(0.53137843 1.6100657e-05 0)
(0.75111166 3.2133878e-05 0)
(1.0165488 5.7824626e-05 0)
(1.3123083 9.0603821e-05 0)
(1.6051852 0.00011395444 0)
(1.8462424 9.8956267e-05 0)
(1.9837576 3.9288693e-05 0)
(1.9837576 -3.9289092e-05 0)
(1.8462424 -9.8955084e-05 0)
(1.6051852 -0.00011395098 0)
(1.3123083 -9.0599245e-05 0)
(1.0165488 -5.7822235e-05 0)
(0.75111166 -3.2138242e-05 0)
(0.53137844 -1.611498e-05 0)
(0.35947253 -7.3434536e-06 0)
(0.23021244 -2.9838807e-06 0)
(0.13567996 -1.0142286e-06 0)
(0.067870696 -2.4625069e-07 0)
(0.01988022 -3.6320318e-08 0)
(0.01987841 3.0780063e-08 0)
(0.067864602 2.1433724e-07 0)
(0.13566799 9.1127737e-07 0)
(0.23019264 2.7161473e-06 0)
(0.35944283 6.723735e-06 0)
(0.5313373 1.4796566e-05 0)
(0.75105979 2.9560591e-05 0)
(1.0164925 5.3293814e-05 0)
(1.3122638 8.3833e-05 0)
(1.6051773 0.00010632514 0)
(1.8462831 9.3403582e-05 0)
(1.9838307 3.7312212e-05 0)
(1.9838307 -3.7312398e-05 0)
(1.8462831 -9.3401953e-05 0)
(1.6051773 -0.00010632089 0)
(1.3122638 -8.3827556e-05 0)
(1.0164925 -5.329099e-05 0)
(0.75105979 -2.9565617e-05 0)
(0.5313373 -1.481306e-05 0)
(0.35944283 -6.75002e-06 0)
(0.23019264 -2.7454794e-06 0)
(0.13566799 -9.3587078e-07 0)
(0.067864601 -2.2887262e-07 0)
(0.01987841 -3.395297e-08 0)
(0.019876746 2.8352378e-08 0)
(0.067858995 1.9746061e-07 0)
(0.13565697 8.3962485e-07 0)
(0.23017442 2.5030287e-06 0)
(0.35941548 6.1980079e-06 0)
(0.53129938 1.36464e-05 0)
(0.75101185 2.7286258e-05 0)
(1.0164402 4.9273049e-05 0)
(1.3122219 7.7769193e-05 0)
(1.6051688 9.9357282e-05 0)
(1.8463207 8.8213925e-05 0)
(1.9838998 3.5449298e-05 0)
(1.9838998 -3.5449331e-05 0)
(1.8463207 -8.821188e-05 0)
(1.6051688 -9.935227e-05 0)
(1.3122219 -7.7762893e-05 0)
(1.0164402 -4.9269814e-05 0)
(0.75101186 -2.7291998e-05 0)
(0.53129938 -1.3665156e-05 0)
(0.35941548 -6.227809e-06 0)
(0.23017442 -2.5362063e-06 0)
(0.13565697 -8.6739394e-07 0)
(0.067858993 -2.1385656e-07 0)
(0.019876745 -3.1929754e-08 0)
(0.019875209 2.6201894e-08 0)
(0.06785382 1.8250338e-07 0)
(0.1356468 7.7608881e-07 0)
(0.23015759 2.3139602e-06 0)
(0.35939021 5.73129e-06 0)
(0.53126431 1.2624227e-05 0)
(0.75096744 2.5261347e-05 0)
(1.0163914 4.5680916e-05 0)
(1.3121824 7.2309606e-05 0)
(1.6051599 9.2974582e-05 0)
(1.8463555 8.3350692e-05 0)
(1.9839652 3.3689294e-05 0)
(1.9839652 -3.368925e-05 0)
(1.8463555 -8.3348275e-05 0)
(1.6051599 -9.2968844e-05 0)
(1.3121824 -7.2302477e-05 0)
(1.0163914 -4.5677299e-05 0)
(0.75096744 -2.5267841e-05 0)
(0.53126432 -1.2645291e-05 0)
(0.35939021 -5.7646456e-06 0)
(0.23015759 -2.351005e-06 0)
(0.1356468 -8.0703988e-07 0)
(0.067853818 -2.0075969e-07 0)
(0.019875208 -3.0183313e-08 0)
(0.019873787 2.4283411e-08 0)
(0.06784903 1.6915322e-07 0)
(0.13563738 7.1935056e-07 0)
(0.23014201 2.1450468e-06 0)
(0.3593668 5.3140779e-06 0)
(0.5312318 1.1709623e-05 0)
(0.75092618 2.3446634e-05 0)
(1.016346 4.2451962e-05 0)
(1.3121452 6.7369207e-05 0)
(1.6051509 8.7108769e-05 0)
(1.8463879 7.8785536e-05 0)
(1.9840271 3.2023618e-05 0)
(1.9840271 -3.202358e-05 0)
(1.8463878 -7.8782808e-05 0)
(1.6051509 -8.7102358e-05 0)
(1.3121452 -6.7361296e-05 0)
(1.016346 -4.2448001e-05 0)
(0.75092619 -2.3453901e-05 0)
(0.5312318 -1.1732982e-05 0)
(0.3593668 -5.3509363e-06 0)
(0.23014201 -2.1858795e-06 0)
(0.13563738 -7.5340523e-07 0)
(0.067849027 -1.8921958e-07 0)
(0.019873786 -2.8657494e-08 0)
(0.019872468 2.2561319e-08 0)
(0.067844583 1.571638e-07 0)
(0.13562864 6.6836946e-07 0)
(0.23012754 1.9932108e-06 0)
(0.35934506 4.9388487e-06 0)
(0.53120158 1.0886379e-05 0)
(0.75088778 2.1810895e-05 0)
(1.0163035 3.9533668e-05 0)
(1.31211 6.2878128e-05 0)
(1.6051418 8.1703335e-05 0)
(1.8464179 7.4492225e-05 0)
(1.9840857 3.0444132e-05 0)
(1.9840857 -3.0444177e-05 0)
(1.8464179 -7.4489264e-05 0)
(1.6051418 -8.1696325e-05 0)
(1.31211 -6.2869503e-05 0)
(1.0163035 -3.952941e-05 0)
(0.75088779 -2.1818935e-05 0)
(0.53120158 -1.0911956e-05 0)
(0.35934506 -4.9790553e-06 0)
(0.23012754 -2.0376387e-06 0)
(0.13562864 -7.0535472e-07 0)
(0.067844581 -1.7893412e-07 0)
(0.019872467 -2.7304509e-08 0)
(0.01987124 2.1007103e-08 0)
(0.067840448 1.4633784e-07 0)
(0.13562051 6.2231154e-07 0)
(0.23011408 1.8559838e-06 0)
(0.35932482 4.5995577e-06 0)
(0.53117343 1.0141434e-05 0)
(0.75085197 2.0328876e-05 0)
(1.0162638 3.6883341e-05 0)
(1.3120769 5.8778658e-05 0)
(1.6051327 7.6708011e-05 0)
(1.8464458 7.045164e-05 0)
(1.9841412 2.8944797e-05 0)
(1.9841412 -2.8944994e-05 0)
(1.8464458 -7.0448532e-05 0)
(1.6051327 -7.6700491e-05 0)
(1.3120769 -5.8769406e-05 0)
(1.0162638 -3.687884e-05 0)
(0.75085197 -2.0337662e-05 0)
(0.53117344 -1.0169079e-05 0)
(0.35932482 -4.6428461e-06 0)
(0.23011408 -1.9036914e-06 0)
(0.13562051 -6.6195285e-07 0)
(0.067840446 -1.696464e-07 0)
(0.01987124 -2.6082854e-08 0)
(0.019870097 1.9597706e-08 0)
(0.067836594 1.3651568e-07 0)
(0.13561294 5.8050164e-07 0)
(0.23010154 1.7313664e-06 0)
(0.35930595 4.2913061e-06 0)
(0.53114717 9.4641879e-06 0)
(0.75081851 1.8980017e-05 0)
(1.0162266 3.4465988e-05 0)
(1.3120455 5.5022667e-05 0)
(1.6051238 7.2082009e-05 0)
(1.8464718 6.6643015e-05 0)
(1.9841938 2.7519186e-05 0)
(1.9841938 -2.7519596e-05 0)
(1.8464718 -6.6639847e-05 0)
(1.6051237 -7.2074081e-05 0)
(1.3120455 -5.5012893e-05 0)
(1.0162266 -3.4461305e-05 0)
(0.75081852 -1.8989496e-05 0)
(0.53114718 -9.493673e-06 0)
(0.35930595 -4.3372925e-06 0)
(0.23010153 -1.7819114e-06 0)
(0.13561293 -6.2242015e-07 0)
(0.067836592 -1.6113573e-07 0)
(0.019870096 -2.4956204e-08 0)
(0.019869029 1.8314254e-08 0)
(0.067832996 1.275666e-07 0)
(0.13560586 5.423868e-07 0)
(0.23008982 1.6177199e-06 0)
(0.35928832 4.010073e-06 0)
(0.53112263 8.8459238e-06 0)
(0.75078721 1.774737e-05 0)
(1.0161917 3.2252668e-05 0)
(1.312016 5.1569957e-05 0)
(1.6051149 6.7787496e-05 0)
(1.846496 6.3053134e-05 0)
(1.9842437 2.6163272e-05 0)
(1.9842437 -2.6163946e-05 0)
(1.846496 -6.3049989e-05 0)
(1.6051149 -6.7779274e-05 0)
(1.312016 -5.1559785e-05 0)
(1.0161917 -3.2247872e-05 0)
(0.75078722 -1.7757457e-05 0)
(0.53112264 -8.8769443e-06 0)
(0.35928833 -4.0582572e-06 0)
(0.23008982 -1.6705343e-06 0)
(0.13560586 -5.8610098e-07 0)
(0.067832994 -1.5321159e-07 0)
(0.019869028 -2.3892702e-08 0)
(0.019868031 1.7141173e-08 0)
(0.067829633 1.1938271e-07 0)
(0.13559925 5.0751066e-07 0)
(0.23007886 1.5136919e-06 0)
(0.35927184 3.7525408e-06 0)
(0.53109967 8.2794478e-06 0)
(0.75075789 1.6616921e-05 0)
(1.0161589 3.0219293e-05 0)
(1.3119881 4.8386499e-05 0)
(1.6051063 6.3794864e-05 0)
(1.8465187 5.9663815e-05 0)
(1.9842909 2.4871703e-05 0)
(1.9842909 -2.4872684e-05 0)
(1.8465187 -5.9660766e-05 0)
(1.6051063 -6.3786469e-05 0)
(1.3119881 -4.8376068e-05 0)
(1.016159 -3.0214456e-05 0)
(0.7507579 -1.6627507e-05 0)
(0.53109968 -8.311624e-06 0)
(0.35927184 -3.8023111e-06 0)
(0.23007886 -1.5680894e-06 0)
(0.13559924 -5.5244293e-07 0)
(0.06782963 -1.4571037e-07 0)
(0.01986803 -2.286471e-08 0)
(0.019867097 1.6065415e-08 0)
(0.067826484 1.1187372e-07 0)
(0.13559305 4.7549164e-07 0)
(0.2300686 1.4181513e-06 0)
(0.3592564 3.5159301e-06 0)
(0.53107815 7.7587185e-06 0)
(0.7507304 1.5576879e-05 0)
(1.0161282 2.8345607e-05 0)
(1.3119617 4.5443642e-05 0)
(1.6050979 6.0074603e-05 0)
(1.8465398 5.6466622e-05 0)
(1.9843356 2.3642172e-05 0)
(1.9843356 -2.3643487e-05 0)
(1.8465398 -5.6463735e-05 0)
(1.6050979 -6.0066166e-05 0)
(1.3119617 -4.5433108e-05 0)
(1.0161282 -2.8340808e-05 0)
(0.75073041 -1.5587827e-05 0)
(0.53107816 -7.7916025e-06 0)
(0.3592564 -3.566575e-06 0)
(0.2300686 -1.4733399e-06 0)
(0.13559305 -5.2097948e-07 0)
(0.067826481 -1.3849276e-07 0)
(0.019867096 -2.1848596e-08 0)
(0.019866222 1.5075954e-08 0)
(0.067823532 1.0496336e-07 0)
(0.13558725 4.4600798e-07 0)
(0.23005899 1.3301454e-06 0)
(0.35924192 3.2979044e-06 0)
(0.53105797 7.278666e-06 0)
(0.75070459 1.4617337e-05 0)
(1.0160992 2.6614422e-05 0)
(1.3119368 4.2716547e-05 0)
(1.6050898 5.6605047e-05 0)
(1.8465596 5.3443987e-05 0)
(1.9843781 2.2469714e-05 0)
(1.9843781 -2.2471369e-05 0)
(1.8465596 -5.3441324e-05 0)
(1.6050898 -5.6596707e-05 0)
(1.3119368 -4.2706077e-05 0)
(1.0160992 -2.6609743e-05 0)
(0.7507046 -1.4628487e-05 0)
(0.53105798 -7.3117518e-06 0)
(0.35924192 -3.348628e-06 0)
(0.23005898 -1.3852453e-06 0)
(0.13558724 -4.9131885e-07 0)
(0.06782353 -1.3144236e-07 0)
(0.019866221 -2.08247e-08 0)
(0.0198654 1.4163364e-08 0)
(0.067820763 9.8586697e-08 0)
(0.1355818 4.1878642e-07 0)
(0.23004996 1.2488648e-06 0)
(0.35922833 3.0964726e-06 0)
(0.53103902 6.8349514e-06 0)
(0.75068034 1.3729801e-05 0)
(1.016072 2.5011108e-05 0)
(1.3119132 4.0184323e-05 0)
(1.6050819 5.336227e-05 0)
(1.8465782 5.0592103e-05 0)
(1.9844182 2.1353586e-05 0)
(1.9844182 -2.1355567e-05 0)
(1.8465782 -5.0589718e-05 0)
(1.6050819 -5.3354172e-05 0)
(1.3119132 -4.0174095e-05 0)
(1.016072 -2.5006633e-05 0)
(0.75068035 -1.3740976e-05 0)
(0.53103903 -6.8676873e-06 0)
(0.35922833 -3.1464144e-06 0)
(0.23004996 -1.3029302e-06 0)
(0.1355818 -4.6313609e-07 0)
(0.067820761 -1.2446491e-07 0)
(0.019865399 -1.9777328e-08 0)
(0.019864629 1.3319489e-08 0)
(0.067818162 9.2687487e-08 0)
(0.13557668 3.9359098e-07 0)
(0.23004148 1.1736129e-06 0)
(0.35921556 2.9099303e-06 0)
(0.53102121 6.4238803e-06 0)
(0.75065753 1.2907032e-05 0)
(1.0160463 2.352296e-05 0)
(1.311891 3.7828154e-05 0)
(1.6050743 5.0330451e-05 0)
(1.8465956 4.7892237e-05 0)
(1.9844563 2.0288485e-05 0)
(1.9844563 -2.0290763e-05 0)
(1.8465956 -4.7890179e-05 0)
(1.6050743 -5.0322741e-05 0)
(1.311891 -3.7818352e-05 0)
(1.0160463 -2.3518774e-05 0)
(0.75065755 -1.2918039e-05 0)
(0.53102122 -6.4556826e-06 0)
(0.35921556 -2.9581866e-06 0)
(0.23004148 -1.2256555e-06 0)
(0.13557668 -4.3616293e-07 0)
(0.06781816 -1.1748628e-07 0)
(0.019864628 -1.8694547e-08 0)
(0.019863903 1.2537303e-08 0)
(0.067815718 8.7217699e-08 0)
(0.13557187 3.7022111e-07 0)
(0.23003351 1.1037961e-06 0)
(0.35920356 2.7368132e-06 0)
(0.53100446 6.0422486e-06 0)
(0.75063608 1.2142742e-05 0)
(1.0160221 2.2139174e-05 0)
(1.3118699 3.563266e-05 0)
(1.605067 4.7489553e-05 0)
(1.8466118 4.5345912e-05 0)
(1.9844924 1.9275376e-05 0)
(1.9844924 -1.9277907e-05 0)
(1.8466118 -4.534422e-05 0)
(1.605067 -4.7482374e-05 0)
(1.3118699 -3.5623467e-05 0)
(1.0160221 -2.2135361e-05 0)
(0.75063609 -1.2153381e-05 0)
(0.53100447 -6.0725169e-06 0)
(0.35920356 -2.7824606e-06 0)
(0.23003351 -1.1528109e-06 0)
(0.13557187 -4.1018778e-07 0)
(0.067815716 -1.1045297e-07 0)
(0.019863903 -1.7568254e-08 0)
(0.019863221 1.1810517e-08 0)
(0.067813418 8.2134063e-08 0)
(0.13556735 3.4849639e-07 0)
(0.23002601 1.0388848e-06 0)
(0.35919226 2.5758335e-06 0)
(0.53098869 5.6872778e-06 0)
(0.75061587 1.1431473e-05 0)
(1.0159993 2.0850002e-05 0)
(1.31185 3.3582885e-05 0)
(1.6050599 4.4828053e-05 0)
(1.8466272 4.2931224e-05 0)
(1.9845267 1.8307835e-05 0)
(1.9845267 -1.8310565e-05 0)
(1.8466272 -4.292993e-05 0)
(1.6050599 -4.4821546e-05 0)
(1.31185 -3.3574485e-05 0)
(1.0159994 -2.0846644e-05 0)
(0.75061588 -1.1441538e-05 0)
(0.5309887 -5.71541e-06 0)
(0.35919227 -2.6179518e-06 0)
(0.23002601 -1.0838748e-06 0)
(0.13556735 -3.8503947e-07 0)
(0.067813416 -1.0332809e-07 0)
(0.019863221 -1.6393667e-08 0)
(0.019862579 1.1133852e-08 0)
(0.067811253 7.7400988e-08 0)
(0.13556309 3.2826966e-07 0)
(0.23001895 9.7844237e-07 0)
(0.35918163 2.4259038e-06 0)
(0.53097385 5.3565644e-06 0)
(0.75059683 1.0768494e-05 0)
(1.0159779 1.9647432e-05 0)
(1.3118312 3.1667756e-05 0)
(1.6050532 4.2328971e-05 0)
(1.8466415 4.0656599e-05 0)
(1.984559 1.7389047e-05 0)
(1.984559 -1.7391914e-05 0)
(1.8466415 -4.0655725e-05 0)
(1.6050532 -4.2323268e-05 0)
(1.3118312 -3.1660323e-05 0)
(1.0159779 -1.9644604e-05 0)
(0.75059684 -1.0777783e-05 0)
(0.53097386 -5.3819722e-06 0)
(0.35918163 -2.463599e-06 0)
(0.23001895 -1.0184428e-06 0)
(0.13556309 -3.6060004e-07 0)
(0.067811252 -9.6094026e-08 0)
(0.019862579 -1.5169524e-08 0)
(0.019861974 1.050222e-08 0)
(0.067809214 7.2983218e-08 0)
(0.13555908 3.0939437e-07 0)
(0.2300123 9.2204282e-07 0)
(0.35917161 2.2860047e-06 0)
(0.53095986 5.0479392e-06 0)
(0.75057888 1.0149538e-05 0)
(1.0159576 1.8523592e-05 0)
(1.3118134 2.9874461e-05 0)
(1.6050468 3.9983541e-05 0)
(1.8466551 3.8494324e-05 0)
(1.9845898 1.6510455e-05 0)
(1.9845898 -1.6513387e-05 0)
(1.8466551 -3.8493886e-05 0)
(1.6050468 -3.9978767e-05 0)
(1.3118134 -2.9868163e-05 0)
(1.0159576 -1.8521365e-05 0)
(0.75057889 -1.0157854e-05 0)
(0.53095986 -5.0700614e-06 0)
(0.35917161 -2.3184295e-06 0)
(0.2300123 -9.5614395e-07 0)
(0.13555908 -3.3677026e-07 0)
(0.067809213 -8.8744039e-08 0)
(0.019861974 -1.3897043e-08 0)
(0.019861405 9.9118579e-09 0)
(0.067807293 6.8856196e-08 0)
(0.1355553 2.9177041e-07 0)
(0.23000604 8.6938421e-07 0)
(0.35916217 2.1553585e-06 0)
(0.53094667 4.7596287e-06 0)
(0.75056195 9.5710936e-06 0)
(1.0159384 1.7472796e-05 0)
(1.3117966 2.8195952e-05 0)
(1.6050406 3.777808e-05 0)
(1.8466678 3.6462436e-05 0)
(1.9846189 1.5678481e-05 0)
(1.9846189 -1.5681404e-05 0)
(1.8466678 -3.6462441e-05 0)
(1.6050406 -3.7774345e-05 0)
(1.3117966 -2.8190939e-05 0)
(1.0159384 -1.7471232e-05 0)
(0.75056196 -9.5782523e-06 0)
(0.53094668 -4.7779443e-06 0)
(0.35916217 -2.1817315e-06 0)
(0.23000604 -8.9675117e-07 0)
(0.1355553 -3.1351381e-07 0)
(0.067807292 -8.1291629e-08 0)
(0.019861405 -1.258083e-08 0)
(0.019860867 9.3582624e-09 0)
(0.067805481 6.4987815e-08 0)
(0.13555173 2.7526354e-07 0)
(0.23000013 8.2008396e-07 0)
(0.35915326 2.0330835e-06 0)
(0.53093423 4.4898269e-06 0)
(0.75054598 9.029617e-06 0)
(1.0159203 1.6488103e-05 0)
(1.3117806 2.661976e-05 0)
(1.6050347 3.570435e-05 0)
(1.8466798 3.4523673e-05 0)
(1.9846466 1.4880971e-05 0)
(1.9846466 -1.4883807e-05 0)
(1.8466798 -3.452412e-05 0)
(1.6050347 -3.570175e-05 0)
(1.3117806 -2.6616166e-05 0)
(1.0159203 -1.6487255e-05 0)
(0.75054598 -9.0354477e-06 0)
(0.53093423 -4.5038675e-06 0)
(0.35915326 -2.0527098e-06 0)
(0.23000013 -8.3997951e-07 0)
(0.13555173 -2.9077909e-07 0)
(0.06780548 -7.3753732e-08 0)
(0.019860867 -1.1227151e-08 0)
(0.01986036 8.8394938e-09 0)
(0.067803772 6.1367282e-08 0)
(0.13554837 2.5983211e-07 0)
(0.22999455 7.7400079e-07 0)
(0.35914486 1.9187443e-06 0)
(0.53092249 4.2373979e-06 0)
(0.7505309 8.5228029e-06 0)
(1.0159033 1.5566327e-05 0)
(1.3117655 2.5143792e-05 0)
(1.605029 3.3753995e-05 0)
(1.846691 3.2710057e-05 0)
(1.9846726 1.4129335e-05 0)
(1.9846726 -1.4132008e-05 0)
(1.846691 -3.2710936e-05 0)
(1.605029 -3.3752606e-05 0)
(1.3117655 -2.5141726e-05 0)
(1.0159033 -1.5566233e-05 0)
(0.75053091 -8.5271499e-06 0)
(0.53092249 -4.2467534e-06 0)
(0.35914486 -1.9310235e-06 0)
(0.22999455 -7.8579427e-07 0)
(0.13554837 -2.6861419e-07 0)
(0.067803772 -6.6172873e-08 0)
(0.019860361 -9.8457946e-09 0)
(0.019859882 8.3506618e-09 0)
(0.067802157 5.795765e-08 0)
(0.13554519 2.4531908e-07 0)
(0.22998928 7.3070196e-07 0)
(0.35913692 1.8114155e-06 0)
(0.5309114 4.0006019e-06 0)
(0.75051665 8.0472997e-06 0)
(1.0158871 1.4700265e-05 0)
(1.3117512 2.3753308e-05 0)
(1.6050237 3.1915297e-05 0)
(1.8467018 3.0969322e-05 0)
(1.9846976 1.3405616e-05 0)
(1.9846976 -1.3408048e-05 0)
(1.8467018 -3.0970611e-05 0)
(1.6050237 -3.1915171e-05 0)
(1.3117513 -2.3752851e-05 0)
(1.0158871 -1.4700946e-05 0)
(0.75051666 -8.0500262e-06 0)
(0.5309114 -4.0049314e-06 0)
(0.35913692 -1.81586e-06 0)
(0.22998929 -7.3388909e-07 0)
(0.13554519 -2.469684e-07 0)
(0.067802158 -5.8574971e-08 0)
(0.019859882 -8.4456329e-09 0)
(0.01985943 7.8931922e-09 0)
(0.067800636 5.4774201e-08 0)
(0.1355422 2.3179357e-07 0)
(0.22998432 6.90342e-07 0)
(0.35912943 1.7112525e-06 0)
(0.53090094 3.7793093e-06 0)
(0.75050322 7.6026069e-06 0)
(1.0158719 1.3890613e-05 0)
(1.3117378 2.2454367e-05 0)
(1.6050185 3.0190696e-05 0)
(1.8467117 2.9354471e-05 0)
(1.9847209 1.2729136e-05 0)
(1.9847209 -1.2731262e-05 0)
(1.8467117 -2.9356129e-05 0)
(1.6050185 -3.0191855e-05 0)
(1.3117378 -2.2455564e-05 0)
(1.0158719 -1.3892067e-05 0)
(0.75050322 -7.6035973e-06 0)
(0.53090094 -3.7783582e-06 0)
(0.35912943 -1.7075176e-06 0)
(0.22998432 -6.8458072e-07 0)
(0.1355422 -2.2604839e-07 0)
(0.067800637 -5.1056627e-08 0)
(0.019859431 -7.0459887e-09 0)
(0.019859003 7.4591773e-09 0)
(0.067799194 5.1754115e-08 0)
(0.13553936 2.1898558e-07 0)
(0.22997962 6.5220311e-07 0)
(0.35912234 1.6168467e-06 0)
(0.53089103 3.571182e-06 0)
(0.75049048 7.1845009e-06 0)
(1.0158574 1.3127633e-05 0)
(1.3117249 2.1225186e-05 0)
(1.6050136 2.8557462e-05 0)
(1.8467213 2.7790422e-05 0)
(1.9847434 1.207284e-05 0)
(1.9847434 -1.2074581e-05 0)
(1.8467213 -2.7792403e-05 0)
(1.6050136 -2.8559903e-05 0)
(1.3117249 -2.1228048e-05 0)
(1.0158574 -1.3129841e-05 0)
(0.75049048 -7.1836604e-06 0)
(0.53089103 -3.5647759e-06 0)
(0.35912234 -1.6047192e-06 0)
(0.22997962 -6.373002e-07 0)
(0.13553936 -2.0571129e-07 0)
(0.067799195 -4.3631452e-08 0)
(0.019859004 -5.6560614e-09 0)
(0.0198586 7.0589271e-09 0)
(0.067797837 4.8981054e-08 0)
(0.13553669 2.0725356e-07 0)
(0.22997519 6.1720436e-07 0)
(0.35911567 1.5298481e-06 0)
(0.53088171 3.3785293e-06 0)
(0.7504785 6.7965763e-06 0)
(1.0158438 1.2420268e-05 0)
(1.3117129 2.0088141e-05 0)
(1.605009 2.7041076e-05 0)
(1.8467301 2.6362578e-05 0)
(1.9847642 1.1468942e-05 0)
(1.9847642 -1.1470221e-05 0)
(1.8467301 -2.6364824e-05 0)
(1.605009 -2.7044761e-05 0)
(1.3117129 -2.0092632e-05 0)
(1.0158438 -1.2423181e-05 0)
(0.7504785 -6.7938402e-06 0)