/*--------------------------------*- C++ -*----------------------------------*\
  =========                 |
  \\      /  F ield         | OpenFOAM: The Open Source CFD Toolbox
   \\    /   O peration     | Website:  https://openfoam.org
    \\  /    A nd           | Version:  10
     \\/     M anipulation  |
\*---------------------------------------------------------------------------*/
FoamFile
{
    format      ascii;
    class       volScalarField;
    location    "9.2";
    object      T_0;
}
// * * * * * * * * * * * * * * * * * * * * * * * * * * * * * * * * * * * * * //

dimensions      [0 0 -1 0 0 0 0];

internalField   nonuniform List<scalar> 
100
(
-0.0190065
-0.0563459
-0.0916892
-0.123784
-0.151494
-0.173838
-0.190023
-0.199476
-0.201863
-0.197099
-0.185352
-0.167039
-0.142809
-0.11352
-0.0802088
-0.0440565
-0.00634354
0.0315942
0.0684126
0.102808
0.13356
0.159582
0.17995
0.193944
0.201066
0.201066
0.193944
0.17995
0.159582
0.13356
0.102807
0.0684123
0.0315938
-0.00634393
-0.0440569
-0.0802092
-0.11352
-0.142809
-0.16704
-0.185352
-0.197099
-0.201863
-0.199476
-0.190023
-0.173838
-0.151494
-0.123784
-0.091689
-0.0563456
-0.0190062
0.0190066
0.056346
0.0916893
0.123785
0.151495
0.173838
0.190023
0.199476
0.201863
0.197099
0.185352
0.167039
0.142809
0.11352
0.0802088
0.0440565
0.00634351
-0.0315942
-0.0684127
-0.102808
-0.133561
-0.159582
-0.17995
-0.193944
-0.201066
-0.201066
-0.193943
-0.17995
-0.159582
-0.13356
-0.102807
-0.0684122
-0.0315937
0.00634399
0.044057
0.0802092
0.11352
0.142809
0.167039
0.185352
0.197099
0.201863
0.199476
0.190023
0.173838
0.151494
0.123784
0.0916889
0.0563456
0.0190062
)
;

boundaryField
{
    inlet
    {
        type            cyclic;
    }
    outlet
    {
        type            cyclic;
    }
    bottom
    {
        type            slip;
    }
    top
    {
        type            slip;
    }
    frontAndBack
    {
        type            empty;
    }
}


// ************************************************************************* //
