/*--------------------------------*- C++ -*----------------------------------*\
| =========                 |                                                 |
| \\      /  F ield         | OpenFOAM: The Open Source CFD Toolbox           |
|  \\    /   O peration     | Version:  2406                                  |
|   \\  /    A nd           | Website:  www.openfoam.com                      |
|    \\/     M anipulation  |                                                 |
\*---------------------------------------------------------------------------*/
FoamFile
{
    version     2.0;
    format      ascii;
    arch        "LSB;label=32;scalar=64";
    class       volScalarField;
    location    "3";
    object      p;
}
// * * * * * * * * * * * * * * * * * * * * * * * * * * * * * * * * * * * * * //

dimensions      [0 2 -2 0 0 0 0];

internalField   nonuniform List<scalar> 
1176
(
0.77579919
0.77582206
0.77584572
0.77585339
0.77582186
0.77572716
0.77556993
0.77538376
0.77520456
0.7750374
0.77488277
0.77478715
0.77478714
0.77488275
0.77503737
0.77520453
0.77538374
0.77556991
0.77572715
0.77582185
0.77585338
0.77584572
0.77582206
0.77579919
0.75265076
0.7526038
0.75255605
0.75253915
0.75260165
0.752804
0.75316932
0.75363372
0.75406458
0.75435068
0.75447006
0.75450431
0.75450431
0.75447004
0.75435065
0.75406455
0.75363369
0.75316929
0.75280397
0.75260162
0.75253911
0.75255601
0.75260377
0.75265073
0.73556602
0.73558803
0.73560782
0.73560591
0.73554685
0.73538567
0.73511391
0.73478595
0.73447974
0.73426694
0.73415613
0.7341073
0.73410728
0.7341561
0.7342669
0.73447969
0.7347859
0.73511386
0.73538562
0.7355468
0.73560587
0.73560778
0.73558798
0.73556597
0.71889412
0.71890325
0.7189153
0.7189317
0.71895425
0.71897182
0.71893958
0.71880617
0.71857405
0.71830148
0.71807726
0.71795676
0.71795674
0.71807723
0.71830143
0.71857399
0.7188061
0.71893951
0.71897174
0.71895416
0.71893162
0.71891521
0.71890315
0.71889403
0.70247507
0.70247902
0.70248401
0.70249008
0.70249978
0.70252005
0.70255623
0.70259774
0.7026194
0.70259552
0.7025334
0.70248075
0.70248074
0.70253336
0.70259546
0.70261933
0.70259766
0.70255614
0.70251996
0.70249968
0.70248998
0.70248391
0.70247892
0.70247497
0.68601341
0.68601582
0.68601907
0.68602311
0.68602802
0.68603485
0.68604902
0.68608032
0.68613031
0.68618756
0.68623026
0.6862469
0.68624689
0.68623023
0.68618751
0.68613024
0.68608024
0.68604893
0.68603476
0.68602792
0.68602301
0.68601896
0.68601572
0.6860133
0.66960759
0.66960973
0.66961254
0.66961597
0.66961986
0.66962337
0.66962544
0.6696276
0.66963615
0.66965337
0.66967128
0.66968301
0.66968301
0.66967126
0.66965334
0.66963609
0.66962754
0.66962536
0.6696233
0.66961978
0.66961589
0.66961246
0.66960965
0.66960751
0.65322772
0.65322948
0.6532318
0.65323473
0.6532384
0.65324276
0.65324721
0.65325036
0.65325159
0.65325322
0.6532503
0.65324782
0.65324782
0.65325029
0.6532532
0.65325157
0.65325033
0.65324717
0.65324273
0.65323836
0.65323468
0.65323176
0.65322944
0.65322768
0.63687345
0.63687491
0.63687684
0.63687925
0.63688226
0.63688604
0.63689107
0.63689811
0.63690682
0.6369169
0.63692471
0.63692832
0.63692832
0.63692472
0.63691692
0.63690683
0.63689813
0.63689108
0.63688604
0.63688226
0.63687924
0.63687683
0.63687491
0.63687345
0.62053583
0.62053704
0.62053864
0.62054067
0.62054323
0.62054639
0.62055053
0.62055691
0.62056711
0.62058033
0.62059469
0.62060401
0.62060402
0.62059472
0.62058037
0.62056715
0.62055697
0.62055059
0.62054644
0.62054328
0.62054072
0.62053869
0.62053709
0.62053588
0.60421166
0.60421269
0.60421405
0.60421578
0.60421797
0.60422065
0.60422402
0.60422888
0.60423682
0.60424754
0.60426006
0.6042692
0.60426921
0.6042601
0.60424759
0.60423689
0.60422895
0.6042241
0.60422074
0.60421805
0.60421586
0.60421413
0.60421276
0.60421174
0.58789867
0.58789954
0.58790072
0.5879022
0.58790409
0.58790644
0.58790938
0.58791345
0.58791984
0.58792847
0.58793875
0.587946
0.58794602
0.5879388
0.58792854
0.58791993
0.58791354
0.58790948
0.58790655
0.5879042
0.58790231
0.58790083
0.58789966
0.58789878
0.57159519
0.57159594
0.57159695
0.57159823
0.57159989
0.57160199
0.57160468
0.5716084
0.57161406
0.5716215
0.57163024
0.57163619
0.5716362
0.57163029
0.57162159
0.57161416
0.57160851
0.57160479
0.5716021
0.57160001
0.57159835
0.57159707
0.57159606
0.57159531
0.55529926
0.5552999
0.55530077
0.55530191
0.55530343
0.55530541
0.555308
0.55531148
0.55531637
0.55532246
0.55532928
0.55533365
0.55533367
0.55532933
0.55532254
0.55531649
0.5553116
0.55530812
0.55530554
0.55530356
0.55530205
0.55530092
0.55530005
0.5552994
0.53900848
0.53900905
0.53900983
0.5390109
0.53901238
0.53901441
0.53901708
0.53902041
0.53902438
0.53902872
0.53903312
0.53903557
0.53903559
0.53903317
0.5390288
0.53902449
0.53902054
0.5390172
0.53901454
0.53901252
0.53901105
0.53900998
0.5390092
0.53900864
0.52271973
0.52272027
0.52272103
0.52272213
0.52272372
0.52272598
0.52272895
0.52273242
0.52273578
0.52273833
0.52274002
0.52274085
0.52274087
0.52274008
0.52273841
0.52273588
0.52273254
0.52272908
0.52272611
0.52272386
0.52272228
0.52272119
0.52272043
0.52271989
0.50642967
0.50643024
0.50643109
0.50643233
0.50643419
0.50643686
0.50644031
0.50644406
0.50644708
0.50644821
0.50644806
0.50644793
0.50644794
0.5064481
0.50644828
0.50644716
0.50644415
0.50644041
0.50643696
0.5064343
0.50643245
0.50643121
0.50643037
0.50642979
0.49013567
0.49013637
0.49013741
0.49013894
0.4901412
0.49014436
0.49014831
0.49015221
0.49015471
0.49015513
0.49015472
0.49015437
0.49015438
0.49015475
0.49015517
0.49015476
0.49015227
0.49014837
0.49014444
0.49014129
0.49013904
0.49013751
0.49013648
0.49013578
0.47383672
0.47383764
0.47383897
0.47384088
0.47384359
0.4738472
0.47385138
0.47385509
0.47385671
0.47385762
0.47385942
0.47386076
0.47386077
0.47385943
0.47385764
0.47385673
0.47385511
0.4738514
0.47384722
0.47384363
0.47384094
0.47383903
0.4738377
0.47383678
0.45753502
0.45753622
0.45753792
0.45754026
0.45754337
0.45754715
0.45755099
0.45755367
0.45755455
0.45755748
0.45756526
0.45757279
0.45757279
0.45756526
0.45755748
0.45755454
0.45755367
0.45755099
0.45754714
0.45754337
0.45754028
0.45753795
0.45753625
0.45753504
0.44123681
0.44123835
0.44124043
0.44124312
0.44124637
0.4412497
0.44125205
0.44125232
0.44125325
0.44125999
0.44127756
0.44129651
0.44129651
0.44127755
0.44125997
0.44125322
0.4412523
0.44125202
0.44124967
0.44124634
0.44124311
0.44124043
0.44123835
0.44123681
0.42495378
0.42495563
0.42495804
0.42496085
0.42496369
0.42496551
0.42496467
0.42496185
0.42496154
0.42497273
0.42500302
0.4250356
0.42503559
0.425003
0.42497269
0.42496149
0.42496181
0.42496463
0.42496546
0.42496365
0.42496082
0.42495802
0.42495562
0.42495376
0.40870577
0.40870781
0.4087103
0.40871277
0.40871436
0.40871333
0.40870834
0.40869972
0.40869446
0.40871177
0.40875923
0.40880796
0.40880794
0.40875918
0.40871171
0.40869437
0.40869963
0.40870825
0.40871323
0.40871426
0.40871268
0.40871022
0.40870773
0.40870569
0.39252008
0.39252204
0.39252418
0.39252564
0.39252509
0.39252038
0.39250867
0.39248983
0.39247899
0.39250372
0.39257326
0.39264168
0.39264165
0.39257318
0.39250362
0.39247885
0.39248968
0.39250851
0.39252021
0.39252491
0.39252547
0.39252401
0.39252188
0.39251991
0.37642782
0.37642937
0.37643069
0.37643058
0.37642717
0.37641679
0.37639533
0.3763652
0.37634665
0.37637751
0.37647035
0.37656194
0.37656189
0.37647024
0.37637736
0.37634645
0.37636499
0.37639511
0.37641655
0.37642693
0.37643034
0.37643046
0.37642914
0.37642759
0.36046317
0.36046389
0.36046381
0.36046117
0.36045323
0.36043536
0.36040313
0.36035971
0.36033082
0.36036525
0.36047909
0.36059274
0.36059269
0.36047895
0.36036505
0.36033057
0.36035943
0.36040283
0.36043505
0.36045292
0.36046085
0.36046349
0.36046357
0.36046286
0.34465686
0.34465624
0.34465407
0.34464811
0.34463488
0.34460883
0.3445647
0.34450633
0.34446446
0.34449867
0.34462922
0.34476217
0.34476212
0.34462906
0.34449844
0.34446418
0.34450601
0.34456437
0.34460849
0.34463453
0.34464776
0.34465372
0.34465589
0.34465651
0.32903574
0.32903334
0.32902851
0.32901855
0.32899932
0.32896437
0.32890774
0.32883365
0.32877665
0.32880584
0.32894669
0.32909437
0.32909431
0.32894652
0.32880559
0.32877635
0.32883331
0.32890738
0.328964
0.32899895
0.32901819
0.32902815
0.32903298
0.32903538
0.31361739
0.31361279
0.31360481
0.31359036
0.31356471
0.31352076
0.31345196
0.31336256
0.31328916
0.31330781
0.31345052
0.3136064
0.31360634
0.31345034
0.31330755
0.31328886
0.3133622
0.31345157
0.31352034
0.31356427
0.3135899
0.31360434
0.31361233
0.31361693
0.29840778
0.29840069
0.29838923
0.29837007
0.29833804
0.29828563
0.29820595
0.29810289
0.2980134
0.29801547
0.29814995
0.29830641
0.29830634
0.29814976
0.29801519
0.29801308
0.29810253
0.29820557
0.29828525
0.29833765
0.29836968
0.29838884
0.2984003
0.29840739
0.28339872
0.28338901
0.28337399
0.2833502
0.28331221
0.28325243
0.28316386
0.28304967
0.28294541
0.28292646
0.28304324
0.28319182
0.28319176
0.28304305
0.28292617
0.28294506
0.28304926
0.28316342
0.28325198
0.28331174
0.28334971
0.2833735
0.28338852
0.28339824
0.26856848
0.26855619
0.26853774
0.26850966
0.26846646
0.26840071
0.26830553
0.26818287
0.26806455
0.26802405
0.26811736
0.26824859
0.26824852
0.26811719
0.26802378
0.26806422
0.26818249
0.26830513
0.2684003
0.26846604
0.26850923
0.26853729
0.26855574
0.26856803
0.25388518
0.25387048
0.2538489
0.25381711
0.25376967
0.2536996
0.25360037
0.25347248
0.25334196
0.25328002
0.25334414
0.25345095
0.25345089
0.25334397
0.25327975
0.25334162
0.25347209
0.25359995
0.25369916
0.25376921
0.25381663
0.25384842
0.25386999
0.2538847
0.23930932
0.2392925
0.23926826
0.23923349
0.23918299
0.23911046
0.23900991
0.23888041
0.23874076
0.23865673
0.2386871
0.23876495
0.2387649
0.23868693
0.23865646
0.23874043
0.23888003
0.23900952
0.23911005
0.23918257
0.23923305
0.23926781
0.23929205
0.23930888
0.22479553
0.22477698
0.22475065
0.22471377
0.22466155
0.22458852
0.22448954
0.22436244
0.22421856
0.22411125
0.22410508
0.22415106
0.22415101
0.2241049
0.22411097
0.22421823
0.22436206
0.22448913
0.22458811
0.22466112
0.22471333
0.2247502
0.22477653
0.22479508
0.21029323
0.21027343
0.2102457
0.21020768
0.21015509
0.21008348
0.20998873
0.20986797
0.2097258
0.20959807
0.20955425
0.20956621
0.20956615
0.20955407
0.20959779
0.20972546
0.20986759
0.20998833
0.21008307
0.21015466
0.21020724
0.21024525
0.21027298
0.21029278
0.19575327
0.19573275
0.19570436
0.1956662
0.1956146
0.19554622
0.19545792
0.19534575
0.19520783
0.19506504
0.19498286
0.19496532
0.19496526
0.19498268
0.19506476
0.19520749
0.19534538
0.19545752
0.19554581
0.19561417
0.19566576
0.1957039
0.19573229
0.19575281
0.18112749
0.1811068
0.18107849
0.18104115
0.18099172
0.18092798
0.18084776
0.18074606
0.18061384
0.18046017
0.1803426
0.18030264
0.18030258
0.18034243
0.1804599
0.18061352
0.1807457
0.18084739
0.18092759
0.18099131
0.18104071
0.18107805
0.18110635
0.18112704
0.16637072
0.1663504
0.16632286
0.16628712
0.16624076
0.16618251
0.16611121
0.16602162
0.16589884
0.16573807
0.1655906
0.16552299
0.16552294
0.16559045
0.16573783
0.16589854
0.16602128
0.16611085
0.16618212
0.16624035
0.1662867
0.16632242
0.16634997
0.16637029
0.15144867
0.15142917
0.15140296
0.15136946
0.1513268
0.15127455
0.15121239
0.15113507
0.15102405
0.15086045
0.15069059
0.15059478
0.15059474
0.15069046
0.15086025
0.1510238
0.15113477
0.15121206
0.15127419
0.15132642
0.15136907
0.15140256
0.15142877
0.15144827
0.13633792
0.13631959
0.13629514
0.13626431
0.13622571
0.1361796
0.13612637
0.13606083
0.13596207
0.13580065
0.13561703
0.1355017
0.13550166
0.13561692
0.13580048
0.13596185
0.13606058
0.13612611
0.13617933
0.13622542
0.13626401
0.13629483
0.13631928
0.13633761
0.12102465
0.12100773
0.12098532
0.12095741
0.12092303
0.12088298
0.1208382
0.12078375
0.12069757
0.12054361
0.12035718
0.12023153
0.1202315
0.12035709
0.12054347
0.12069739
0.12078355
0.12083798
0.12088275
0.12092277
0.12095714
0.12098505
0.12100746
0.12102438
0.10550512
0.10548976
0.10546955
0.10544465
0.10541447
0.1053802
0.10534322
0.10529901
0.10522519
0.10508241
0.10489598
0.10476249
0.10476248
0.10489593
0.1050823
0.10522505
0.10529886
0.10534304
0.10538
0.10541426
0.10544444
0.10546932
0.10548954
0.1055049
0.089778751
0.089764995
0.089746995
0.089725105
0.089699007
0.089670189
0.089640352
0.089605555
0.089544337
0.089417855
0.089242783
0.089113842
0.089113828
0.08924273
0.08941777
0.089544226
0.089605428
0.089640207
0.089670021
0.089698822
0.089724909
0.089746792
0.089764789
0.089778543
0.073858319
0.073846217
0.073830455
0.073811455
0.073789102
0.073765073
0.073741402
0.07371487
0.073665022
0.073552704
0.073384224
0.073255623
0.073255604
0.073384177
0.073552641
0.073664938
0.073714776
0.073741295
0.073764943
0.073788955
0.073811301
0.073830298
0.073846059
0.073858161
0.057740593
0.057729948
0.057716198
0.057699903
0.057681173
0.057661737
0.057643597
0.057624199
0.057586155
0.057496085
0.057358898
0.057258215
0.0572582
0.057358863
0.057496039
0.057586085
0.057624118
0.057643505
0.057661632
0.057681061
0.057699788
0.057716083
0.057729833
0.057740479
0.041471578
0.041462745
0.041451264
0.041437457
0.041421322
0.041404546
0.041389505
0.041374581
0.041343711
0.0412649
0.041141609
0.041048673
0.041048664
0.041141584
0.041264858
0.041343645
0.041374516
0.041389443
0.041404476
0.041421246
0.041437378
0.041451185
0.041462666
0.041471499
0.024991925
0.024983501
0.024972979
0.024961406
0.024949518
0.024939126
0.024931634
0.024924931
0.024908005
0.024862684
0.02479355
0.024756141
0.024756132
0.024793529
0.024862656
0.024907976
0.024924909
0.024931607
0.024939091
0.024949484
0.024961376
0.024972949
0.024983468
0.02499189
0.0085358798
0.0085298799
0.0085221924
0.0085128063
0.0085015298
0.0084898255
0.008480753
0.0084748381
0.0084566103
0.0083802589
0.0082059616
0.0080308226
0.0080308162
0.0082059453
0.0083802417
0.0084566009
0.0084748331
0.0084807426
0.0084898136
0.0085015207
0.0085127978
0.0085221844
0.0085298737
0.008535876
)
;

boundaryField
{
    INLET
    {
        type            zeroGradient;
    }
    OUTLET
    {
        type            fixedValue;
        value           uniform 0;
    }
    WALL
    {
        type            zeroGradient;
    }
    frontAndBackPlanes
    {
        type            empty;
    }
}


// ************************************************************************* //
