/*--------------------------------*- C++ -*----------------------------------*\
| =========                 |                                                 |
| \\      /  F ield         | OpenFOAM: The Open Source CFD Toolbox           |
|  \\    /   O peration     | Version:  2406                                  |
|   \\  /    A nd           | Website:  www.openfoam.com                      |
|    \\/     M anipulation  |                                                 |
\*---------------------------------------------------------------------------*/
FoamFile
{
    version     2.0;
    format      ascii;
    arch        "LSB;label=32;scalar=64";
    class       surfaceScalarField;
    location    "3";
    object      phi;
}
// * * * * * * * * * * * * * * * * * * * * * * * * * * * * * * * * * * * * * //

dimensions      [0 3 -1 0 0 0 0];

oriented        oriented;

internalField   nonuniform List<scalar> 
2279
(
2.3617735e-08
1.0148926e-05
2.0509885e-07
4.9823749e-05
6.9332096e-07
0.00014252872
1.5784787e-06
0.00034353082
2.6788602e-06
0.00075378089
3.3473103e-06
0.0015415573
3.0435444e-06
0.0029497096
2.1517143e-06
0.005249171
1.431844e-06
0.008582269
9.8963569e-07
0.012685995
5.1270706e-07
0.016666385
2.8012484e-11
0.01918202
-5.1265936e-07
0.01918202
-9.8960763e-07
0.016666385
-1.4318375e-06
0.012685995
-2.1517196e-06
0.008582269
-3.0435464e-06
0.005249171
-3.3473043e-06
0.0029497096
-2.6788525e-06
0.0015415573
-1.5784734e-06
0.00075378089
-6.9331844e-07
0.00034353082
-2.0509795e-07
0.00014252872
-2.3617579e-08
4.982375e-05
1.0148927e-05
-9.5248348e-08
1.0244174e-05
-5.3793948e-07
5.026644e-05
-1.6229996e-06
0.00014361378
-3.5389495e-06
0.00034544676
-5.920182e-06
0.00075616211
-7.4054948e-06
0.0015430426
-6.584711e-06
0.0029488888
-3.9361366e-06
0.0052465224
-1.3883666e-06
0.0085797212
-6.5099827e-08
0.012684671
2.4242214e-07
0.016666078
8.8051088e-12
0.019182263
-2.4240736e-07
0.019182263
6.5108881e-08
0.016666078
1.3883751e-06
0.012684671
3.9361474e-06
0.0085797212
6.5847195e-06
0.0052465224
7.4054991e-06
0.0029488888
5.9201862e-06
0.0015430426
3.5389535e-06
0.00075616212
1.623002e-06
0.00034544677
5.3794043e-07
0.00014361378
9.5248611e-08
5.0266442e-05
1.0244175e-05
5.013991e-08
1.0194034e-05
2.6334549e-07
5.0053234e-05
7.4910885e-07
0.00014312801
1.5314624e-06
0.00034466441
2.3366641e-06
0.00075535691
2.5476788e-06
0.0015428316
1.8391281e-06
0.0029495973
9.7572274e-07
0.0052473858
6.769975e-07
0.0085800199
6.7180553e-07
0.012684677
4.841777e-07
0.016666266
2.2396467e-11
0.019182747
-4.8413538e-07
0.019182747
-6.7176934e-07
0.016666266
-6.7696782e-07
0.012684677
-9.7570201e-07
0.00858002
-1.8391182e-06
0.0052473858
-2.5476789e-06
0.0029495974
-2.336668e-06
0.0015428316
-1.5314651e-06
0.00075535693
-7.4910975e-07
0.00034466442
-2.6334572e-07
0.00014312802
-5.0139967e-08
5.0053237e-05
1.0194035e-05
1.9587031e-08
1.0174447e-05
1.1185119e-07
4.9960969e-05
3.6129074e-07
0.00014287857
9.0506437e-07
0.00034412063
1.8716962e-06
0.00075439027
3.0948907e-06
0.0015416084
3.8988187e-06
0.0029487934
3.7286531e-06
0.005247556
2.9242714e-06
0.0085808243
1.9733961e-06
0.012685627
1.0127844e-06
0.016667226
2.6544044e-11
0.01918376
-1.0127292e-06
0.01918376
-1.9733362e-06
0.016667226
-2.924212e-06
0.012685627
-3.7286056e-06
0.0085808243
-3.8987871e-06
0.005247556
-3.0948712e-06
0.0029487934
-1.871689e-06
0.0015416084
-9.0506379e-07
0.00075439029
-3.6129161e-07
0.00034412065
-1.1185178e-07
0.00014287858
-1.9587236e-08
4.9960972e-05
1.0174448e-05
8.0840373e-09
1.0166363e-05
4.7142257e-08
4.9921911e-05
1.5494968e-07
0.00014277077
3.9847034e-07
0.00034387712
8.7980968e-07
0.00075390894
1.7015412e-06
0.0015407867
2.7513025e-06
0.0029477437
3.4623535e-06
0.0052468449
3.4707763e-06
0.0085808159
2.800574e-06
0.012686298
1.5504492e-06
0.016668476
1.1505239e-11
0.01918531
-1.5504215e-06
0.01918531
-2.8005357e-06
0.016668476
-3.4707344e-06
0.012686298
-3.4623255e-06
0.0085808159
-2.7512948e-06
0.005246845
-1.7015386e-06
0.0029477437
-8.7980846e-07
0.0015407867
-3.9847203e-07
0.00075390896
-1.5495197e-07
0.00034387713
-4.7143532e-08
0.00014277077
-8.0843949e-09
4.9921914e-05
1.0166364e-05
4.9356101e-09
1.0161428e-05
2.869755e-08
4.989815e-05
9.511748e-08
0.00014270435
2.4920437e-07
0.00034372303
5.6358613e-07
0.00075359456
1.1213219e-06
0.001540229
1.9183453e-06
0.0029469467
2.658619e-06
0.0052461047
2.8927675e-06
0.0085805818
2.4786363e-06
0.012686712
1.4343625e-06
0.016669521
3.4298904e-12
0.019186744
-1.4343478e-06
0.019186744
-2.4786027e-06
0.01666952
-2.8927181e-06
0.012686712
-2.6585787e-06
0.0085805818
-1.918329e-06
0.0052461047
-1.1213197e-06
0.0029469467
-5.6358565e-07
0.001540229
-2.492033e-07
0.00075359458
-9.511671e-08
0.00034372304
-2.8697193e-08
0.00014270435
-4.935443e-09
4.9898151e-05
1.0161428e-05
4.4123267e-09
1.0157016e-05
2.5525528e-08
4.9877037e-05
8.3829365e-08
0.00014264605
2.1689043e-07
0.00034358998
4.8448568e-07
0.00075332698
9.5630856e-07
0.0015397572
1.6412378e-06
0.0029462618
2.3243316e-06
0.0052454216
2.5937061e-06
0.0085803125
2.2391127e-06
0.012687066
1.3064863e-06
0.016670453
-2.0025917e-11
0.019188051
-1.3065164e-06
0.019188051
-2.2391235e-06
0.016670453
-2.5937014e-06
0.012687066
-2.3243196e-06
0.0085803124
-1.6412311e-06
0.0052454216
-9.5630675e-07
0.0029462618
-4.8448387e-07
0.0015397572
-2.1688611e-07
0.00075332699
-8.3825035e-08
0.00034358998
-2.5523092e-08
0.00014264605
-4.41142e-09
4.9877037e-05
1.0157015e-05
3.6258296e-09
1.015339e-05
2.1037769e-08
4.9859626e-05
6.9439981e-08
0.00014259765
1.8113931e-07
0.00034347828
4.0968873e-07
0.00075309844
8.2380378e-07
0.0015393431
1.4537339e-06
0.0029456319
2.1425995e-06
0.0052447328
2.4668442e-06
0.0085799883
2.1875515e-06
0.012687346
1.2861131e-06
0.016671355
-4.408586e-11
0.019189337
-1.2861872e-06
0.019189337
-2.1875952e-06
0.016671354
-2.4668644e-06
0.012687346
-2.1426099e-06
0.0085799882
-1.4537428e-06
0.0052447328
-8.2380578e-07
0.0029456319
-4.096902e-07
0.0015393431
-1.8114249e-07
0.00075309844
-6.944189e-08
0.00034347828
-2.1038433e-08
0.00014259764
-3.6260375e-09
4.9859624e-05
1.015339e-05
2.9834043e-09
1.0150407e-05
1.7347044e-08
4.9845263e-05
5.7371688e-08
0.00014255762
1.5004063e-07
0.00034338562
3.4084726e-07
0.00075290765
6.9158595e-07
0.0015389923
1.2433724e-06
0.0029450801
1.9030083e-06
0.0052440732
2.3001272e-06
0.0085795912
2.0963438e-06
0.01268755
1.2513488e-06
0.0166722
-6.5186429e-11
0.019190588
-1.2514656e-06
0.019190588
-2.0964234e-06
0.016672199
-2.3001619e-06
0.012687549
-1.9030193e-06
0.008579591
-1.2433718e-06
0.0052440731
-6.915637e-07
0.0029450801
-3.408198e-07
0.0015389923
-1.5002871e-07
0.00075290763
-5.7369787e-08
0.00034338561
-1.7347508e-08
0.00014255762
-2.9839299e-09
4.984526e-05
1.0150406e-05
2.4638901e-09
1.0147943e-05
1.4350682e-08
4.9833377e-05
4.7572953e-08
0.0001425244
1.2485266e-07
0.00034330834
2.8511179e-07
0.0007527474
5.8311725e-07
0.0015386943
1.0623256e-06
0.0029446009
1.6617678e-06
0.0052434737
2.0877719e-06
0.0085791652
1.9516386e-06
0.012687686
1.1794301e-06
0.016672972
-7.7923746e-11
0.019191768
-1.1795819e-06
0.019191768
-1.9517693e-06
0.016672972
-2.0878479e-06
0.012687685
-1.661793e-06
0.008579165
-1.0623366e-06
0.0052434736
-5.8310842e-07
0.0029446008
-2.8508007e-07
0.0015386943
-1.2482783e-07
0.00075274737
-4.756195e-08
0.00034330833
-1.4346995e-08
0.00014252439
-2.4629715e-09
4.9833373e-05
1.0147942e-05
2.0907396e-09
1.0145852e-05
1.2184635e-08
4.9823283e-05
4.0429374e-08
0.00014249616
1.0627883e-07
0.0003432425
2.4343739e-07
0.00075261024
5.0068869e-07
0.0015384371
9.2138462e-07
0.0029441802
1.4661139e-06
0.005242929
1.8871952e-06
0.0085787441
1.8030166e-06
0.01268777
1.1027015e-06
0.016673672
-8.4841027e-11
0.019192871
-1.1028702e-06
0.019192871
-1.8031772e-06
0.016673672
-1.8873157e-06
0.01268777
-1.4661686e-06
0.0085787438
-9.2141687e-07
0.0052429288
-5.0071474e-07
0.0029441801
-2.4343283e-07
0.001538437
-1.0626305e-07
0.0007526102
-4.0418908e-08
0.00034324247
-1.218004e-08
0.00014249615
-2.0892377e-09
4.9823278e-05
1.0145851e-05
1.7897768e-09
1.0144062e-05
1.0439413e-08
4.9814634e-05
3.4684166e-08
0.00014247191
9.1379157e-08
0.0003431858
2.1008547e-07
0.00075249153
4.3473048e-07
0.0015382124
8.0794806e-07
0.002943807
1.3059375e-06
0.005242431
1.7178162e-06
0.0085783322
1.6759296e-06
0.012687812
1.0383524e-06
0.01667431
-9.5974377e-11
0.019193909
-1.0385393e-06
0.019193909
-1.6761048e-06
0.01667431
-1.717966e-06
0.012687811
-1.306019e-06
0.0085783319
-8.0799375e-07
0.0052424308
-4.3478193e-07
0.0029438068
-2.1011005e-07
0.0015382124
-9.1383145e-08
0.00075249147
-3.4684051e-08
0.00034318577
-1.0439289e-08
0.0001424719
-1.7898616e-09
4.9814627e-05
1.0144061e-05
1.5286889e-09
1.0142534e-05
8.9361092e-09
4.9807226e-05
2.9775761e-08
0.00014245107
7.8780548e-08
0.00034313679
1.822207e-07
0.00075238809
3.8022961e-07
0.0015380144
7.1460752e-07
0.0029434726
1.1725438e-06
0.0052419731
1.5729113e-06
0.0085779318
1.5660866e-06
0.012687819
9.8374089e-07
0.016674892
-1.1122583e-10
0.019194893
-9.8395703e-07
0.019194893
-1.5662837e-06
0.016674892
-1.573085e-06
0.012687818
-1.1726324e-06
0.0085779315
-7.1463694e-07
0.0052419728
-3.8027836e-07
0.0029434724
-1.8225105e-07
0.0015380143
-7.8787885e-08
0.00075238802
-2.9777684e-08
0.00034313675
-8.9372876e-09
0.00014245105
-1.5294441e-09
4.9807219e-05
1.0142532e-05
1.3078476e-09
1.0141226e-05
7.6826925e-09
4.9800851e-05
2.5752817e-08
0.000142433
6.8679444e-08
0.00034309387
1.6045795e-07
0.00075229631
3.3877252e-07
0.0015378361
6.448844e-07
0.0029431665
1.0730217e-06
0.0052415449
1.4642021e-06
0.0085775406
1.4837834e-06
0.012687799
9.4229396e-07
0.016675434
-1.2637992e-10
0.019195836
-9.4253817e-07
0.019195836
-1.4840049e-06
0.016675433
-1.4644077e-06
0.012687799
-1.0731306e-06
0.0085775402
-6.4489716e-07
0.0052415446
-3.3882494e-07
0.0029431663
-1.6051094e-07
0.001537836
-6.8699933e-08
0.00075229624
-2.5758621e-08
0.00034309383
-7.6843128e-09
0.00014243298
-1.3082298e-09
4.9800844e-05
1.0141224e-05
1.1511454e-09
1.0140075e-05
6.8191999e-09
4.9795183e-05
2.3075023e-08
0.00014241674
6.2242441e-08
0.00034305469
1.4728799e-07
0.00075221126
3.1491827e-07
0.0015376685
6.0591168e-07
0.0029428755
1.0169561e-06
0.0052411338
1.4020982e-06
0.0085771554
1.43686e-06
0.012687764
9.1788145e-07
0.016675953
-1.4338579e-10
0.019196754
-9.1815164e-07
0.019196754
-1.4370907e-06
0.016675952
-1.4023194e-06
0.012687764
-1.0171029e-06
0.008577155
-6.0591497e-07
0.0052411335
-3.149526e-07
0.0029428753
-1.4734721e-07
0.0015376684
-6.2270736e-08
0.00075221119
-2.3083388e-08
0.00034305466
-6.8209058e-09
0.00014241673
-1.1511822e-09
4.9795178e-05
1.0140074e-05
1.0993543e-09
1.0138976e-05
6.5739348e-09
4.9789707e-05
2.2457797e-08
0.00014240086
6.1184564e-08
0.00034301596
1.460955e-07
0.00075212633
3.1415914e-07
0.0015375004
6.0471545e-07
0.0029425848
1.0108596e-06
0.0052407276
1.3893869e-06
0.0085767768
1.4258529e-06
0.012687728
9.1196215e-07
0.016676466
-1.5666353e-10
0.019197666
-9.1225366e-07
0.019197666
-1.4260847e-06
0.016676466
-1.3895956e-06
0.012687727
-1.0110357e-06
0.0085767765
-6.0473798e-07
0.0052407273
-3.1419055e-07
0.0029425847
-1.4615955e-07
0.0015375003
-6.1218639e-08
0.0007521263
-2.2468695e-08
0.00034301595
-6.5761734e-09
0.00014240085
-1.099422e-09
4.9789706e-05
1.0138976e-05
1.2005387e-09
1.0137776e-05
7.2110622e-09
4.9783695e-05
2.4713446e-08
0.00014238335
6.7416682e-08
0.00034297325
1.6060113e-07
0.00075203313
3.4255093e-07
0.0015373184
6.4928546e-07
0.0029422781
1.0627485e-06
0.0052403141
1.4309849e-06
0.0085764086
1.4519381e-06
0.012687707
9.2652235e-07
0.016676992
-1.5630577e-10
0.019198592
-9.2681378e-07
0.019198592
-1.4521702e-06
0.016676991
-1.4311721e-06
0.012687706
-1.0628975e-06
0.0085764083
-6.4929433e-07
0.0052403138
-3.4258255e-07
0.002942278
-1.6068181e-07
0.0015373183
-6.7461784e-08
0.00075203311
-2.4726849e-08
0.00034297325
-7.2128191e-09
0.00014238335
-1.2000415e-09
4.9783696e-05
1.0137776e-05
1.4862536e-09
1.0136291e-05
8.8938123e-09
4.9776285e-05
3.0302756e-08
0.00014236193
8.1883569e-08
0.00034292166
1.9225474e-07
0.00075192274
4.0152561e-07
0.0015371091
7.3959746e-07
0.0029419399
1.1692739e-06
0.0052398844
1.5157213e-06
0.0085760621
1.5038805e-06
0.012687719
9.5649379e-07
0.016677539
-1.5022954e-10
0.019199549
-9.5677474e-07
0.019199549
-1.5041153e-06
0.016677539
-1.5159198e-06
0.012687718
-1.1694224e-06
0.0085760618
-7.3959986e-07
0.0052398842
-4.0155745e-07
0.0029419399
-1.9236041e-07
0.0015371091
-8.1950501e-08
0.00075192274
-3.0325739e-08
0.00034292166
-8.8980947e-09
0.00014236194
-1.4859566e-09
4.9776288e-05
1.0136292e-05
1.9564874e-09
1.0134335e-05
1.1594056e-08
4.9766645e-05
3.9031194e-08
0.00014233449
1.0374988e-07
0.00034285693
2.382669e-07
0.0007517882
4.8348124e-07
0.0015368638
8.5893048e-07
0.0029415644
1.2992495e-06
0.005239444
1.6049436e-06
0.0085757564
1.5435966e-06
0.01268778
9.7008077e-07
0.016678113
-1.4884409e-10
0.019200519
-9.7036071e-07
0.019200519
-1.5438371e-06
0.016678112
-1.6051573e-06
0.012687779
-1.2994326e-06
0.0085757561
-8.5894577e-07
0.0052394438
-4.8350595e-07
0.0029415644
-2.3839737e-07
0.0015368638
-1.0384498e-07
0.0007517882
-3.9067629e-08
0.00034285693
-1.1602473e-08
0.0001423345
-1.9571478e-09
4.9766647e-05
1.0134336e-05
2.5763179e-09
1.013176e-05
1.5078582e-08
4.975414e-05
5.0005465e-08
0.00014229956
1.3026536e-07
0.00034277665
2.912681e-07
0.00075162717
5.7112148e-07
0.0015365839
9.720144e-07
0.0029411635
1.3939891e-06
0.0052390221
1.6380511e-06
0.0085755124
1.5062338e-06
0.012687912
9.1125385e-07
0.016678708
-1.5700045e-10
0.019201431
-9.1155242e-07
0.01920143
-1.5065042e-06
0.016678707
-1.6382964e-06
0.012687911
-1.394235e-06
0.0085755121
-9.7208695e-07
0.0052390219
-5.711432e-07
0.0029411634
-2.9140037e-07
0.0015365839
-1.3037828e-07
0.00075162716
-5.0055316e-08
0.00034277665
-1.5092718e-08
0.00014229956
-2.578729e-09
4.9754141e-05
1.013176e-05
3.2813783e-09
1.0128479e-05
1.8928075e-08
4.9738491e-05
6.1671677e-08
0.00014225681
1.5685582e-07
0.00034268146
3.3963383e-07
0.00075144438
6.3816332e-07
0.0015362854
1.0273082e-06
0.0029407744
1.3829236e-06
0.0052386665
1.5309625e-06
0.0085753645
1.3137091e-06
0.012688129
7.3720375e-07
0.016679284
-1.7331996e-10
0.019202168
-7.375425e-07
0.019202168
-1.3140388e-06
0.016679284
-1.5312247e-06
0.012688128
-1.3831887e-06
0.008575364
-1.0274375e-06
0.0052386662
-6.3820052e-07
0.0029407742
-3.3975567e-07
0.0015362853
-1.5696329e-07
0.00075144434
-6.1722897e-08
0.00034268145
-1.8945067e-08
0.00014225681
-3.2853971e-09
4.9738491e-05
1.0128479e-05
3.9323319e-09
1.0124546e-05
2.2294426e-08
4.9720126e-05
7.1119069e-08
0.00014220798
1.7565439e-07
0.00034257692
3.6490331e-07
0.00075125511
6.4668054e-07
0.0015360036
9.6152904e-07
0.0029404595
1.1799307e-06
0.0052384482
1.1591368e-06
0.0085753853
8.7237324e-07
0.012688416
4.2915541e-07
0.016679728
-1.8682266e-10
0.019202597
-4.2954097e-07
0.019202597
-8.7276445e-07
0.016679727
-1.1594189e-06
0.012688415
-1.1801839e-06
0.0085753848
-9.6166896e-07
0.0052384478
-6.4672838e-07
0.0029404593
-3.6502702e-07
0.0015360035
-1.7575769e-07
0.00075125506
-7.1166003e-08
0.0003425769
-2.2310803e-08
0.00014220798
-3.9369173e-09
4.9720126e-05
1.0124547e-05
4.2970479e-09
1.0120248e-05
2.38303e-08
4.9700591e-05
7.3919886e-08
0.00014215789
1.7524593e-07
0.00034247558
3.4200244e-07
0.00075108832
5.4955826e-07
0.001535796
6.9974993e-07
0.0029403093
6.4663966e-07
0.0052385013
3.5570828e-07
0.0085756763
1.8755838e-08
0.012688753
-1.1037322e-07
0.016679857
-1.854595e-10
0.019202487
1.0996046e-07
0.019202487
-1.9203697e-08
0.016679856
-3.5600077e-07
0.012688752
-6.4686202e-07
0.0085756756
-6.9989283e-07
0.0052385009
-5.4963445e-07
0.002940309
-3.4215959e-07
0.0015357958
-1.7537114e-07
0.00075108826
-7.397354e-08
0.00034247556
-2.3848377e-08
0.00014215788
-4.3022737e-09
4.9700591e-05
1.0120248e-05
4.124834e-09
1.0116119e-05
2.2119509e-08
4.9682597e-05
6.5543694e-08
0.00014211447
1.4431486e-07
0.0003423968
2.4722632e-07
0.00075098538
3.0247142e-07
0.0015357407
1.5080591e-07
0.002940461
-3.5288595e-07
0.0052390051
-1.0362079e-06
0.0085763597
-1.3849482e-06
0.012689102
-9.9641897e-07
0.016679468
-1.6233454e-10
0.019201491
9.9602753e-07
0.01920149
1.3845071e-06
0.016679467
1.0359491e-06
0.012689101
3.5269346e-07
0.0085763589
-1.5094685e-07
0.0052390045
-3.0251337e-07
0.0029404606
-2.4732208e-07
0.0015357405
-1.444003e-07
0.00075098528
-6.5584837e-08
0.00034239676
-2.2138121e-08
0.00014211445
-4.1318388e-09
4.9682594e-05
1.0116119e-05
3.2154183e-09
1.0112897e-05
1.6033088e-08
4.9669779e-05
4.2432377e-08
0.00014208807
7.4222951e-08
0.000342365
6.1118516e-08
0.00075099845
-1.3698476e-07
0.0015359388
-7.5869113e-07
0.0029410827
-1.9140717e-06
0.0052401605
-3.1372167e-06
0.008577583
-3.4618407e-06
0.012689426
-2.2944597e-06
0.016678301
-1.2118928e-10
0.019199196
2.2941422e-06
0.019199196
3.4614766e-06
0.0166783
3.1370261e-06
0.012689425
1.9139021e-06
0.008577582
7.5852105e-07
0.0052401599
1.3690759e-07
0.0029410823
-6.1229935e-08
0.0015359385
-7.4316634e-08
0.00075099833
-4.248166e-08
0.00034236494
-1.6059882e-08
0.00014208805
-3.2265511e-09
4.9669773e-05
1.0112896e-05
1.3908617e-09
1.0111498e-05
4.5890635e-09
4.9666586e-05
1.4840943e-09
0.00014209119
-4.2848805e-08
0.00034240932
-2.3205585e-07
0.00075118761
-7.953813e-07
0.0015365021
-2.0570083e-06
0.0029423444
-4.0782853e-06
0.0052421819
-6.0100866e-06
0.0085795149
-6.2812862e-06
0.012689698
-4.0474051e-06
0.016676067
-9.3009625e-11
0.019195149
4.0471693e-06
0.019195149
6.2810338e-06
0.016676066
6.009999e-06
0.012689696
4.0782133e-06
0.0085795138
2.0568828e-06
0.0052421811
7.9529452e-07
0.0029423439
2.3194406e-07
0.0015365018
4.2760166e-08
0.00075118743
-1.5319026e-09
0.00034240923
-4.6182055e-09
0.00014209115
-1.4035317e-09
4.9666573e-05
1.0111496e-05
-1.4173838e-09
1.0112905e-05
-1.2551339e-08
4.9677729e-05
-5.8170587e-08
0.00014213683
-2.0838546e-07
0.00034255954
-6.3345161e-07
0.00075161266
-1.6660738e-06
0.0015375348
-3.7315418e-06
0.00294441
-6.8314748e-06
0.0052452818
-9.6527595e-06
0.0085823363
-9.8605991e-06
0.012689905
-6.2725285e-06
0.016672479
-7.6170125e-11
0.019188877
6.2723572e-06
0.019188876
9.8604157e-06
0.016672478
9.6527113e-06
0.012689904
6.831501e-06
0.008582335
3.7314907e-06
0.0052452809
1.6660003e-06
0.0029444093
6.333823e-07
0.0015375344
2.0834793e-07
0.00075161242
5.8151346e-08
0.00034255942
1.2530921e-08
0.00014213677
1.4068548e-09
4.967771e-05
1.0112902e-05
-5.1804896e-09
1.0118073e-05
-3.5136077e-08
4.9707695e-05
-1.3538224e-07
0.0001422371
-4.1813211e-07
0.00034284228
-1.1309017e-06
0.00075232539
-2.7239621e-06
0.0015391279
-5.7355798e-06
0.0029474218
-1.0104244e-05
0.0052496505
-1.399517e-05
0.0085862272
-1.4158935e-05
0.012690069
-8.9551717e-06
0.016667275
-6.4054094e-11
0.019179922
8.955053e-06
0.019179921
1.4158815e-05
0.016667274
1.3995135e-05
0.012690068
1.0104332e-05
0.0085862259
5.7355768e-06
0.0052496495
2.7238399e-06
0.0029474211
1.1307743e-06
0.0015391275
4.1806725e-07
0.00075232515
1.3535282e-07
0.00034284216
3.5110283e-08
0.00014223704
5.1683239e-09
4.9707675e-05
1.0118069e-05
-9.7660108e-09
1.0127826e-05
-6.233103e-08
4.9760275e-05
-2.2717637e-07
0.00014240197
-6.6388316e-07
0.00034327899
-1.7045111e-06
0.00075336598
-3.9255011e-06
0.0015413489
-7.9870149e-06
0.0029514834
-1.3771319e-05
0.0052554349
-1.8897143e-05
0.008591353
-1.9070407e-05
0.012690242
-1.2040287e-05
0.016660245
-7.1282345e-11
0.019167881
1.2040179e-05
0.019167881
1.9070345e-05
0.016660244
1.889711e-05
0.012690241
1.3771423e-05
0.0085913516
7.9871121e-06
0.0052554337
3.9255369e-06
0.0029514826
1.7045509e-06
0.0015413484
6.6392565e-07
0.00075336566
2.2719349e-07
0.00034327883
6.2319814e-08
0.0001424019
9.7574642e-09
4.9760248e-05
1.0127821e-05
-1.4934185e-08
1.0142747e-05
-9.269237e-08
4.983805e-05
-3.2862991e-07
0.00014263794
-9.3234851e-07
0.00034388271
-2.3232581e-06
0.00075475684
-5.2063403e-06
0.001544232
-1.0368525e-05
0.0029566458
-1.7652727e-05
0.0052627191
-2.4146243e-05
0.0085978465
-2.4416034e-05
0.012690512
-1.5429044e-05
0.016651258
-7.2024168e-11
0.019152452
1.5428934e-05
0.019152452
2.4416029e-05
0.016651257
2.4146229e-05
0.012690511
1.7652759e-05
0.0085978451
1.0368465e-05
0.005262718
5.2062155e-06
0.002956645
2.323204e-06
0.0015442315
9.3233434e-07
0.00075475656
3.2861442e-07
0.00034388256
9.2667101e-08
0.00014263787
1.4922442e-08
4.9838025e-05
1.0142742e-05
-2.0343033e-08
1.0163076e-05
-1.2422656e-07
4.9941952e-05
-4.3315272e-07
0.0001429469
-1.2063451e-06
0.00034465591
-2.9482698e-06
0.00075649872
-6.4878059e-06
0.0015477715
-1.2737874e-05
0.0029628959
-2.152498e-05
0.0052715062
-2.9455859e-05
0.0086057773
-2.9930297e-05
0.012690987
-1.8979778e-05
0.016640308
-6.8776327e-11
0.019133473
1.8979649e-05
0.019133472
2.9930308e-05
0.016640306
2.9455963e-05
0.012690985
2.1525242e-05
0.0086057757
1.2738054e-05
0.0052715049
6.4878874e-06
0.0029628951
2.9483941e-06
0.001547771
1.2064402e-06
0.00075649837
4.3318485e-07
0.00034465572
1.242183e-07
0.00014294681
2.0336622e-08
4.994192e-05
1.0163069e-05
-2.5645154e-08
1.0188708e-05
-1.5493564e-07
5.0071259e-05
-5.3420825e-07
0.0001433262
-1.468977e-06
0.00034559068
-3.5415841e-06
0.0007585713
-7.6932947e-06
0.0015519233
-1.4955924e-05
0.0029701587
-2.5165316e-05
0.0052817155
-3.4526911e-05
0.0086151388
-3.5321923e-05
0.012691782
-2.2533211e-05
0.016627519
-6.8939129e-11
0.01911094
2.2533051e-05
0.019110939
3.5321823e-05
0.016627517
3.4526872e-05
0.01269178
2.5165476e-05
0.0086151372
1.4955989e-05
0.0052817144
7.6932279e-06
0.0029701579
3.5416029e-06
0.0015519227
1.4690259e-06
0.00075857095
5.342267e-07
0.00034559049
1.5492676e-07
0.00014332611
2.5641638e-08
5.0071225e-05
1.01887e-05
-3.0559421e-08
1.0219255e-05
-1.8319947e-07
5.0223917e-05
-6.2648405e-07
0.00014376951
-1.7064832e-06
0.00034667069
-4.0722583e-06
0.00076093704
-8.7604081e-06
0.0015566114
-1.6909195e-05
0.0029783076
-2.839155e-05
0.0052931979
-3.91177e-05
0.0086258648
-4.0356376e-05
0.012693021
-2.5942524e-05
0.016613105
-5.1464024e-11
0.019084997
2.5942423e-05
0.019084997
4.0356332e-05
0.016613103
3.9117689e-05
0.012693019
2.8391758e-05
0.0086258631
1.690931e-05
0.0052931966
8.7603995e-06
0.0029783067
4.0723564e-06
0.0015566108
1.706594e-06
0.00076093663
6.265346e-07
0.00034667047
1.8320406e-07
0.0001437694
3.0559583e-08
5.0223878e-05
1.0219246e-05
-3.4854186e-08
1.0254099e-05
-2.0768425e-07
5.0396765e-05
-7.0562917e-07
0.00014426748
-1.9077103e-06
0.00034787278
-4.5155846e-06
0.00076354489
-9.6401229e-06
0.0015617359
-1.8509348e-05
0.0029871769
-3.1060416e-05
0.005305749
-4.3032943e-05
0.0086378372
-4.4845715e-05
0.012694833
-2.9075656e-05
0.016597335
-5.6904991e-11
0.019055922
2.9075574e-05
0.019055921
4.4845686e-05
0.016597333
4.3032918e-05
0.012694832
3.1060606e-05
0.0086378355
1.8509425e-05
0.0053057477
9.640068e-06
0.002987176
4.5156656e-06
0.0015617353
1.9078113e-06
0.00076354448
7.0567262e-07
0.00034787255
2.0768721e-07
0.00014426737
3.485452e-08
5.0396723e-05
1.025409e-05
-3.8322259e-08
1.0292413e-05
-2.2721379e-07
5.0585672e-05
-7.6788407e-07
0.00014480818
-2.0632705e-06
0.00034916818
-4.8513402e-06
0.00076633296
-1.0293283e-05
0.0015671778
-1.9686978e-05
0.0029965707
-3.3059262e-05
0.0053191214
-4.6113648e-05
0.0086508915
-4.8613994e-05
0.012697334
-3.1809061e-05
0.01658053
-3.7240694e-11
0.019024113
3.1809023e-05
0.019024112
4.8613965e-05
0.016580528
4.6113576e-05
0.012697332
3.3059408e-05
0.0086508897
1.9687079e-05
0.00531912
1.0293262e-05
0.0029965697
4.8514247e-06
0.0015671772
2.0633627e-06
0.00076633253
7.679235e-07
0.00034916794
2.2721822e-07
0.00014480806
3.832392e-08
5.0585628e-05
1.0292403e-05
-4.078431e-08
1.0333191e-05
-2.4079863e-07
5.07857e-05
-8.1013363e-07
0.00014537753
-2.1654435e-06
0.00035052352
-5.062984e-06
0.00076923051
-1.0687844e-05
0.0015728027
-2.0383842e-05
0.0030062667
-3.4287844e-05
0.0053330255
-4.8199319e-05
0.0086648029
-5.1447369e-05
0.012700582
-3.4027705e-05
0.01656311
3.5817252e-12
0.018990085
3.4027745e-05
0.018990084
5.144739e-05
0.016563109
4.819924e-05
0.01270058
3.4287917e-05
0.0086648011
2.0383923e-05
0.005333024
1.0687859e-05
0.0030062657
5.0630673e-06
0.001572802
2.1655225e-06
0.00076923007
8.1017216e-07
0.00035052327
2.4080894e-07
0.00014537741
4.0789888e-08
5.0785653e-05
1.0333181e-05
-4.2153512e-08
1.0375341e-05
-2.4796447e-07
5.099152e-05
-8.3094539e-07
0.00014596053
-2.2109045e-06
0.0003519035
-5.1437281e-06
0.00077216336
-1.0809976e-05
0.0015784688
-2.0569144e-05
0.0030160258
-3.4677053e-05
0.0053471335
-4.9168135e-05
0.008679294
-5.3168544e-05
0.012704583
-3.5631851e-05
0.016545574
4.1658982e-11
0.018954453
3.5631975e-05
0.018954452
5.3168664e-05
0.016545572
4.9168145e-05
0.012704581
3.4677121e-05
0.0086792921
2.0569223e-05
0.005347132
1.081008e-05
0.0030160248
5.1438621e-06
0.0015784681
2.2109821e-06
0.00077216291
8.3097531e-07
0.00035190324
2.4797321e-07
0.0001459604
4.21594e-08
5.0991473e-05
1.0375331e-05
-4.2399132e-08
1.0417739e-05
-2.4859961e-07
5.1197729e-05
-8.302143e-07
0.00014654215
-2.2002509e-06
0.00035327356
-5.0972377e-06
0.00077506038
-1.0671696e-05
0.0015840433
-2.0268673e-05
0.0030256227
-3.4251475e-05
0.0053611164
-4.8996874e-05
0.0086940394
-5.3707321e-05
0.012709293
-3.650934e-05
0.016528376
6.9442066e-11
0.018917943
3.650952e-05
0.018917943
5.3707508e-05
0.016528374
4.8996992e-05
0.012709291
3.4251557e-05
0.0086940375
2.0268727e-05
0.0053611149
1.067185e-05
0.0030256217
5.097424e-06
0.0015840426
2.2003398e-06
0.00077505993
8.3023784e-07
0.0003532733
2.4860421e-07
0.00014654202
4.2402988e-08
5.1197679e-05
1.0417728e-05
-4.1560844e-08
1.04593e-05
-2.4302186e-07
5.1399196e-05
-8.0926434e-07
0.00014710841
-2.1377448e-06
0.00035460207
-4.9353805e-06
0.00077785807
-1.0302322e-05
0.0015894102
-1.9544654e-05
0.003034865
-3.3113371e-05
0.0053746851
-4.7766262e-05
0.0087086924
-5.3083153e-05
0.01271461
-3.657625e-05
0.016511869
1.0439211e-10
0.018881367
3.6576479e-05
0.018881366
5.3083392e-05
0.016511867
4.7766476e-05
0.012714608
3.3113552e-05
0.0087086904
1.9544766e-05
0.0053746837
1.0302504e-05
0.0030348639
4.9355781e-06
0.0015894095
2.1378414e-06
0.00077785761
8.0929386e-07
0.0003546018
2.4303098e-07
0.00014710827
4.1566054e-08
5.1399144e-05
1.0459289e-05
-3.9803085e-08
1.0499106e-05
-2.3220999e-07
5.1591607e-05
-7.7140383e-07
0.00014764761
-2.0321944e-06
0.00035586289
-4.6783341e-06
0.00078050428
-9.7426923e-06
0.0015944745
-1.8470961e-05
0.0030435932
-3.1384477e-05
0.0053875988
-4.5640973e-05
0.0087229489
-5.1415491e-05
0.012720385
-3.5883285e-05
0.016496337
1.2126727e-10
0.018845484
3.5883524e-05
0.018845483
5.1415746e-05
0.016496335
4.5641237e-05
0.012720383
3.1384763e-05
0.0087229469
1.8471167e-05
0.0053875972
9.742913e-06
0.0030435921
4.6785164e-06
0.0015944738
2.0322735e-06
0.0007805038
7.7142967e-07
0.00035586261
2.322215e-07
0.00014764747
3.9809753e-08
5.1591553e-05
1.0499093e-05
-3.7336663e-08
1.0536446e-05
-2.1739142e-07
5.1771665e-05
-7.2069256e-07
0.00014815092
-1.8942094e-06
0.00035703644
-4.3501895e-06
0.00078296031
-9.0417724e-06
0.0015991661
-1.7136449e-05
0.0030516878
-2.9204628e-05
0.0053996671
-4.2814762e-05
0.0087365591
-4.8878474e-05
0.012726448
-3.4547138e-05
0.016482006
9.9742596e-11
0.018810936
3.4547347e-05
0.018810936
4.8878726e-05
0.016482004
4.2815051e-05
0.012726446
2.9204852e-05
0.0087365571
1.7136588e-05
0.0053996656
9.0419995e-06
0.0030516867
4.3504005e-06
0.0015991654
1.8943093e-06
0.00078295984
7.2072877e-07
0.00035703616
2.1740722e-07
0.00014815078
3.7343439e-08
5.1771611e-05
1.0536434e-05
-3.4400682e-08
1.0570851e-05
-1.9994584e-07
5.1937214e-05
-6.6163132e-07
0.00014861262
-1.7353289e-06
0.00035811018
-3.9766181e-06
0.00078520168
-8.2510894e-06
0.0016034405
-1.5635317e-05
0.0030590718
-2.6727713e-05
0.0054107595
-3.9497257e-05
0.0087493288
-4.569184e-05
0.012732643
-3.2706848e-05
0.016469021
6.4389016e-11
0.018778229
3.2707035e-05
0.018778229
4.569211e-05
0.016469019
3.9497541e-05
0.012732641
2.6727889e-05
0.0087493268
1.5635425e-05
0.005410758
8.2513045e-06
0.0030590708
3.9768152e-06
0.0016034398
1.7354184e-06
0.00078520122
6.616609e-07
0.00035810991
1.9995807e-07
0.00014861248
3.4404988e-08
5.1937161e-05
1.057084e-05
-3.1176433e-08
1.0602033e-05
-1.8090774e-07
5.2086946e-05
-5.9763459e-07
0.00014902935
-1.5645877e-06
0.00035907717
-3.5785387e-06
0.00078721571
-7.4140177e-06
0.001607276
-1.4047859e-05
0.0030657055
-2.4083426e-05
0.0054207951
-3.585631e-05
0.0087611018
-4.1982737e-05
0.01273877
-3.042671e-05
0.016457464
1.1942741e-11
0.018747802
3.0426819e-05
0.018747802
4.1982974e-05
0.016457462
3.5856579e-05
0.012738767
2.4083642e-05
0.0087610998
1.4048043e-05
0.0054207936
7.41425e-06
0.0030657045
3.5787117e-06
0.0016072754
1.5646613e-06
0.00078721526
5.9765885e-07
0.00035907691
1.8091854e-07
0.00014902922
3.1180015e-08
5.2086895e-05
1.0602021e-05
-2.7886648e-08
1.0629924e-05
-1.615773e-07
5.2220637e-05
-5.3288352e-07
0.00014940066
-1.3923201e-06
0.00035993664
-3.1779024e-06
0.00078900136
-6.5732123e-06
0.0016106714
-1.2453233e-05
0.0030715854
-2.1413139e-05
0.005429755
-3.2126872e-05
0.0087718156
-3.8083858e-05
0.012744727
-2.7948675e-05
0.016447329
-1.5642439e-11
0.018719854
2.7948733e-05
0.018719853
3.8084052e-05
0.016447327
3.2127143e-05
0.012744724
2.1413325e-05
0.0087718136
1.2453411e-05
0.0054297536
6.573444e-06
0.0030715844
3.1780578e-06
0.0016106707
1.3923845e-06
0.00078900092
5.3290838e-07
0.00035993638
1.6159049e-07
0.00014940053
2.7891419e-08
5.2220586e-05
1.0629913e-05
-2.4510454e-08
1.0654441e-05
-1.4179483e-07
5.2337923e-05
-4.6704518e-07
0.00014972592
-1.2188717e-06
0.0003606885
-2.7789175e-06
0.00079056148
-5.7429371e-06
0.0016136354
-1.0880904e-05
0.0030767233
-1.875411e-05
0.0054376282
-2.8314184e-05
0.0087813757
-3.3905145e-05
0.012750317
-2.5167418e-05
0.016438592
-1.2933706e-12
0.018694686
2.5167474e-05
0.018694686
3.3905252e-05
0.016438589
2.8314349e-05
0.012750315
1.8754178e-05
0.0087813737
1.0881025e-05
0.0054376268
5.743178e-06
0.0030767223
2.7790925e-06
0.0016136348
1.2189495e-06
0.00079056106
4.6707732e-07
0.00036068825
1.4181083e-07
0.00014972579
2.4515366e-08
5.2337875e-05
1.065443e-05
-2.1513139e-08
1.0675959e-05
-1.2432406e-07
5.2440734e-05