/*--------------------------------*- C++ -*----------------------------------*\
| =========                 |                                                 |
| \\      /  F ield         | OpenFOAM: The Open Source CFD Toolbox           |
|  \\    /   O peration     | Version:  2406                                  |
|   \\  /    A nd           | Website:  www.openfoam.com                      |
|    \\/     M anipulation  |                                                 |
\*---------------------------------------------------------------------------*/
FoamFile
{
    version     2.0;
    format      ascii;
    arch        "LSB;label=32;scalar=64";
    class       volVectorField;
    location    "3";
    object      U;
}
// * * * * * * * * * * * * * * * * * * * * * * * * * * * * * * * * * * * * * //

dimensions      [0 1 -1 0 0 0 0];

internalField   nonuniform List<vector> 
1176
(
(0.019493789 7.0787325e-07 0)
(0.066677318 8.1697244e-06 0)
(0.13357994 3.9503364e-05 0)
(0.227247 0.00010873626 0)
(0.35591522 0.0002117612 0)
(0.52772023 0.00030396437 0)
(0.74780387 0.00031818231 0)
(1.0136216 0.00024904855 0)
(1.3093323 0.00016667332 0)
(1.6017081 0.00011265075 0)
(1.8421723 7.0217977e-05 0)
(1.9793239 2.3943928e-05 0)
(1.9793239 -2.3938983e-05 0)
(1.8421723 -7.0214375e-05 0)
(1.6017081 -0.0001126492 0)
(1.3093323 -0.00016667353 0)
(1.0136216 -0.00024904923 0)
(0.74780387 -0.00031818229 0)
(0.52772023 -0.00030396362 0)
(0.35591522 -0.00021176035 0)
(0.227247 -0.00010873575 0)
(0.13357994 -3.9503047e-05 0)
(0.066677318 -8.1698339e-06 0)
(0.019493789 -7.078301e-07 0)
(0.020187016 -3.7419131e-06 0)
(0.06881353 -2.4638597e-05 0)
(0.13732107 -9.6548458e-05 0)
(0.2324739 -0.0002483944 0)
(0.36204617 -0.00047268749 0)
(0.53373556 -0.00067421125 0)
(0.75267407 -0.00069486816 0)
(1.0170176 -0.00049687173 0)
(1.3116385 -0.00023345718 0)
(1.6034438 -4.9822556e-05 0)
(1.8436588 1.9766117e-05 0)
(1.9807026 1.3428639e-05 0)
(1.9807026 -1.3427406e-05 0)
(1.8436588 -1.976528e-05 0)
(1.6034438 4.982318e-05 0)
(1.3116385 0.00023345811 0)
(1.0170176 0.00049687303 0)
(0.75267407 0.0006948691 0)
(0.53373556 0.00067421172 0)
(0.36204617 0.00047268782 0)
(0.23247391 0.00024839465 0)
(0.13732107 9.6548558e-05 0)
(0.068813532 2.4638699e-05 0)
(0.020187017 3.7419142e-06 0)
(0.020018441 2.0918378e-06 0)
(0.068327402 1.272081e-05 0)
(0.13655404 4.6877345e-05 0)
(0.23159544 0.00011389766 0)
(0.36138708 0.00019769328 0)
(0.53366968 0.00023903338 0)
(0.75344343 0.00020560006 0)
(1.0184881 0.00011361601 0)
(1.3134639 7.4317968e-05 0)
(1.6053464 7.9535145e-05 0)
(1.8455118 7.0517407e-05 0)
(1.9825245 2.7826993e-05 0)
(1.9825245 -2.7823027e-05 0)
(1.8455118 -7.0513789e-05 0)
(1.6053464 -7.9531941e-05 0)
(1.3134639 -7.4315257e-05 0)
(1.0184881 -0.00011361419 0)
(0.75344343 -0.0002055999 0)
(0.53366969 -0.00023903361 0)
(0.36138709 -0.00019769356 0)
(0.23159544 -0.00011389779 0)
(0.13655405 -4.6877369e-05 0)
(0.068327407 -1.2720849e-05 0)
(0.020018442 -2.0918424e-06 0)
(0.019966546 7.0077363e-07 0)
(0.068159227 4.6871504e-06 0)
(0.1362402 1.9355774e-05 0)
(0.23111939 5.6457168e-05 0)
(0.36078091 0.00013444805 0)
(0.53306291 0.00025829825 0)
(0.75295635 0.0003534558 0)
(1.0181104 0.00036912949 0)
(1.313184 0.00030759708 0)
(1.6051633 0.00022777547 0)
(1.8453995 0.00014556048 0)
(1.9824491 4.9998834e-05 0)
(1.9824491 -4.9993874e-05 0)
(1.8453995 -0.00014555523 0)
(1.6051633 -0.00022776981 0)
(1.313184 -0.0003075914 0)
(1.0181104 -0.00036912547 0)
(0.75295635 -0.00035345291 0)
(0.53306291 -0.00025829709 0)
(0.36078092 -0.00013444793 0)
(0.23111939 -5.6457294e-05 0)
(0.1362402 -1.9355935e-05 0)
(0.068159231 -4.6870797e-06 0)
(0.019966547 -7.007912e-07 0)
(0.019942201 2.9076894e-07 0)
(0.068078695 1.98727e-06 0)
(0.13608627 8.2362513e-06 0)
(0.23087697 2.3699766e-05 0)
(0.36044742 5.6882602e-05 0)
(0.53266446 0.00012307076 0)
(0.75256875 0.00022682126 0)
(1.0178079 0.00032272454 0)
(1.3129044 0.00034571823 0)
(1.604912 0.00030728906 0)
(1.8452029 0.0002109436 0)
(1.9822898 7.4611526e-05 0)
(1.9822897 -7.4609413e-05 0)
(1.8452029 -0.00021094065 0)
(1.604912 -0.00030728513 0)
(1.3129044 -0.00034571453 0)
(1.017808 -0.00032272268 0)
(0.75256876 -0.00022682072 0)
(0.53266447 -0.00012307065 0)
(0.36044743 -5.6882746e-05 0)
(0.23087698 -2.3700014e-05 0)
(0.13608628 -8.2364917e-06 0)
(0.0680787 -1.9872686e-06 0)
(0.019942203 -2.908034e-07 0)
(0.01993313 1.7180028e-07 0)
(0.068047749 1.194056e-06 0)
(0.13602487 5.064959e-06 0)
(0.23077533 1.4968258e-05 0)
(0.36029896 3.6218067e-05 0)
(0.53247918 7.694081e-05 0)
(0.75239426 0.0001471299 0)
(1.0177222 0.00023747463 0)
(1.3129293 0.00028523045 0)
(1.6049747 0.00027439367 0)
(1.8452865 0.00019643659 0)
(1.9823834 7.1173958e-05 0)
(1.9823834 -7.1173324e-05 0)
(1.8452865 -0.0001964345 0)
(1.6049747 -0.0002743897 0)
(1.3129293 -0.00028522552 0)
(1.0177222 -0.00023747175 0)
(0.75239427 -0.00014712893 0)
(0.53247919 -7.694074e-05 0)
(0.36029897 -3.6218131e-05 0)
(0.23077534 -1.4968252e-05 0)
(0.13602488 -5.0650509e-06 0)
(0.068047751 -1.1938833e-06 0)
(0.01993313 -1.7181693e-07 0)
(0.019923399 1.5586952e-07 0)
(0.068015503 1.0701093e-06 0)
(0.13596285 4.4934283e-06 0)
(0.23067606 1.3195365e-05 0)
(0.36015773 3.1856503e-05 0)
(0.53230178 6.6955465e-05 0)
(0.75221431 0.00012411006 0)
(1.0176106 0.00019915076 0)
(1.3129358 0.0002548781 0)
(1.6050903 0.00024593275 0)
(1.8454578 0.00018125708 0)
(1.9825798 6.6539119e-05 0)
(1.9825798 -6.6542709e-05 0)
(1.8454578 -0.00018125906 0)
(1.6050903 -0.00024593327 0)
(1.3129358 -0.00025487743 0)
(1.0176106 -0.0001991497 0)
(0.75221432 -0.00012410953 0)
(0.53230179 -6.6955266e-05 0)
(0.36015773 -3.1856234e-05 0)
(0.23067606 -1.3194961e-05 0)
(0.13596285 -4.4931879e-06 0)
(0.068015504 -1.0698594e-06 0)
(0.019923399 -1.5585009e-07 0)
(0.019915695 1.275958e-07 0)
(0.067989788 8.7812772e-07 0)
(0.13591292 3.6961869e-06 0)
(0.23059502 1.0901859e-05 0)
(0.36003987 2.6612619e-05 0)
(0.53214755 5.7231661e-05 0)
(0.75204137 0.00010909252 0)
(1.0174723 0.00017933054 0)
(1.3128927 0.00023797576 0)
(1.6051414 0.00023738231 0)
(1.8455876 0.00017744255 0)
(1.9827513 6.5511069e-05 0)
(1.9827513 -6.5519149e-05 0)
(1.8455876 -0.00017744827 0)
(1.6051414 -0.00023738545 0)
(1.3128927 -0.00023797756 0)
(1.0174723 -0.00017933152 0)
(0.75204137 -0.00010909284 0)
(0.53214755 -5.723169e-05 0)
(0.36003987 -2.661294e-05 0)
(0.23059502 -1.0902171e-05 0)
(0.13591292 -3.6963907e-06 0)
(0.067989787 -8.780653e-07 0)
(0.019915695 -1.2761407e-07 0)
(0.019909215 1.0467788e-07 0)
(0.067968137 7.232676e-07 0)
(0.13587083 3.052069e-06 0)
(0.23052655 9.0107413e-06 0)
(0.35993987 2.1993721e-05 0)
(0.53201549 4.7451862e-05 0)
(0.75188912 9.1960171e-05 0)
(1.0173343 0.00015608502 0)
(1.3128279 0.00021687074 0)
(1.6051596 0.00022696411 0)
(1.8456699 0.00017223001 0)
(1.9828679 6.410795e-05 0)
(1.9828679 -6.4120267e-05 0)
(1.8456698 -0.00017223971 0)
(1.6051595 -0.00022696949 0)
(1.3128278 -0.00021687316 0)
(1.0173343 -0.00015608568 0)
(0.75188912 -9.1958874e-05 0)
(0.53201548 -4.7449066e-05 0)
(0.35993987 -2.1991772e-05 0)
(0.23052654 -9.0101919e-06 0)
(0.13587083 -3.0521402e-06 0)
(0.067968134 -7.2324026e-07 0)
(0.019909214 -1.0471891e-07 0)
(0.019903969 8.6105545e-08 0)
(0.06795055 5.9675516e-07 0)
(0.1358365 2.5250655e-06 0)
(0.23047034 7.482634e-06 0)
(0.35985701 1.8347618e-05 0)
(0.53190453 3.976178e-05 0)
(0.7517586 7.7564215e-05 0)
(1.0172124 0.00013410884 0)
(1.3127615 0.00019301097 0)
(1.6051771 0.00021043562 0)
(1.8457531 0.00016261166 0)
(1.9829861 6.103878e-05 0)
(1.9829861 -6.1053846e-05 0)
(1.8457531 -0.0001626256 0)
(1.605177 -0.00021044634 0)
(1.3127614 -0.00019301555 0)
(1.0172124 -0.00013411037 0)
(0.75175859 -7.7564228e-05 0)
(0.53190452 -3.9759501e-05 0)
(0.359857 -1.834467e-05 0)
(0.23047033 -7.4809481e-06 0)
(0.13583649 -2.5245278e-06 0)
(0.067950545 -5.9646425e-07 0)
(0.019903968 -8.6089802e-08 0)
(0.019899548 7.3000936e-08 0)
(0.067935715 5.0649748e-07 0)
(0.1358075 2.1436551e-06 0)
(0.23042276 6.3611724e-06 0)
(0.35978658 1.5639377e-05 0)
(0.53180937 3.4042909e-05 0)
(0.75164461 6.6795778e-05 0)
(1.0171024 0.00011671047 0)
(1.3126976 0.00017220101 0)
(1.6051927 0.00019278968 0)
(1.8458369 0.00015205655 0)
(1.9831059 5.7494017e-05 0)
(1.9831059 -5.7510217e-05 0)
(1.8458369 -0.00015207294 0)
(1.6051926 -0.00019280372 0)
(1.3126976 -0.0001722095 0)
(1.0171024 -0.00011671447 0)
(0.75164459 -6.6798611e-05 0)
(0.53180935 -3.4043877e-05 0)
(0.35978657 -1.5638154e-05 0)
(0.23042275 -6.3598261e-06 0)
(0.13580749 -2.142961e-06 0)
(0.067935709 -5.0623263e-07 0)
(0.019899546 -7.295377e-08 0)
(0.019895766 6.2407955e-08 0)
(0.067923019 4.3377287e-07 0)
(0.13578265 1.8364477e-06 0)
(0.2303819 5.4588181e-06 0)
(0.35972584 1.3459059e-05 0)
(0.53172661 2.9445442e-05 0)
(0.75154379 5.8228536e-05 0)
(1.0170016 0.00010283838 0)
(1.3126341 0.00015463128 0)
(1.6052011 0.00017794478 0)
(1.8459122 0.00014273686 0)
(1.9832182 5.4353548e-05 0)
(1.9832182 -5.4371686e-05 0)
(1.8459122 -0.00014275476 0)
(1.6052011 -0.00017796044 0)
(1.3126341 -0.00015464285 0)
(1.0170015 -0.00010284456 0)
(0.75154376 -5.823328e-05 0)
(0.53172658 -2.944915e-05 0)
(0.35972581 -1.3460333e-05 0)
(0.23038188 -5.4588999e-06 0)
(0.13578263 -1.8363853e-06 0)
(0.067923011 -4.3380313e-07 0)
(0.019895763 -6.240407e-08 0)
(0.019892529 5.311102e-08 0)
(0.067912133 3.7042841e-07 0)
(0.13576129 1.5720931e-06 0)
(0.23034666 4.6897057e-06 0)
(0.35967312 1.1622308e-05 0)
(0.53165411 2.5615958e-05 0)
(0.75145408 5.1163941e-05 0)
(1.0169092 9.1481151e-05 0)
(1.3125719 0.00013987009 0)
(1.6052039 0.00016493542 0)
(1.8459791 0.00013481218 0)
(1.9833221 5.1739807e-05 0)
(1.9833221 -5.1761178e-05 0)
(1.8459791 -0.00013483222 0)
(1.6052038 -0.00016495322 0)
(1.3125718 -0.00013988302 0)
(1.0169092 -9.1487152e-05 0)
(0.75145404 -5.1167971e-05 0)
(0.53165407 -2.5619755e-05 0)
(0.35967309 -1.1623912e-05 0)
(0.23034664 -4.6900183e-06 0)
(0.13576128 -1.5721397e-06 0)
(0.067912123 -3.7061468e-07 0)
(0.019892525 -5.3131768e-08 0)
(0.019889772 4.506365e-08 0)
(0.067902825 3.1615208e-07 0)
(0.13574294 1.352189e-06 0)
(0.23031614 4.0625246e-06 0)
(0.35962698 1.0166054e-05 0)
(0.5315898 2.2674326e-05 0)
(0.75137317 4.5875251e-05 0)
(1.0168239 8.3057501e-05 0)
(1.3125114 0.00012869575 0)
(1.6052024 0.00015524704 0)
(1.8460406 0.00012869273 0)
(1.9834209 4.9803421e-05 0)
(1.9834209 -4.9827889e-05 0)
(1.8460406 -0.00012871512 0)
(1.6052024 -0.00015526783 0)
(1.3125113 -0.00012871088 0)
(1.0168239 -8.3063579e-05 0)
(0.75137312 -4.5878936e-05 0)
(0.53158976 -2.2679695e-05 0)
(0.35962695 -1.0169315e-05 0)
(0.23031611 -4.0635448e-06 0)
(0.13574292 -1.3523623e-06 0)
(0.067902815 -3.163624e-07 0)
(0.019889769 -4.5064085e-08 0)
(0.019887402 3.9102552e-08 0)
(0.067894758 2.7642872e-07 0)
(0.13572687 1.2018036e-06 0)
(0.23028906 3.6495501e-06 0)
(0.35958544 9.2594574e-06 0)
(0.53153093 2.0956282e-05 0)
(0.75129791 4.293846e-05 0)
(1.0167432 7.8396975e-05 0)
(1.3124522 0.00012219397 0)
(1.6051988 0.00014970892 0)
(1.8460988 0.00012500601 0)
(1.9835165 4.870283e-05 0)
(1.9835165 -4.8730389e-05 0)
(1.8460988 -0.00012503033 0)
(1.6051988 -0.00014973057 0)
(1.3124521 -0.00012221189 0)
(1.0167432 -7.8404197e-05 0)
(0.75129786 -4.2940758e-05 0)
(0.53153089 -2.0961388e-05 0)
(0.3595854 -9.2634489e-06 0)
(0.23028904 -3.6509618e-06 0)
(0.13572685 -1.2020135e-06 0)
(0.06789475 -2.7665243e-07 0)
(0.019887399 -3.9072293e-08 0)
(0.019885258 3.6754951e-08 0)
(0.067887371 2.6093796e-07 0)
(0.13571196 1.1611375e-06 0)
(0.23026355 3.56101e-06 0)
(0.35954568 9.1432711e-06 0)
(0.5314739 2.0893514e-05 0)
(0.75122458 4.2976637e-05 0)
(1.0166645 7.8180895e-05 0)
(1.3123937 0.00012105475 0)
(1.6051938 0.00014807367 0)
(1.8461555 0.00012415011 0)
(1.9836107 4.8462727e-05 0)
(1.9836107 -4.8492914e-05 0)
(1.8461555 -0.00012417544 0)
(1.6051938 -0.00014809447 0)
(1.3123937 -0.00012107388 0)
(1.0166644 -7.8190468e-05 0)
(0.75122454 -4.2979564e-05 0)
(0.53147387 -2.0898816e-05 0)
(0.35954565 -9.1477911e-06 0)
(0.23026354 -3.562743e-06 0)
(0.13571195 -1.1613941e-06 0)
(0.067887366 -2.6126037e-07 0)
(0.019885257 -3.6712686e-08 0)
(0.019883089 3.9858666e-08 0)
(0.067879818 2.8158729e-07 0)
(0.13569657 1.2763107e-06 0)
(0.23023703 3.9219669e-06 0)
(0.35950417 1.0086044e-05 0)
(0.53141458 2.2966139e-05 0)
(0.75114932 4.6698465e-05 0)
(1.0165854 8.320669e-05 0)
(1.3123361 0.00012577264 0)
(1.6051894 0.00015090544 0)
(1.8462125 0.00012617789 0)
(1.9837049 4.9265167e-05 0)
(1.9837049 -4.9295588e-05 0)
(1.8462125 -0.00012620293 0)
(1.6051893 -0.00015092539 0)
(1.3123361 -0.00012578943 0)
(1.0165853 -8.3214356e-05 0)
(0.75114929 -4.6700712e-05 0)
(0.53141456 -2.2972509e-05 0)
(0.35950416 -1.0092011e-05 0)
(0.23023702 -3.9242611e-06 0)
(0.13569657 -1.2765298e-06 0)
(0.067879818 -2.8191658e-07 0)
(0.019883089 -3.9787955e-08 0)
(0.019880545 4.9707611e-08 0)
(0.067870957 3.4675038e-07 0)
(0.13567855 1.5755109e-06 0)
(0.23020613 4.802203e-06 0)
(0.35945641 1.2212197e-05 0)
(0.53134779 2.7327332e-05 0)
(0.75106749 5.4184128e-05 0)
(1.0165035 9.3363276e-05 0)
(1.3122804 0.00013549222 0)
(1.6051879 0.00015711367 0)
(1.8462713 0.00013022341 0)
(1.9838013 5.1032568e-05 0)
(1.9838013 -5.1061658e-05 0)
(1.8462712 -0.00013024827 0)
(1.6051879 -0.00015713472 0)
(1.3122803 -0.00013550958 0)
(1.0165035 -9.3370065e-05 0)
(0.75106747 -5.4185904e-05 0)
(0.53134779 -2.7335307e-05 0)
(0.35945641 -1.2220729e-05 0)
(0.23020613 -4.8059781e-06 0)
(0.13567855 -1.5761974e-06 0)
(0.06787096 -3.4722864e-07 0)
(0.019880547 -4.9637639e-08 0)
(0.019877248 6.6556823e-08 0)
(0.067859572 4.5743325e-07 0)
(0.13565567 2.052836e-06 0)
(0.2301676 6.1674326e-06 0)
(0.35939832 1.5381131e-05 0)
(0.53126934 3.3522537e-05 0)
(0.7509759 6.4263097e-05 0)
(1.0164177 0.00010630883 0)
(1.3122291 0.00014655222 0)
(1.6051915 0.00016292713 0)
(1.8463329 0.00013275568 0)
(1.9839018 5.172696e-05 0)
(1.9839018 -5.1755248e-05 0)
(1.8463329 -0.00013278113 0)
(1.6051915 -0.00016294981 0)
(1.312229 -0.00014657224 0)
(1.0164177 -0.00010631747 0)
(0.75097588 -6.4264907e-05 0)
(0.53126934 -3.3531574e-05 0)
(0.35939832 -1.5392616e-05 0)
(0.2301676 -6.1732162e-06 0)
(0.13565568 -2.0542491e-06 0)
(0.067859576 -4.5813224e-07 0)
(0.01987725 -6.6518746e-08 0)
(0.019872857 8.9457877e-08 0)
(0.067844618 6.0627966e-07 0)
(0.13562613 2.6662435e-06 0)
(0.23011902 7.8719956e-06 0)
(0.35932739 1.9164905e-05 0)
(0.53117757 4.0453196e-05 0)
(0.75087477 7.4449486e-05 0)
(1.0163314 0.000117075 0)
(1.3121858 0.00015316334 0)
(1.6052026 0.00016213343 0)
(1.8463977 0.00012747524 0)
(1.9840017 4.7483926e-05 0)
(1.9840017 -4.7513679e-05 0)
(1.8463976 -0.00012750309 0)
(1.6052025 -0.00016215924 0)
(1.3121857 -0.00015318794 0)
(1.0163314 -0.00011708987 0)
(0.75087475 -7.4453807e-05 0)
(0.53117756 -4.0462123e-05 0)
(0.35932739 -1.9177543e-05 0)
(0.23011902 -7.8793604e-06 0)
(0.13562614 -2.6684626e-06 0)
(0.067844621 -6.0734867e-07 0)
(0.019872859 -8.9470318e-08 0)
(0.019867123 1.1652557e-07 0)
(0.067825403 7.7983141e-07 0)
(0.13558895 3.3402745e-06 0)
(0.23005955 9.6670738e-06 0)
(0.35924383 2.2863357e-05 0)
(0.53107488 4.6397411e-05 0)
(0.75076973 8.094656e-05 0)
(1.0162522 0.00011946459 0)
(1.3121529 0.0001476436 0)
(1.6052237 0.00014630177 0)
(1.8464636 0.0001077092 0)
(1.9840896 3.6527216e-05 0)
(1.9840896 -3.6560975e-05 0)
(1.8464635 -0.00010774122 0)
(1.6052236 -0.00014633031 0)
(1.3121528 -0.00014766995 0)
(1.0162522 -0.00011948337 0)
(0.7507697 -8.0954245e-05 0)
(0.53107487 -4.6406323e-05 0)
(0.35924382 -2.2875217e-05 0)
(0.23005954 -9.6743262e-06 0)
(0.13558895 -3.3427471e-06 0)
(0.067825405 -7.8110274e-07 0)
(0.019867124 -1.1657374e-07 0)
(0.019859954 1.4323541e-07 0)
(0.067801843 9.4720144e-07 0)
(0.13554445 3.924293e-06 0)
(0.22999081 1.1091998e-05 0)
(0.35915187 2.5302079e-05 0)
(0.53096985 4.8676303e-05 0)
(0.75067411 7.87253e-05 0)
(1.0161915 0.00010702758 0)
(1.3121383 0.00011808541 0)
(1.6052551 0.00010382171 0)
(1.8465232 6.6653317e-05 0)
(1.9841515 2.0941927e-05 0)
(1.9841515 -2.0979071e-05 0)
(1.8465231 -6.6691359e-05 0)
(1.605255 -0.00010385503 0)
(1.3121383 -0.00011811245 0)
(1.0161915 -0.00010704591 0)
(0.75067406 -7.8733843e-05 0)
(0.53096981 -4.8685761e-05 0)
(0.35915184 -2.5313763e-05 0)
(0.2299908 -1.1098811e-05 0)
(0.13554445 -3.9265487e-06 0)
(0.067801843 -9.4851333e-07 0)
(0.019859954 -1.4327622e-07 0)
(0.019851666 1.617076e-07 0)
(0.067775235 1.0529695e-06 0)
(0.1354957 4.1826428e-06 0)
(0.22991885 1.1449753e-05 0)
(0.35906223 2.4756531e-05 0)
(0.53087898 4.3756281e-05 0)
(0.75060791 6.3284738e-05 0)
(1.0161661 6.7585875e-05 0)
(1.3121573 4.9697065e-05 0)
(1.6052951 1.8853961e-05 0)
(1.8465601 -5.6497096e-06 0)
(1.9841766 -4.5533622e-06 0)
(1.9841766 4.5160308e-06 0)
(1.84656 5.606708e-06 0)
(1.605295 -1.8891368e-05 0)
(1.3121572 -4.9722163e-05 0)
(1.016166 -6.7602097e-05 0)
(0.75060784 -6.3294612e-05 0)
(0.53087894 -4.3768803e-05 0)
(0.3590622 -2.4771092e-05 0)
(0.22991883 -1.1458039e-05 0)
(0.1354957 -4.185362e-06 0)
(0.067775236 -1.0543335e-06 0)
(0.019851666 -1.6179246e-07 0)
(0.019843076 1.6301683e-07 0)
(0.067748525 1.0355365e-06 0)
(0.13544887 3.8598759e-06 0)
(0.22985454 1.0002064e-05 0)
(0.35899202 1.9603449e-05 0)
(0.53082597 2.9499507e-05 0)
(0.75059663 2.5910398e-05 0)
(1.0162106 -8.835625e-06 0)
(1.3122265 -7.30798e-05 0)
(1.6053393 -0.00012567498 0)
(1.8465521 -0.00012312739 0)
(1.9841297 -5.0369568e-05 0)
(1.9841297 5.0335807e-05 0)
(1.846552 0.0001230848 0)
(1.6053392 0.00012563883 0)
(1.3122263 7.3058141e-05 0)
(1.0162105 8.8203526e-06 0)
(0.75059654 -2.5918864e-05 0)
(0.53082591 -2.9506785e-05 0)
(0.35899199 -1.9612934e-05 0)
(0.22985452 -1.0008021e-05 0)
(0.13544886 -3.862236e-06 0)
(0.067748523 -1.0369658e-06 0)
(0.019843076 -1.6312403e-07 0)
(0.01983546 1.376333e-07 0)
(0.067726134 8.4521224e-07 0)
(0.13541288 2.7482607e-06 0)
(0.22981301 6.2528244e-06 0)
(0.35896378 8.9609073e-06 0)
(0.5308405 1.3392165e-06 0)
(0.75068482 -3.7383919e-05 0)
(1.0163616 -0.00013065189 0)
(1.3123664 -0.0002609499 0)
(1.6053832 -0.0003423874 0)
(1.8464736 -0.00029694834 0)
(1.9839705 -0.00011731579 0)
(1.9839705 0.00011728931 0)
(1.8464735 0.00029691252 0)
(1.605383 0.00034235865 0)
(1.3123662 0.00026093319 0)
(1.0163615 0.00013063633 0)
(0.7506847 3.737215e-05 0)
(0.53084042 -1.349287e-06 0)
(0.35896373 -8.9715713e-06 0)
(0.22981297 -6.259665e-06 0)
(0.13541286 -2.7514179e-06 0)
(0.067726128 -8.4725526e-07 0)
(0.019835459 -1.3780519e-07 0)
(0.019830453 8.0769359e-08 0)
(0.067713615 4.3772505e-07 0)
(0.13539864 7.1541311e-07 0)
(0.22981198 -2.7828931e-07 0)
(0.35900464 -8.8897836e-06 0)
(0.53096321 -4.1488424e-05 0)
(0.75091497 -0.00012929414 0)
(1.0166598 -0.00030095263 0)
(1.3126016 -0.00051889203 0)
(1.6054221 -0.00063839622 0)
(1.8462939 -0.00053345982 0)
(1.9836555 -0.00020772752 0)
(1.9836554 0.00020770714 0)
(1.8462938 0.000533433 0)
(1.6054219 0.00063837854 0)
(1.3126014 0.00051888573 0)
(1.0166597 0.00030094405 0)
(0.75091484 0.00012928423 0)
(0.53096312 4.1478212e-05 0)
(0.35900458 8.8793164e-06 0)
(0.22981194 2.7150158e-07 0)
(0.13539862 -7.1893196e-07 0)
(0.067713605 -4.3983763e-07 0)
(0.01983045 -8.1045811e-08 0)
(0.01982999 -8.8892674e-09 0)
(0.067717477 -2.0279707e-07 0)
(0.13541892 -2.3303445e-06 0)
(0.22987273 -9.7720464e-06 0)
(0.35914517 -3.3762148e-05 0)
(0.53123104 -9.9175196e-05 0)
(0.75133053 -0.00024898992 0)
(1.0171476 -0.00051802695 0)
(1.3129592 -0.00084579971 0)
(1.6054532 -0.0010150372 0)
(1.8459803 -0.00083504504 0)
(1.9831354 -0.00032272411 0)
(1.9831353 0.00032270778 0)
(1.8459802 0.00083502455 0)
(1.6054531 0.0010150252 0)
(1.3129591 0.00084580044 0)
(1.0171474 0.00051802636 0)
(0.75133037 0.00024898365 0)
(0.5312309 9.9167992e-05 0)
(0.35914506 3.3756946e-05 0)
(0.22987266 9.7692e-06 0)
(0.13541888 2.3283304e-06 0)
(0.067717453 2.0122827e-07 0)
(0.019829983 8.7065096e-09 0)
(0.019836013 -1.3449623e-07 0)
(0.067744118 -1.0793104e-06 0)
(0.13548587 -6.3328138e-06 0)
(0.23001413 -2.2001163e-05 0)
(0.3594119 -6.5026783e-05 0)
(0.53167862 -0.00016999569 0)
(0.75197179 -0.00039294189 0)
(1.0178651 -0.000775818 0)
(1.3134675 -0.0012339724 0)
(1.6054769 -0.0014671817 0)
(1.8455014 -0.0011995953 0)
(1.982361 -0.00046198155 0)
(1.982361 0.00046196823 0)
(1.8455013 0.0011995808 0)
(1.6054767 0.0014671735 0)
(1.3134673 0.0012339767 0)
(1.0178649 0.00077582323 0)
(0.75197161 0.00039293545 0)
(0.53167847 0.00016998272 0)
(0.35941178 6.5017373e-05 0)
(0.23001405 2.1996575e-05 0)
(0.13548582 6.3301924e-06 0)
(0.067744093 1.0773271e-06 0)
(0.019836006 1.3431263e-07 0)
(0.019850311 -2.9051674e-07 0)
(0.067799335 -2.1603828e-06 0)
(0.13561033 -1.1141378e-05 0)
(0.23025292 -3.6498434e-05 0)
(0.35982769 -0.00010145791 0)
(0.53233432 -0.00025105054 0)
(0.75287108 -0.00055514454 0)
(1.0188459 -0.0010638444 0)
(1.3141534 -0.001668967 0)
(1.6054976 -0.001982964 0)
(1.8448305 -0.0016192962 0)
(1.9812869 -0.00062325372 0)
(1.9812869 0.00062323925 0)
(1.8448304 0.0016192865 0)
(1.6054974 0.001982959 0)
(1.3141531 0.0016689715 0)
(1.0188457 0.0010638554 0)
(0.75287089 0.00055515175 0)
(0.53233416 0.0002510545 0)
(0.35982756 0.00010146178 0)
(0.23025282 3.650081e-05 0)
(0.13561026 1.1140974e-05 0)
(0.067799302 2.1596795e-06 0)
(0.019850301 2.9039473e-07 0)
(0.019874329 -4.6896844e-07 0)
(0.067887673 -3.3914647e-06 0)
(0.13580048 -1.6499221e-05 0)
(0.23060113 -5.2484744e-05 0)
(0.36040806 -0.00014108408 0)
(0.53321628 -0.0003379565 0)
(0.75404872 -0.00072694952 0)
(1.0201131 -0.0013673668 0)
(1.3150402 -0.0021299642 0)
(1.6055241 -0.0025425349 0)
(1.8439475 -0.0020802666 0)
(1.9798753 -0.00080203674 0)
(1.9798752 0.00080202041 0)
(1.8439474 0.00208026 0)
(1.6055239 0.0025425359 0)
(1.31504 0.0021299648 0)
(1.0201129 0.0013673656 0)
(0.75404852 0.00072694042 0)
(0.5332161 0.00033794832 0)
(0.36040791 0.00014108111 0)
(0.23060103 5.2482918e-05 0)
(0.13580041 1.649696e-05 0)
(0.067887637 3.3896376e-06 0)
(0.019874318 4.6874835e-07 0)
(0.019908893 -6.5787616e-07 0)
(0.068011584 -4.6911841e-06 0)
(0.13606041 -2.2054669e-05 0)
(0.23106408 -6.8925713e-05 0)
(0.36115861 -0.00018138668 0)
(0.53432944 -0.00042529777 0)
(0.75550957 -0.00089787956 0)
(1.0216753 -0.0016684868 0)
(1.3161439 -0.002591801 0)
(1.605569 -0.0031143386 0)
(1.8428436 -0.0025635546 0)
(1.9781009 -0.00099132321 0)
(1.9781009 0.00099130649 0)
(1.8428435 0.0025635485 0)
(1.6055688 0.0031143441 0)
(1.3161436 0.0025918189 0)
(1.021675 0.0016685096 0)
(0.75550937 0.00089789291 0)
(0.53432926 0.00042530862 0)
(0.36115846 0.00018139772 0)
(0.23106397 6.8931235e-05 0)
(0.13606034 2.2054944e-05 0)
(0.068011545 4.6906685e-06 0)
(0.019908882 6.577884e-07 0)
(0.01995411 -8.4486084e-07 0)
(0.06817112 -5.9749535e-06 0)
(0.13638959 -2.7456903e-05 0)
(0.23163966 -8.4795601e-05 0)
(0.36207426 -0.00021989283 0)
(0.53566469 -0.00050781341 0)
(0.75724187 -0.0010577797 0)
(1.0235245 -0.0019495458 0)
(1.3174693 -0.0030291639 0)
(1.6056467 -0.0036643833 0)
(1.8415256 -0.0030477612 0)
(1.9759552 -0.001182756 0)
(1.9759551 0.0011827403 0)
(1.8415255 0.0030477485 0)
(1.6056465 0.0036643735 0)
(1.3174691 0.0030291702 0)
(1.0235243 0.0019495587 0)
(0.75724166 0.0010577805 0)
(0.53566449 0.00050781196 0)
(0.36207409 0.00021989666 0)
(0.23163953 8.4798321e-05 0)
(0.13638951 2.7456336e-05 0)
(0.068171074 5.9748029e-06 0)
(0.019954096 8.4472957e-07 0)
(0.020009461 -1.0200041e-06 0)
(0.068364277 -7.174394e-06 0)
(0.13678353 -3.2421329e-05 0)
(0.23231939 -9.9259904e-05 0)
(0.36314072 -0.00025458622 0)
(0.53720067 -0.00058122306 0)
(0.75921917 -0.0011984797 0)
(1.0256379 -0.0021961885 0)
(1.3190105 -0.0034197083 0)
(1.605772 -0.0041690744 0)
(1.8400135 -0.0035118814 0)
(1.9734458 -0.0013685264 0)
(1.9734458 0.001368516 0)
(1.8400134 0.0035118723 0)
(1.6057718 0.0041690705 0)
(1.3190102 0.0034197177 0)
(1.0256377 0.0021962054 0)
(0.75921895 0.0011984852 0)
(0.53720046 0.00058122884 0)
(0.36314054 0.00025459743 0)
(0.23231925 9.9267242e-05 0)
(0.13678344 3.242276e-05 0)
(0.068364227 7.1751847e-06 0)
(0.020009446 1.0200104e-06 0)
(0.020073952 -1.1750275e-06 0)
(0.068587462 -8.2330426e-06 0)
(0.13723467 -3.6713253e-05 0)
(0.23308986 -0.00011163652 0)
(0.3643365 -0.00028384052 0)
(0.53890649 -0.00064213191 0)
(0.76140352 -0.0013136258 0)
(1.0279806 -0.0023974121 0)
(1.3207531 -0.0037449151 0)
(1.605961 -0.0046107873 0)
(1.8383351 -0.0039368854 0)
(1.970595 -0.0015419575 0)
(1.9705949 0.0015419471 0)
(1.8383349 0.0039368771 0)
(1.6059608 0.0046107835 0)
(1.3207529 0.0037449237 0)
(1.0279804 0.0023974262 0)
(0.76140328 0.0013136272 0)
(0.53890626 0.00064213484 0)
(0.3643363 0.00028385032 0)
(0.23308971 0.00011164285 0)
(0.13723457 3.6714413e-05 0)
(0.068587406 8.2336829e-06 0)
(0.020073934 1.1750327e-06 0)
(0.020146153 -1.3023336e-06 0)
(0.068835663 -9.0996626e-06 0)
(0.13773277 -4.0126769e-05 0)
(0.23393344 -0.00012134213 0)
(0.36563426 -0.00030630556 0)
(0.54074383 -0.00068779152 0)
(0.76374819 -0.0013981934 0)
(1.0305083 -0.0025448057 0)
(1.3226757 -0.0039902494 0)
(1.6062315 -0.0049734284 0)
(1.8365226 -0.0043048904 0)
(1.9674377 -0.0016971769 0)
(1.9674377 0.0016971707 0)
(1.8365224 0.0043048846 0)
(1.6062312 0.0049734214 0)
(1.3226754 0.0039902534 0)
(1.030508 0.0025448191 0)
(0.76374795 0.0013981981 0)
(0.5407436 0.00068779616 0)
(0.36563406 0.00030631477 0)
(0.23393328 0.00012134783 0)
(0.13773266 4.0127811e-05 0)
(0.068835605 9.1005772e-06 0)
(0.020146135 1.3023342e-06 0)
(0.020224226 -1.3952109e-06 0)
(0.069102559 -9.7288807e-06 0)
(0.13826517 -4.2489858e-05 0)
(0.23482888 -0.00012789132 0)
(0.36700182 -0.00032086925 0)
(0.54266829 -0.0007159584 0)
(0.76619924 -0.0014479981 0)
(1.0331683 -0.0026311916 0)
(1.3247481 -0.0041442943 0)
(1.6065944 -0.0052343134 0)
(1.834615 -0.0045985906 0)
(1.9640218 -0.0018291926 0)
(1.9640218 0.0018291946 0)
(1.8346148 0.0045985917 0)
(1.6065941 0.0052343079 0)
(1.3247478 0.0041442934 0)
(1.0331681 0.0026312006 0)
(0.76619899 0.0014480039 0)
(0.54266805 0.0007159643 0)
(0.36700161 0.00032087756 0)
(0.23482871 0.00012789663 0)
(0.13826506 4.2491407e-05 0)
(0.069102497 9.7302077e-06 0)
(0.020224206 1.3953301e-06 0)
(0.020306094 -1.4504171e-06 0)
(0.069381087 -1.0097165e-05 0)
(0.1388179 -4.3720572e-05 0)
(0.23575291 -0.000131063 0)
(0.36840425 -0.00032706122 0)
(0.54463202 -0.00072570052 0)
(0.76869805 -0.0014610842 0)
(1.0359017 -0.0026521871 0)
(1.3269314 -0.004199402 0)
(1.6070524 -0.005375385 0)
(1.8326645 -0.0048023645 0)
(1.9604058 -0.0019333905 0)
(1.9604058 0.0019333993 0)
(1.8326643 0.0048023758 0)
(1.6070521 0.0053753889 0)
(1.3269311 0.0041994048 0)
(1.0359014 0.0026521956 0)
(0.76869778 0.0014610948 0)
(0.54463177 0.0007257133 0)
(0.36840404 0.00032707154 0)
(0.23575274 0.00013106777 0)
(0.13881778 4.3721646e-05 0)
(0.069381023 1.0098393e-05 0)
(0.020306074 1.4504697e-06 0)
(0.020389537 -1.4662285e-06 0)
(0.069663753 -1.0194091e-05 0)
(0.13937624 -4.3801328e-05 0)
(0.23668131 -0.00013084976 0)
(0.36980526 -0.00032501944 0)
(0.54658454 -0.00071772267 0)
(0.77118055 -0.0014394606 0)
(1.0386402 -0.0026108758 0)
(1.329181 -0.0041562824 0)
(1.6076048 -0.0053925128 0)
(1.8307308 -0.0049037714 0)
(1.9566577 -0.0020025496 0)
(1.9566576 0.0020025628 0)
(1.8307306 0.0049037895 0)
(1.6076046 0.005392526 0)
(1.3291807 0.0041562918 0)
(1.0386399 0.0026108834 0)
(0.77118028 0.0014394729 0)
(0.5465843 0.00071774101 0)
(0.36980505 0.00032503247 0)
(0.23668114 0.00013085443 0)
(0.13937612 4.380167e-05 0)
(0.069663687 1.0195123e-05 0)
(0.020389516 1.466094e-06 0)
(0.020472345 -1.4431632e-06 0)
(0.069943241 -1.0025963e-05 0)
(0.13992617 -4.2791423e-05 0)
(0.23759168 -0.00012746948 0)
(0.37117284 -0.00031541643 0)
(0.54848391 -0.00069384415 0)
(0.77359537 -0.0013874933 0)
(1.0413239 -0.0025158745 0)
(1.3314417 -0.0040250723 0)
(1.608242 -0.0052915996 0)
(1.8288546 -0.0048976152 0)
(1.9528565 -0.0020286829 0)
(1.9528564 0.0020287023 0)
(1.8288544 0.0048976384 0)
(1.6082417 0.0052916202 0)
(1.3314414 0.0040250915 0)
(1.0413236 0.0025158894 0)
(0.7735951 0.0013875091 0)
(0.54848367 0.00069386405 0)
(0.37117263 0.00031543009 0)
(0.2375915 0.00012747486 0)
(0.13992604 4.2792589e-05 0)
(0.069943173 1.0027209e-05 0)
(0.020472323 1.4431699e-06 0)
(0.020552508 -1.3868443e-06 0)
(0.07021298 -9.6303135e-06 0)
(0.14045522 -4.0865307e-05 0)
(0.2384643 -0.00012144628 0)
(0.3724789 -0.0002995524 0)
(0.55029306 -0.00065684031 0)
(0.77589692 -0.0013105005 0)
(1.0439016 -0.0023768239 0)
(1.3336622 -0.0038212035 0)
(1.6089475 -0.0050880561 0)
(1.827074 -0.0047914644 0)
(1.9490974 -0.0020113545 0)
(1.9490973 0.0020113771 0)
(1.8270738 0.0047914879 0)
(1.6089472 0.0050880794 0)
(1.3336618 0.0038212308 0)
(1.0439013 0.0023768486 0)
(0.77589664 0.0013105223 0)
(0.55029281 0.00065686089 0)
(0.37247868 0.00029956438 0)
(0.23846412 0.00012145076 0)
(0.14045508 4.086661e-05 0)
(0.070212907 9.6316549e-06 0)
(0.020552484 1.386934e-06 0)
(0.020628432 -1.3046932e-06 0)
(0.070467791 -9.0571564e-06 0)
(0.14095362 -3.8239011e-05 0)
(0.23928386 -0.00011341671 0)
(0.37370179 -0.00027898698 0)
(0.55198349 -0.00061008871 0)
(0.77804963 -0.00121495 0)
(1.0463316 -0.0022047087 0)
(1.3358019 -0.0035619492 0)
(1.6097006 -0.0048015583 0)
(1.8254128 -0.004599908 0)
(1.9454392 -0.0019558976 0)
(1.9454391 0.001955917 0)
(1.8254126 0.0045999278 0)
(1.6097003 0.0048015841 0)
(1.3358016 0.0035619756 0)
(1.0463313 0.0022047273 0)
(0.77804936 0.0012149689 0)
(0.55198324 0.00061011102 0)
(0.37370157 0.00027900145 0)
(0.23928368 0.00011342265 0)
(0.14095349 3.8240939e-05 0)
(0.070467716 9.058748e-06 0)
(0.020628408 1.3047902e-06 0)
(0.020698925 -1.2052162e-06 0)
(0.070703838 -8.3649458e-06 0)
(0.14141424 -3.5155099e-05 0)
(0.2400393 -0.00010408409 0)
(0.37482603 -0.00025539891 0)
(0.55353492 -0.00055713935 0)
(0.78002771 -0.0011076884 0)
(1.0485815 -0.002011431 0)
(1.337825 -0.0032658802 0)
(1.6104802 -0.0044542564 0)
(1.8239012 -0.0043423353 0)
(1.9419594 -0.0018694384 0)
(1.9419594 0.0018694526 0)
(1.823901 0.0043423564 0)
(1.61048 0.0044542834 0)
(1.3378247 0.0032659035 0)
(1.0485812 0.002011445 0)
(0.78002744 0.0011077051 0)
(0.55353467 0.00055716001 0)
(0.3748258 0.00025541205 0)
(0.24003911 0.00010408924 0)
(0.14141411 3.5156983e-05 0)
(0.070703764 8.3659697e-06 0)