/*--------------------------------*- C++ -*----------------------------------*\
| =========                 |                                                 |
| \\      /  F ield         | OpenFOAM: The Open Source CFD Toolbox           |
|  \\    /   O peration     | Version:  2406                                  |
|   \\  /    A nd           | Website:  www.openfoam.com                      |
|    \\/     M anipulation  |                                                 |
\*---------------------------------------------------------------------------*/
FoamFile
{
    version     2.0;
    format      ascii;
    arch        "LSB;label=32;scalar=64";
    class       volScalarField;
    location    "34";
    object      p;
}
// * * * * * * * * * * * * * * * * * * * * * * * * * * * * * * * * * * * * * //

dimensions      [0 2 -2 0 0 0 0];

internalField   nonuniform List<scalar> 
1176
(
0.79699976
0.79702263
0.7970463
0.79705396
0.79702243
0.79692774
0.79677051
0.79658434
0.79640514
0.79623799
0.79608336
0.79598776
0.79598776
0.79608337
0.79623799
0.79640514
0.79658433
0.79677048
0.79692768
0.79702235
0.79705385
0.79704616
0.79702248
0.7969996
0.77385133
0.77380437
0.77375661
0.77373972
0.77380222
0.77400457
0.77436989
0.7748343
0.77526516
0.77555126
0.77567066
0.77570492
0.77570492
0.77567066
0.77555127
0.77526518
0.77483432
0.77436993
0.77400462
0.77380227
0.77373979
0.77375669
0.77380446
0.77385141
0.75676657
0.75678859
0.75680838
0.75680647
0.75674741
0.75658623
0.75631447
0.75598652
0.75568031
0.75546752
0.75535671
0.75530789
0.7553079
0.75535671
0.75546752
0.7556803
0.75598651
0.75631445
0.75658622
0.75674739
0.75680645
0.75680836
0.75678857
0.75676655
0.74009468
0.74010381
0.74011587
0.74013227
0.74015481
0.74017238
0.74014015
0.74000674
0.73977462
0.73950206
0.73927785
0.73915736
0.73915736
0.73927786
0.73950207
0.73977463
0.74000675
0.74014016
0.7401724
0.74015483
0.74013228
0.74011588
0.74010382
0.74009469
0.72367563
0.72367959
0.72368458
0.72369064
0.72370034
0.72372062
0.7237568
0.72379831
0.72381998
0.72379611
0.72373399
0.72368136
0.72368136
0.72373399
0.72379611
0.72381998
0.72379831
0.7237568
0.72372062
0.72370035
0.72369065
0.72368459
0.7236796
0.72367564
0.70721398
0.70721639
0.70721964
0.70722368
0.70722859
0.70723542
0.70724959
0.70728091
0.70733089
0.70738814
0.70743085
0.70744751
0.70744751
0.70743085
0.70738814
0.70733089
0.7072809
0.70724959
0.70723542
0.70722859
0.70722368
0.70721964
0.70721639
0.70721398
0.69080817
0.69081031
0.69081312
0.69081655
0.69082044
0.69082396
0.69082602
0.6908282
0.69083675
0.69085398
0.69087188
0.69088359
0.69088359
0.69087188
0.69085398
0.69083675
0.6908282
0.69082602
0.69082395
0.69082044
0.69081654
0.69081312
0.69081031
0.69080817
0.67442831
0.67443006
0.67443239
0.67443531
0.67443898
0.67444336
0.67444781
0.67445096
0.6744522
0.67445382
0.67445086
0.67444835
0.67444835
0.67445086
0.67445381
0.6744522
0.67445096
0.67444781
0.67444335
0.67443898
0.67443531
0.67443239
0.67443006
0.67442831
0.65807402
0.65807548
0.65807741
0.65807982
0.65808283
0.65808662
0.65809166
0.65809871
0.6581074
0.65811742
0.65812519
0.65812878
0.65812878
0.65812519
0.65811742
0.65810739
0.65809871
0.65809166
0.65808662
0.65808283
0.65807982
0.6580774
0.65807548
0.65807402
0.64173633
0.64173753
0.64173914
0.64174118
0.64174374
0.64174692
0.64175108
0.64175747
0.64176763
0.64178076
0.64179509
0.6418044
0.6418044
0.64179509
0.64178076
0.64176763
0.64175747
0.64175108
0.64174692
0.64174374
0.64174118
0.64173914
0.64173753
0.64173633
0.62541195
0.62541298
0.62541435
0.6254161
0.62541831
0.62542104
0.62542443
0.62542928
0.62543714
0.6254478
0.62546036
0.6254695
0.6254695
0.62546036
0.6254478
0.62543714
0.62542928
0.62542443
0.62542104
0.62541831
0.6254161
0.62541435
0.62541298
0.62541195
0.60909848
0.60909937
0.60910057
0.60910209
0.60910403
0.60910643
0.60910939
0.6091134
0.60911962
0.60912828
0.60913885
0.60914629
0.60914629
0.60913884
0.60912828
0.60911962
0.6091134
0.60910939
0.60910643
0.60910403
0.60910209
0.60910057
0.60909937
0.60909848
0.59279428
0.59279507
0.59279613
0.59279747
0.59279919
0.59280132
0.59280396
0.5928075
0.5928129
0.59282065
0.59283034
0.59283702
0.59283702
0.59283034
0.59282065
0.5928129
0.5928075
0.59280396
0.59280132
0.59279919
0.59279747
0.59279613
0.59279507
0.59279428
0.57649806
0.57649876
0.5764997
0.5765009
0.57650244
0.57650435
0.5765067
0.57650983
0.5765146
0.57652158
0.57653024
0.57653633
0.57653633
0.57653024
0.57652157
0.5765146
0.57650983
0.5765067
0.57650435
0.57650244
0.57650091
0.5764997
0.57649876
0.57649806
0.56020879
0.56020942
0.56021027
0.56021135
0.56021273
0.56021445
0.56021655
0.56021931
0.56022347
0.5602296
0.56023713
0.56024253
0.56024253
0.56023713
0.5602296
0.56022347
0.56021931
0.56021655
0.56021445
0.56021273
0.56021135
0.56021027
0.56020942
0.56020879
0.54392567
0.54392624
0.543927
0.54392798
0.54392924
0.54393079
0.54393269
0.54393514
0.54393878
0.54394415
0.54395069
0.54395548
0.54395548
0.54395069
0.54394415
0.54393878
0.54393514
0.54393269
0.54393079
0.54392924
0.54392798
0.543927
0.54392624
0.54392567
0.52764804
0.52764856
0.52764926
0.52765015
0.52765129
0.52765271
0.52765443
0.52765663
0.52765985
0.52766462
0.52767034
0.52767463
0.52767463
0.52767034
0.52766462
0.52765985
0.52765663
0.52765443
0.52765271
0.52765129
0.52765015
0.52764926
0.52764856
0.52764804
0.51137536
0.51137584
0.51137647
0.51137729
0.51137834
0.51137963
0.5113812
0.5113832
0.51138607
0.51139032
0.51139537
0.51139924
0.51139924
0.51139537
0.51139032
0.51138607
0.5113832
0.5113812
0.51137963
0.51137834
0.51137729
0.51137647
0.51137584
0.51137536
0.49510717
0.4951076
0.49510819
0.49510894
0.4951099
0.49511109
0.49511253
0.49511434
0.49511692
0.49512072
0.49512522
0.49512871
0.49512871
0.49512522
0.49512072
0.49511692
0.49511434
0.49511253
0.49511109
0.4951099
0.49510894
0.49510819
0.4951076
0.49510717
0.47884306
0.47884346
0.478844
0.47884469
0.47884558
0.47884668
0.478848
0.47884965
0.47885197
0.47885539
0.47885943
0.47886259
0.47886259
0.47885943
0.4788554
0.47885197
0.47884965
0.478848
0.47884668
0.47884557
0.47884469
0.47884399
0.47884346
0.47884306
0.46258269
0.46258306
0.46258355
0.46258419
0.46258502
0.46258603
0.46258726
0.46258877
0.46259087
0.46259397
0.46259761
0.46260048
0.46260048
0.46259761
0.46259397
0.46259087
0.46258877
0.46258726
0.46258603
0.46258501
0.46258419
0.46258355
0.46258305
0.46258268
0.44632575
0.4463261
0.44632656
0.44632715
0.44632791
0.44632886
0.44632999
0.44633138
0.44633329
0.44633611
0.44633942
0.44634204
0.44634204
0.44633943
0.44633611
0.44633329
0.44633138
0.44632999
0.44632886
0.44632791
0.44632715
0.44632655
0.44632609
0.44632575
0.43007199
0.43007231
0.43007274
0.43007329
0.430074
0.43007487
0.43007592
0.43007721
0.43007896
0.43008153
0.43008456
0.43008695
0.43008695
0.43008456
0.43008153
0.43007896
0.43007721
0.43007592
0.43007487
0.43007399
0.43007328
0.43007273
0.4300723
0.43007198
0.41382115
0.41382145
0.41382185
0.41382236
0.41382302
0.41382384
0.41382482
0.41382601
0.41382761
0.41382997
0.41383275
0.41383494
0.41383494
0.41383276
0.41382997
0.41382762
0.41382601
0.41382482
0.41382384
0.41382302
0.41382236
0.41382184
0.41382144
0.41382114
0.39757304
0.39757331
0.39757369
0.39757416
0.39757478
0.39757554
0.39757646
0.39757756
0.39757904
0.3975812
0.39758377
0.39758578
0.39758578
0.39758378
0.39758121
0.39757904
0.39757756
0.39757646
0.39757554
0.39757477
0.39757416
0.39757368
0.3975733
0.39757303
0.38132744
0.3813277
0.38132805
0.3813285
0.38132907
0.38132979
0.38133064
0.38133166
0.38133303
0.38133503
0.3813374
0.38133925
0.38133926
0.38133741
0.38133503
0.38133304
0.38133167
0.38133064
0.38132978
0.38132907
0.38132849
0.38132804
0.38132769
0.38132743
0.3650842
0.36508444
0.36508477
0.36508519
0.36508573
0.3650864
0.36508719
0.36508815
0.36508941
0.36509126
0.36509346
0.36509517
0.36509517
0.36509347
0.36509126
0.36508942
0.36508815
0.36508719
0.36508639
0.36508572
0.36508517
0.36508475
0.36508443
0.36508418
0.34884315
0.34884338
0.34884368
0.34884407
0.34884458
0.34884521
0.34884595
0.34884684
0.34884802
0.34884973
0.34885178
0.34885336
0.34885336
0.34885178
0.34884973
0.34884803
0.34884685
0.34884595
0.3488452
0.34884457
0.34884406
0.34884366
0.34884336
0.34884313
0.33260415
0.33260436
0.33260464
0.33260501
0.33260549
0.33260607
0.33260677
0.33260761
0.3326087
0.33261029
0.3326122
0.33261367
0.33261367
0.33261221
0.3326103
0.33260871
0.33260762
0.33260678
0.33260607
0.33260547
0.33260499
0.33260462
0.33260433
0.33260412
0.31636706
0.31636725
0.31636752
0.31636787
0.31636831
0.31636887
0.31636952
0.31637031
0.31637133
0.3163728
0.31637458
0.31637595
0.31637595
0.31637459
0.31637281
0.31637134
0.31637031
0.31636952
0.31636886
0.3163683
0.31636785
0.3163675
0.31636723
0.31636703
0.30013176
0.30013195
0.3001322
0.30013252
0.30013294
0.30013346
0.30013408
0.30013481
0.30013576
0.30013714
0.30013881
0.30014008
0.30014008
0.30013881
0.30013715
0.30013578
0.30013482
0.30013408
0.30013345
0.30013292
0.3001325
0.30013217
0.30013191
0.30013172
0.28389814
0.28389832
0.28389855
0.28389886
0.28389925
0.28389974
0.28390032
0.28390101
0.2839019
0.28390318
0.28390474
0.28390593
0.28390593
0.28390475
0.28390319
0.28390192
0.28390102
0.28390032
0.28389973
0.28389923
0.28389883
0.28389852
0.28389828
0.2838981
0.2676661
0.26766627
0.26766649
0.26766678
0.26766715
0.26766761
0.26766815
0.2676688
0.26766963
0.26767083
0.2676723
0.2676734
0.26767341
0.26767231
0.26767085
0.26766965
0.26766881
0.26766816
0.2676676
0.26766712
0.26766674
0.26766645
0.26766622
0.26766605
0.25143554
0.2514357
0.25143591
0.25143618
0.25143653
0.25143696
0.25143748
0.25143808
0.25143887
0.25143998
0.25144136
0.25144239
0.25144239
0.25144137
0.25144
0.25143889
0.2514381
0.25143748
0.25143695
0.2514365
0.25143614
0.25143586
0.25143565
0.25143549
0.23520638
0.23520652
0.23520672
0.23520698
0.23520731
0.23520771
0.2352082
0.23520877
0.2352095
0.23521055
0.23521184
0.23521281
0.23521282
0.23521186
0.23521057
0.23520953
0.23520879
0.2352082
0.2352077
0.23520727
0.23520693
0.23520667
0.23520646
0.23520631
0.21897852
0.21897866
0.21897885
0.21897909
0.2189794
0.21897978
0.21898024
0.21898078
0.21898147
0.21898244
0.21898366
0.21898456
0.21898457
0.21898367
0.21898247
0.21898149
0.2189808
0.21898024
0.21897976
0.21897936
0.21897903
0.21897878
0.21897859
0.21897845
0.2027519
0.20275203
0.2027522
0.20275243
0.20275272
0.20275309
0.20275352
0.20275402
0.20275467
0.20275559
0.20275674
0.20275759
0.20275759
0.20275675
0.20275562
0.2027547
0.20275404
0.20275352
0.20275306
0.20275268
0.20275237
0.20275213
0.20275195
0.20275182
0.18652644
0.18652656
0.18652672
0.18652694
0.18652722
0.18652756
0.18652796
0.18652844
0.18652905
0.18652991
0.18653098
0.18653178
0.18653178
0.186531
0.18652994
0.18652908
0.18652847
0.18652797
0.18652753
0.18652716
0.18652687
0.18652665
0.18652647
0.18652635
0.17030207
0.17030218
0.17030234
0.17030254
0.1703028
0.17030313
0.17030351
0.17030396
0.17030453
0.17030535
0.17030636
0.17030711
0.17030711
0.17030638
0.17030538
0.17030457
0.17030399
0.17030351
0.1703031
0.17030274
0.17030246
0.17030225
0.17030209
0.17030196
0.15407874
0.15407885
0.15407899
0.15407919
0.15407943
0.15407974
0.1540801
0.15408052
0.15408106
0.15408182
0.15408276
0.15408346
0.15408346
0.15408278
0.15408185
0.1540811
0.15408055
0.1540801
0.1540797
0.15407937
0.1540791
0.1540789
0.15407874
0.15407862
0.13785637
0.13785647
0.13785661
0.1378568
0.13785703
0.13785732
0.13785766
0.13785806
0.13785857
0.13785928
0.13786017
0.13786083
0.13786083
0.13786019
0.13785931
0.13785861
0.13785809
0.13785766
0.13785728
0.13785695
0.1378567
0.1378565
0.13785635
0.13785624
0.12163494
0.12163504
0.12163517
0.12163534
0.12163556
0.12163584
0.12163616
0.12163654
0.12163701
0.12163766
0.12163848
0.12163908
0.12163908
0.1216385
0.1216377
0.12163705
0.12163657
0.12163615
0.12163579
0.12163548
0.12163523
0.12163505
0.12163491
0.1216348
0.10541436
0.10541445
0.10541458
0.10541474
0.10541495
0.10541521
0.10541551
0.10541587
0.10541631
0.10541692
0.10541768
0.10541824
0.10541825
0.1054177
0.10541696
0.10541635
0.10541589
0.1054155
0.10541515
0.10541485
0.10541462
0.10541444
0.1054143
0.10541421
0.089194643
0.089194732
0.089194851
0.089195004
0.089195201
0.089195446
0.089195733
0.089196065
0.089196468
0.089197007
0.089197658
0.089198123
0.08919813
0.089197681
0.089197049
0.089196516
0.089196095
0.089195723
0.089195387
0.0891951
0.089194872
0.089194705
0.089194573
0.089194478
0.072975637
0.07297572
0.072975832
0.072975977
0.072976166
0.0729764
0.072976677
0.072976993
0.07297737
0.072977864
0.072978444
0.072978839
0.072978845
0.072978467
0.072977907
0.072977419
0.072977023
0.072976665
0.072976337
0.072976058
0.072975838
0.072975679
0.072975554
0.072975464
0.056757517
0.056757597
0.056757706
0.056757844
0.05675802
0.056758237
0.05675849
0.056758775
0.056759096
0.05675947
0.056759842
0.056760053
0.05676006
0.056759865
0.056759512
0.056759146
0.056758805
0.056758476
0.056758171
0.056757909
0.056757702
0.05675755
0.05675743
0.056757343
0.040539729
0.0405398
0.040539898
0.040540028
0.040540204
0.040540429
0.040540695
0.040540988
0.040541313
0.040541718
0.040542181
0.040542484
0.04054249
0.040542202
0.040541758
0.040541361
0.040541016
0.040540681
0.040540365
0.040540097
0.040539893
0.04053975
0.040539642
0.040539566
0.02432346
0.024323543
0.024323651
0.024323778
0.024323926
0.024324088
0.024324262
0.024324445
0.024324611
0.024324686
0.024324594
0.024324358
0.024324363
0.024324611
0.024324721
0.024324651
0.024324467
0.024324245
0.024324028
0.024323832
0.024323663
0.024323527
0.024323414
0.024323329
0.008105366
0.0081054364
0.0081055293
0.0081056509
0.0081058121
0.0081060122
0.0081062336
0.0081064732
0.0081068506
0.0081076839
0.008109158
0.0081105226
0.0081105253
0.0081091684
0.0081077048
0.0081068745
0.0081064844
0.0081062197
0.0081059719
0.0081057521
0.0081055803
0.0081054562
0.0081053615
0.0081052911
)
;

boundaryField
{
    INLET
    {
        type            zeroGradient;
    }
    OUTLET
    {
        type            fixedValue;
        value           uniform 0;
    }
    WALL
    {
        type            zeroGradient;
    }
    frontAndBackPlanes
    {
        type            empty;
    }
}


// ************************************************************************* //
