/*--------------------------------*- C++ -*----------------------------------*\
| =========                 |                                                 |
| \\      /  F ield         | OpenFOAM: The Open Source CFD Toolbox           |
|  \\    /   O peration     | Version:  2406                                  |
|   \\  /    A nd           | Website:  www.openfoam.com                      |
|    \\/     M anipulation  |                                                 |
\*---------------------------------------------------------------------------*/
FoamFile
{
    version     2.0;
    format      ascii;
    arch        "LSB;label=32;scalar=64";
    class       surfaceScalarField;
    location    "34";
    object      phi;
}
// * * * * * * * * * * * * * * * * * * * * * * * * * * * * * * * * * * * * * //

dimensions      [0 3 -1 0 0 0 0];

oriented        oriented;

internalField   nonuniform List<scalar> 
2279
(
2.3617469e-08
1.0148926e-05
2.0509762e-07
4.982375e-05
6.9331762e-07
0.00014252872
1.5784717e-06
0.00034353082
2.678848e-06
0.00075378089
3.3472921e-06
0.0015415573
3.0435212e-06
0.0029497096
2.1516858e-06
0.005249171
1.4318053e-06
0.008582269
9.8959255e-07
0.012685995
5.1266575e-07
0.016666385
-4.4790803e-12
0.01918202
-5.126727e-07
0.01918202
-9.8958834e-07
0.016666385
-1.4317677e-06
0.012685995
-2.1515626e-06
0.0085822689
-3.0432498e-06
0.0052491708
-3.3468421e-06
0.0029497094
-2.6782672e-06
0.0015415572
-1.5778772e-06
0.00075378084
-6.9282822e-07
0.0003435308
-2.0478693e-07
0.00014252872
-2.3482935e-08
4.9823749e-05
1.0148926e-05
-9.5248498e-08
1.0244175e-05
-5.3794011e-07
5.0266441e-05
-1.6230012e-06
0.00014361378
-3.5389522e-06
0.00034544677
-5.920186e-06
0.00075616213
-7.405501e-06
0.0015430426
-6.5847247e-06
0.0029488888
-3.9361561e-06
0.0052465224
-1.3883854e-06
0.0085797213
-6.5117247e-08
0.012684671
2.424034e-07
0.016666078
-1.3570271e-11
0.019182263
-2.4243639e-07
0.019182263
6.5075006e-08
0.016666078
1.3883304e-06
0.012684671
3.9360845e-06
0.0085797213
6.584611e-06
0.0052465225
7.4053159e-06
0.0029488889
5.9199472e-06
0.0015430427
3.5387192e-06
0.00075616216
1.6228272e-06
0.00034544679
5.3784076e-07
0.00014361379
9.5211902e-08
5.0266444e-05
1.0244176e-05
5.0139813e-08
1.0194035e-05
2.6334495e-07
5.0053236e-05
7.4910719e-07
0.00014312802
1.5314586e-06
0.00034466442
2.3366564e-06
0.00075535693
2.5476638e-06
0.0015428316
1.8390998e-06
0.0029495974
9.7568024e-07
0.0052473858
6.7696442e-07
0.00858002
6.7179144e-07
0.012684677
4.8416683e-07
0.016666266
1.7222627e-12
0.019182747
-4.8416009e-07
0.019182747
-6.7177464e-07
0.016666266
-6.7693151e-07
0.012684677
-9.7563263e-07
0.00858002
-1.8390547e-06
0.0052473858
-2.5476311e-06
0.0029495974
-2.3366379e-06
0.0015428316
-1.5314583e-06
0.00075535692
-7.4911873e-07
0.00034466442
-2.6335955e-07
0.00014312802
-5.0148791e-08
5.0053235e-05
1.0194035e-05
1.9586674e-08
1.0174448e-05
1.1184918e-07
4.9960974e-05
3.6128429e-07
0.00014287858
9.0504804e-07
0.00034412066
1.871661e-06
0.00075439032
3.0948261e-06
0.0015416085
3.8987286e-06
0.0029487935
3.7285612e-06
0.005247556
2.9242166e-06
0.0085808243
1.9733781e-06
0.012685627
1.01277e-06
0.016667226
-4.8233243e-12
0.01918376
-1.0127782e-06
0.01918376
-1.9733827e-06
0.016667226
-2.924221e-06
0.012685627
-3.7285692e-06
0.0085808244
-3.8987371e-06
0.005247556
-3.0948336e-06
0.0029487935
-1.871662e-06
0.0015416085
-9.0503893e-07
0.00075439031
-3.6127009e-07
0.00034412066
-1.1183946e-07
0.00014287858
-1.9582206e-08
4.9960973e-05
1.0174448e-05
8.083942e-09
1.0166364e-05
4.7141514e-08
4.9921916e-05
1.5494709e-07
0.00014277078
3.984637e-07
0.00034387714
8.7979612e-07
0.00075390898
1.7015197e-06
0.0015407867
2.7512811e-06
0.0029477437
3.4623696e-06
0.0052468449
3.4708704e-06
0.0085808158
2.8006927e-06
0.012686298
1.5505164e-06
0.016668476
-3.0820686e-12
0.01918531
-1.5505199e-06
0.01918531
-2.800689e-06
0.016668476
-3.4708601e-06
0.012686298
-3.4623718e-06
0.0085808158
-2.7513012e-06
0.0052468449
-1.7015522e-06
0.0029477437
-8.7983324e-07
0.0015407867
-3.9849589e-07
0.00075390899
-1.5496944e-07
0.00034387714
-4.7154893e-08
0.00014277078
-8.0894182e-09
4.9921916e-05
1.0166364e-05
4.9359072e-09
1.0161429e-05
2.8698975e-08
4.9898153e-05
9.512179e-08
0.00014270436
2.4921513e-07
0.00034372305
5.6361116e-07
0.00075359459
1.1213785e-06
0.001540229
1.9184636e-06
0.0029469467
2.6588288e-06
0.0052461046
2.8930675e-06
0.0085805816
2.4787732e-06
0.012686712
1.4344299e-06
0.016669521
2.2004184e-12
0.019186745
-1.434422e-06
0.019186745
-2.4787586e-06
0.016669521
-2.8930515e-06
0.012686712
-2.6588185e-06
0.0085805816
-1.9184649e-06
0.0052461046
-1.121389e-06
0.0029469467
-5.6362523e-07
0.001540229
-2.4922804e-07
0.00075359459
-9.5131259e-08
0.00034372305
-2.8704927e-08
0.00014270436
-4.9385274e-09
4.9898153e-05
1.0161429e-05
4.4123883e-09
1.0157016e-05
2.552578e-08
4.987704e-05
8.3830429e-08
0.00014264605
2.1689487e-07
0.00034358998
4.8450272e-07
0.00075332698
9.5636395e-07
0.0015397571
1.6413788e-06
0.0029462616
2.3245891e-06
0.0052454214
2.5939601e-06
0.0085803122
2.2393684e-06
0.012687066
1.3066776e-06
0.016670453
4.9312103e-12
0.019188051
-1.3066652e-06
0.019188051
-2.2393526e-06
0.016670453
-2.5939466e-06
0.012687066
-2.3245822e-06
0.0085803122
-1.6413799e-06
0.0052454214
-9.5636967e-07
0.0029462616
-4.8450941e-07
0.0015397571
-2.1690047e-07
0.00075332698
-8.383426e-08
0.00034358998
-2.5528208e-08
0.00014264605
-4.4134769e-09
4.987704e-05
1.0157016e-05
3.6256062e-09
1.0153391e-05
2.1036771e-08
4.9859629e-05
6.9438508e-08
0.00014259765
1.8114226e-07
0.00034347828
4.0971586e-07
0.00075309841
8.2390654e-07
0.0015393429
1.4539965e-06
0.0029456316
2.1430807e-06
0.0052447323
2.4674782e-06
0.0085799878
2.1883972e-06
0.012687346
1.2866456e-06
0.016671355
4.5522979e-12
0.019189338
-1.286635e-06
0.019189338
-2.1883849e-06
0.016671355
-2.4674684e-06
0.012687346
-2.1430767e-06
0.0085799878
-1.4539975e-06
0.0052447323
-8.2391119e-07
0.0029456316
-4.0972207e-07
0.0015393429
-1.8114819e-07
0.00075309841
-6.9442946e-08
0.00034347828
-2.1039784e-08
0.00014259765
-3.6269706e-09
4.9859629e-05
1.0153391e-05
2.9832555e-09
1.0150408e-05
1.7347296e-08
4.9845265e-05
5.7377821e-08
0.00014255762
1.5007474e-07
0.00034338558
3.4097261e-07
0.00075290751
6.9193408e-07
0.001538992
1.244112e-06
0.0029450794
1.9041898e-06
0.0052440722
2.3016042e-06
0.0085795904
2.0975106e-06
0.01268755
1.2520124e-06
0.016672201
3.3839906e-12
0.01919059
-1.2520048e-06
0.01919059
-2.0975022e-06
0.016672201
-2.3015977e-06
0.01268755
-1.9041867e-06
0.0085795904
-1.2441128e-06
0.0052440722
-6.9193842e-07
0.0029450794
-3.409788e-07
0.001538992
-1.5008079e-07
0.00075290751
-5.7382338e-08
0.00034338558
-1.7350471e-08
0.00014255762
-2.9847085e-09
4.9845265e-05
1.0150408e-05
2.4655718e-09
1.0147942e-05
1.4363454e-08
4.9833367e-05
4.7627049e-08
0.00014252436
1.2502955e-07
0.00034330818
2.8559017e-07
0.00075274695
5.8418115e-07
0.0015386934
1.0641866e-06
0.0029445994
1.6641604e-06
0.0052434722
2.0898766e-06
0.0085791647
1.9528956e-06
0.012687687
1.1802454e-06
0.016672973
1.9359962e-12
0.01919177
-1.1802411e-06
0.01919177
-1.9528909e-06
0.016672973
-2.0898731e-06
0.012687687
-1.6641593e-06
0.0085791647
-1.0641895e-06
0.0052434722
-5.8418764e-07
0.0029445994
-2.8559817e-07
0.0015386934
-1.2503677e-07
0.00075274695
-4.7632149e-08
0.00034330818
-1.4366931e-08
0.00014252436
-2.4671296e-09
4.9833367e-05
1.0147942e-05
2.1025727e-09
1.014584e-05
1.2258342e-08
4.9823212e-05
4.0688713e-08
0.00014249593
1.0699082e-07
0.00034324188
2.4507922e-07
0.00075260886
5.0385388e-07
0.0015384346
9.2623584e-07
0.002944177
1.4715123e-06
0.0052429269
1.890909e-06
0.0085787453
1.8050225e-06
0.012687772
1.1036899e-06
0.016673675
9.3662802e-13
0.019192874
-1.1036877e-06
0.019192874
-1.8050201e-06
0.016673675
-1.8909077e-06
0.012687772
-1.4715136e-06
0.0085787453
-9.2624139e-07
0.0052429269
-5.0386297e-07
0.002944177
-2.4508923e-07
0.0015384346
-1.0699934e-07
0.00075260887
-4.0694524e-08
0.00034324188
-1.2262149e-08
0.00014249593
-2.1042422e-09
4.9823212e-05
1.014584e-05
1.8283109e-09
1.0144011e-05
1.0665662e-08
4.9814374e-05
3.5430549e-08
0.00014247116
9.328327e-08
0.00034318403
2.1413934e-07
0.00075248801
4.419276e-07
0.0015382068
8.1811349e-07
0.0029438008
1.3163805e-06
0.0052424287
1.7244934e-06
0.0085783372
1.6780418e-06
0.012687819
1.0378037e-06
0.016674315
2.8835676e-13
0.019193912
-1.0378029e-06
0.019193912
-1.6780408e-06
0.016674315
-1.7244935e-06
0.012687819
-1.3163836e-06
0.0085783372
-8.1812086e-07
0.0052424287
-4.4193807e-07
0.0029438008
-2.141501e-07
0.0015382068
-9.3292076e-08
0.00075248801
-3.5436427e-08
0.00034318403
-1.0669406e-08
0.00014247116
-1.8299301e-09
4.9814374e-05
1.0144011e-05
1.6105231e-09
1.0142401e-05
9.3997355e-09
4.9806585e-05
3.12445e-08
0.00014244932
8.2340408e-08
0.00034313293
1.8932049e-07
0.00075238103
3.9182252e-07
0.0015380043
7.2924071e-07
0.0029434634
1.1851446e-06
0.0052419728
1.5781739e-06
0.0085779441
1.5623376e-06
0.012687835
9.7669671e-07
0.0166749
-2.3875e-13
0.019194888
-9.7669695e-07
0.019194888
-1.5623377e-06
0.0166749
-1.5781751e-06
0.012687835
-1.1851488e-06
0.0085779441
-7.2924878e-07
0.0052419728
-3.9183295e-07
0.0029434634
-1.8933067e-07
0.0015380043
-8.2348482e-08
0.00075238103
-3.1249793e-08
0.00034313293
-9.4030257e-09
0.00014244932
-1.6119285e-09
4.9806585e-05
1.0142401e-05
1.4323286e-09
1.0140969e-05
8.3630513e-09
4.9799654e-05
2.7812649e-08
0.00014242987
7.3352742e-08
0.00034308739
1.6886855e-07
0.00075228551
3.5026746e-07
0.0015378229
6.5458211e-07
0.0029431591
1.0720578e-06
0.0052415553
1.4464316e-06
0.0085775698
1.454874e-06
0.012687826
9.1880756e-07
0.016675437
-6.9286749e-13
0.019195807
-9.1880871e-07
0.019195807
-1.454875e-06
0.016675437
-1.4464337e-06
0.012687826
-1.0720626e-06
0.0085775698
-6.5458983e-07
0.0052415553
-3.5027665e-07
0.0029431591
-1.6887707e-07
0.0015378229
-7.3359258e-08
0.00075228551
-2.7816818e-08
0.00034308739
-8.3655629e-09
0.00014242987
-1.4333821e-09
4.9799655e-05
1.0140969e-05
1.2850193e-09
1.0139684e-05
7.5051267e-09
4.9793434e-05
2.4968912e-08
0.0001424124
6.5891169e-08
0.00034304647
1.5183799e-07
0.00075219957
3.1548505e-07
0.0015376593
5.9149595e-07
0.0029428831
9.7478569e-07
0.005241172
1.3297027e-06
0.0085772149
1.3567846e-06
0.012687799
8.6524976e-07
0.016675928
-1.0581925e-12
0.019196672
-8.6525166e-07
0.019196672
-1.3567864e-06
0.016675928
-1.3297054e-06
0.012687799
-9.7479037e-07
0.0085772149
-5.9150249e-07
0.005241172
-3.154921e-07
0.0029428831
-1.5184401e-07
0.0015376593
-6.5895461e-08
0.00075219957
-2.4971503e-08
0.00034304647
-7.5065728e-09
0.0001424124
-1.2855948e-09
4.9793434e-05
1.0139684e-05
1.1615163e-09
1.0138522e-05
6.7852812e-09
4.9787811e-05
2.258058e-08
0.00014239661
5.9615553e-08
0.00034300943
1.374812e-07
0.0007521217
2.860466e-07
0.0015375107
5.3771062e-07
0.0029426314
8.90705e-07
0.005240819
1.2263958e-06
0.0085768792
1.2674871e-06
0.012687758
8.1592435e-07
0.01667638
-1.3042215e-12
0.019197488
-8.1592677e-07
0.019197488
-1.2674895e-06
0.01667638
-1.2263988e-06
0.012687758
-8.9070913e-07
0.0085768792
-5.3771541e-07
0.005240819
-2.8605085e-07
0.0029426314
-1.374841e-07
0.0015375107
-5.9617078e-08
0.0007521217
-2.2581204e-08
0.00034300944
-6.7854056e-09
0.00014239661
-1.1614987e-09
4.9787811e-05
1.0138522e-05
1.0561873e-09
1.0137466e-05
6.1710816e-09
4.9782696e-05
2.0541504e-08
0.00014238224
5.4252331e-08
0.00034297572
1.2519097e-07
0.00075205076
2.6076805e-07
0.0015373751
4.912515e-07
0.0029424009
8.1722432e-07
0.005240493
1.1341819e-06
0.0085765622
1.1857882e-06
0.012687707
7.7021245e-07
0.016676795
-1.4177163e-12
0.019198259
-7.7021516e-07
0.019198259
-1.1857909e-06
0.016676795
-1.1341849e-06
0.012687707
-8.1722756e-07
0.0085765622
-4.9125407e-07
0.005240493
-2.6076895e-07
0.0029424009
-1.2519013e-07
0.0015373751
-5.4250565e-08
0.00075205076
-2.0539784e-08
0.00034297572
-6.1696293e-09
0.00014238224
-1.0554614e-09
4.9782696e-05
1.0137466e-05
9.6519193e-10
1.0136501e-05
5.6402774e-09
4.9778021e-05
1.8778435e-08
0.0001423691
4.9611462e-08
0.00034294489
1.1454185e-07
0.00075198583
2.3881107e-07
0.0015372509
4.5070383e-07
0.002942189
7.5248209e-07
0.0052401913
1.0514983e-06
0.0085762632
1.1108294e-06
0.012687647
7.2768646e-07
0.016677178
-1.4209114e-12
0.019198986
-7.2768926e-07
0.019198986
-1.1108322e-06
0.016677178
-1.0515011e-06
0.012687647
-7.5248416e-07
0.0085762632
-4.5070374e-07
0.0052401913
-2.38808e-07
0.002942189
-1.1453661e-07
0.0015372509
-4.9605812e-08
0.00075198583
-1.877395e-08
0.00034294489
-5.6369654e-09
0.0001423691
-9.6363102e-10
4.9778021e-05
1.0136501e-05
8.8585026e-10
1.0135615e-05
5.1773043e-09
4.9773729e-05
1.7239992e-08
0.00014235704
4.5559079e-08
0.00034291657
1.0523239e-07
0.00075192616
2.1957655e-07
0.0015371365
4.1504212e-07
0.0029419936
6.9508856e-07
0.0052399112
9.770929e-07
0.0085759812
1.0418655e-06
0.012687582
6.8800309e-07
0.016677532
-1.361649e-12
0.019199674
-6.8800587e-07
0.019199674
-1.0418683e-06
0.016677532
-9.7709541e-07
0.012687582
-6.950892e-07
0.0085759812
-4.1503885e-07
0.0052399112
-2.1956876e-07
0.0029419936
-1.0522194e-07
0.0015371365
-4.5548846e-08
0.00075192616
-1.7232251e-08
0.00034291657
-5.1718063e-09
0.00014235704
-8.833089e-10
4.9773729e-05
1.0135615e-05
8.1606762e-10
1.0134799e-05
4.7700036e-09
4.9769775e-05
1.5886056e-08
0.00014234592
4.1990669e-08
0.00034289047
9.7026902e-08
0.00075187112
2.0259361e-07
0.0015370309
3.8344876e-07
0.0029418127
6.4389518e-07
0.0052396508
9.0984175e-07
0.0085757152
9.782344e-07
0.012687514
6.5086463e-07
0.01667786
-1.2952937e-12
0.019200325
-6.508674e-07
0.019200325
-9.7823738e-07
0.01667786
-9.0984393e-07
0.012687514
-6.4389415e-07
0.0085757152
-3.8344174e-07
0.0052396508
-2.0258024e-07
0.0029418127
-9.7010308e-08
0.0015370309
-4.1975045e-08
0.00075187112
-1.5874497e-08
0.00034289047
-4.7619464e-09
0.00014234592
-8.123801e-10
4.9769775e-05
1.0134799e-05
7.5419466e-10
1.0134045e-05
4.4087904e-09
4.9766121e-05
1.4684967e-08
0.00014233564
3.8823623e-08
0.00034286633
8.9738568e-08
0.00075182021
1.8748696e-07
0.0015369332
3.5526528e-07
0.0029416449
5.9795797e-07
0.0052394081
8.4878768e-07
0.0085754644
9.1936562e-07
0.012687443
6.1600918e-07
0.016678163
-1.2751859e-12
0.019200941
-6.1601205e-07
0.019200941
-9.1936884e-07
0.016678163
-8.4878962e-07
0.012687443
-5.9795508e-07
0.0085754644
-3.5525389e-07
0.0052394081
-1.8746706e-07
0.0029416449
-8.9714782e-08
0.0015369332
-3.8801702e-08
0.00075182021
-1.4668954e-08
0.00034286633
-4.3977547e-09
0.00014233564
-7.4917462e-10
4.9766121e-05
1.0134045e-05
6.9894287e-10
1.0133346e-05
4.08617e-09
4.9762734e-05
1.3611933e-08
0.00014232612
3.5993105e-08
0.00034284395
8.3220266e-08
0.00075177298
1.7395946e-07
0.0015368425
3.2996509e-07
0.0029414889
5.5650708e-07
0.0052391815
7.9312026e-07
0.0085752278
8.6476757e-07
0.012687372
5.8323065e-07
0.016678444
-1.3617209e-12
0.019201524
-5.8323387e-07
0.019201524
-8.6477131e-07
0.016678444
-7.9312213e-07
0.012687372
-5.5650217e-07
0.0085752278
-3.299487e-07
0.0052391815
-1.73932e-07
0.0029414889
-8.3188143e-08
0.0015368425
-3.5963889e-08
0.00075177298
-1.3590764e-08
0.00034284395
-4.0716898e-09
0.00014232612
-6.923828e-10
4.9762734e-05
1.0133346e-05
6.4929555e-10
1.0132697e-05
3.7962273e-09
4.9759587e-05
1.2647372e-08
0.00014231727
3.344784e-08
0.00034282315
7.7355392e-08
0.00075172907
1.6177471e-07
0.001536758
3.0712659e-07
0.0029413436
5.1891926e-07
0.0052389697
7.421726e-07
0.0085750045
8.1401367e-07
0.0126873
5.5234192e-07
0.016678706
-1.6078951e-12
0.019202077
-5.5234584e-07
0.019202077
-8.1401832e-07
0.016678706
-7.4217465e-07
0.0126873
-5.1891219e-07
0.0085750045
-3.0710452e-07
0.0052389697
-1.6173858e-07
0.0029413436
-7.7313684e-08
0.001536758
-3.3410232e-08
0.00075172907
-1.262027e-08
0.00034282315
-3.7777854e-09
0.00014231727
-6.4096449e-10
4.9759587e-05
1.0132697e-05
6.044377e-10
1.0132092e-05
3.534221e-09
4.9756657e-05
1.177558e-08
0.00014230903
3.1146661e-08
0.00034280378
7.2050157e-08
0.00075168817
1.5074197e-07
0.0015366793
2.8640735e-07
0.0029412079
4.8468134e-07
0.0052387715
6.9538067e-07
0.0085747938
7.6674394e-07
0.012687229
5.232042e-07
0.01667895
-2.0612719e-12
0.0192026
-5.2320926e-07
0.0192026
-7.6674996e-07
0.01667895
-6.9538324e-07
0.012687229
-4.84672e-07
0.0085747938
-2.8637889e-07
0.0052387715
-1.5069596e-07
0.0029412079
-7.1997487e-08
0.0015366793
-3.1099443e-08
0.00075168817
-1.1741679e-08
0.00034280378
-3.5112394e-09
0.00014230903
-5.9407716e-10
4.9756657e-05
1.0132092e-05
5.6370989e-10
1.0131528e-05
3.2963135e-09
4.9753924e-05
1.0983839e-08
0.00014230134
2.9056212e-08
0.0003427857
6.7228483e-08
0.00075165
1.4070616e-07
0.0015366059
2.6752794e-07
0.0029410811
4.5337183e-07
0.0052385856
6.5227556e-07
0.0085745949
7.2263647e-07
0.012687158
4.9567389e-07
0.016679177
-2.7581076e-12
0.019203096
-4.9568062e-07
0.019203096
-7.2264442e-07
0.016679177
-6.5227902e-07
0.012687158
-4.5336012e-07
0.0085745949
-2.6749229e-07
0.0052385856
-1.4064892e-07
0.0029410811
-6.7163312e-08
0.0015366059
-2.8998018e-08
0.00075165
-1.0942168e-08
0.0003427857
-3.2681414e-09
0.00014230134
-5.5102857e-10
4.9753925e-05
1.0131528e-05
5.2657229e-10
1.0131002e-05
3.0793621e-09
4.9751372e-05
1.0261733e-08
0.00014229416
2.7149142e-08
0.00034276882
6.2827895e-08
0.00075161432
1.3153961e-07
0.0015365372
2.5025701e-07
0.0029409624
4.2463718e-07
0.0052384112
6.1245313e-07
0.0085744071
6.8142344e-07
0.012687089
4.6965704e-07
0.016679388
-3.7211701e-12
0.019203565
-4.69666e-07
0.019203565
-6.8143392e-07
0.016679388
-6.1245787e-07
0.012687089
-4.2462294e-07
0.0085744071
-2.5021327e-07
0.0052384112
-1.3146961e-07
0.0029409624
-6.2748478e-08
0.0015365372
-2.7078427e-08
0.00075161432
-1.0211192e-08
0.00034276882
-3.0452638e-09
0.00014229416
-5.1124087e-10
4.9751372e-05
1.0131002e-05
4.9258011e-10
1.0130509e-05
2.8807755e-09
4.9748983e-05
9.6006662e-09
0.00014228744
2.5402884e-08
0.00034275301
5.8796827e-08
0.00075158092
1.2313685e-07
0.0015364728
2.3440316e-07
0.0029408511
3.9818447e-07
0.0052382475
5.7557693e-07
0.0085742297
6.4285273e-07
0.012687022
4.4503232e-07
0.016679586
-4.9579201e-12
0.01920401
-4.450441e-07
0.01920401
-6.4286634e-07
0.016679586
-5.7558333e-07
0.012687022
-3.9816748e-07
0.0085742297
-2.3435026e-07
0.0052382475
-1.2305233e-07
0.0029408511
-5.870118e-08
0.0015364728
-2.5317895e-08
0.00075158092
-9.5400129e-09
0.00034275302
-2.8399198e-09
0.00014228744
-4.7422681e-10
4.9748984e-05
1.0130509e-05
4.6136182e-10
1.0130048e-05
2.698389e-09
4.9746746e-05
8.9934565e-09
0.00014228114
2.3798558e-08
0.00034273821
5.5092069e-08
0.00075154963
1.1540926e-07
0.0015364125
2.1980463e-07
0.0029407467
3.7376235e-07
0.0052380935
5.4134948e-07
0.0085740621
6.0672416e-07
0.012686957
4.2174022e-07
0.016679771
-6.4833345e-12
0.019204432
-4.2175541e-07
0.019204432
-6.0674151e-07
0.016679771
-5.4135791e-07
0.012686957
-3.737423e-07
0.0085740621
-2.1974134e-07
0.0052380935
-1.1530821e-07
0.0029407467
-5.4977934e-08
0.0015364125
-2.3697313e-08
0.00075154963
-8.9212904e-09
0.00034273821
-2.6498415e-09
0.00014228114
-4.3956939e-10
4.9746747e-05
1.0130048e-05
4.3260519e-10
1.0129615e-05
2.5303812e-09
4.9744649e-05
8.4340605e-09
0.00014227524
2.2320287e-08
0.00034272432
5.167731e-08
0.00075152027
1.0828241e-07
0.0015363559
2.0632568e-07
0.0029406487
3.511608e-07
0.0052379487
5.0952268e-07
0.0085739038
5.7282999e-07
0.012686893
3.9966622e-07
0.016679944
-8.216997e-12
0.019204832
-3.9968536e-07
0.019204832
-5.7285167e-07
0.016679944
-5.0953346e-07
0.012686893
-3.5113728e-07
0.0085739038
-2.0625055e-07
0.0052379487
-1.0816254e-07
0.0029406486
-5.1542145e-08
0.0015363559
-2.2200565e-08
0.00075152027
-8.348816e-09
0.00034272432
-2.4731006e-09
0.00014227524
-4.0690934e-10
4.9744649e-05
1.0129615e-05
4.0604511e-10
1.0129209e-05
2.3752076e-09
4.9742679e-05
7.9173498e-09
0.0001422697
2.0954574e-08
0.00034271129
4.8521592e-08
0.00075149271
1.016926e-07
0.0015363027
1.9384928e-07
0.0029405565
3.3019525e-07
0.0052378123
4.7987154e-07
0.0085737541
5.4102364e-07
0.012686832
3.7878257e-07
0.016680107
-1.0207433e-11
0.01920521
-3.7880619e-07
0.01920521
-5.4105023e-07
0.016680107
-4.7988495e-07
0.012686832
-3.3016774e-07
0.0085737541
-1.9376066e-07
0.0052378123
-1.0155133e-07
0.0029405565
-4.8362559e-08
0.0015363027
-2.081391e-08
0.0007514927
-7.817298e-09
0.00034271129
-2.3080472e-09
0.0001422697
-3.7593565e-10
4.974268e-05
1.0129209e-05
3.8145404e-10
1.0128828e-05
2.2315393e-09
4.9740829e-05
7.4389143e-09
0.00014226449
1.9689839e-08
0.00034269903
4.5598443e-08
0.0007514668
9.5585506e-08
0.0015362527
1.8227601e-07
0.0029404698
3.1071052e-07
0.0052376839
4.5220762e-07
0.0085736126
5.1112194e-07
0.012686773
3.5896806e-07
0.016680259
-1.2418748e-11
0.019205569
-3.5899666e-07
0.019205569
-5.11154e-07
0.016680259
-4.5222392e-07
0.012686773
-3.106784e-07
0.0085736126
-1.8217203e-07
0.0052376839
-9.541999e-08
0.0029404698
-4.5412422e-08
0.0015362527
-1.9525536e-08
0.0007514668
-7.3221695e-09
0.00034269904
-2.1532531e-09
0.00014226449
-3.4637763e-10
4.9740829e-05
1.0128828e-05
3.5863775e-10
1.0128469e-05
2.0982473e-09
4.9739089e-05
6.9950043e-09
0.00014225959
1.8516187e-08
0.00034268751
4.2885081e-08
0.00075144243
8.9914059e-08
0.0015362057
1.7151887e-07
0.0029403882
2.9256766e-07
0.0052375628
4.2635811e-07
0.0085734788
4.8302713e-07
0.012686717
3.4023064e-07
0.016680402
-1.4837557e-11
0.01920591
-3.4026471e-07
0.01920591
-4.8306523e-07
0.016680402
-4.2637756e-07
0.012686717
-2.9253021e-07
0.0085734788
-1.7139748e-07
0.0052375628
-8.9721181e-08
0.0029403882
-4.2668692e-08
0.0015362057
-1.8325339e-08
0.00075144243
-6.8595409e-09
0.00034268751
-2.0075012e-09
0.00014225959
-3.180031e-10
4.973909e-05
1.0128469e-05
3.3742382e-10
1.0128131e-05
1.9743222e-09
4.9737452e-05
6.5822712e-09
0.00014225498
1.7424852e-08
0.00034267667
4.0361542e-08
0.00075141949
8.4637366e-08
0.0015361614
1.6150276e-07
0.0029403113
2.7564826e-07
0.0052374487
4.0217393e-07
0.0085733523
4.56562e-07
0.012686662
3.2242776e-07
0.016680536
-1.7460167e-11
0.019206232
-3.2246778e-07
0.019206232
-4.566067e-07
0.016680536
-4.0219674e-07
0.012686662
-2.7560468e-07
0.0085733523
-1.6136174e-07
0.0052374487
-8.4413785e-08
0.0029403113
-4.0111183e-08
0.0015361614
-1.7204377e-08
0.00075141949
-6.4259469e-09
0.00034267667
-1.8697103e-09
0.00014225498
-2.9060901e-10
4.9737453e-05
1.0128131e-05
3.1766879e-10
1.0127813e-05
1.858937e-09
4.9735911e-05
6.1979673e-09
0.00014225064
1.6408534e-08
0.00034266646
3.801086e-08
0.00075139789
7.9720064e-08
0.0015361197
1.5216201e-07
0.0029402389
2.5984682e-07
0.005237341
3.7952442e-07
0.0085732326
4.3168187e-07
0.01268661
3.0561401e-07
0.016680662
-2.0284846e-11
0.019206538
-3.0566045e-07
0.019206538
-4.3173377e-07
0.016680662
-3.7955083e-07
0.01268661
-2.5979625e-07
0.0085732326
-1.5199898e-07
0.005237341
-7.9462268e-08
0.0029402389
-3.7722766e-08
0.0015361197
-1.6155223e-08
0.00075139789
-6.0185598e-09
0.00034266646
-1.739006e-09
0.00014225064
-2.6403238e-10
4.9735911e-05
1.0127814e-05
2.9923478e-10
1.0127514e-05
1.7512779e-09
4.9734458e-05
5.8393961e-09
0.00014224655
1.546024e-08
0.00034265684
3.5817306e-08
0.00075137753
7.5130208e-08
0.0015360804
1.4343769e-07
0.0029401706
2.4506849e-07
0.0052372394
3.5828191e-07
0.0085731194
4.0819311e-07
0.01268656
2.8960605e-07
0.01668078
-2.3321675e-11
0.019206827
-2.8965941e-07
0.019206827
-4.0825281e-07
0.01668078
-3.5831213e-07
0.01268656
-2.4501002e-07
0.0085731194
-1.432502e-07
0.0052372394
-7.4834564e-08
0.0029401706
-3.5487606e-08
0.0015360804
-1.5170815e-08
0.00075137753
-5.6346429e-09
0.00034265684
-1.614555e-09
0.00014224656
-2.3812858e-10
4.9734459e-05
1.0127514e-05
2.8202099e-10
1.0127232e-05
1.6507787e-09
4.9733089e-05
5.5046732e-09
0.0001422427
1.4574848e-08
0.00034264777
3.3768606e-08
0.00075135833
7.0841628e-08
0.0015360433
1.3528105e-07
0.0029401061
2.3123635e-07
0.0052371434
3.3835832e-07
0.0085730123
3.861203e-07
0.012686512
2.745253e-07
0.016680892
-2.6569865e-11
0.019207102
-2.7458603e-07
0.019207102
-3.8618839e-07
0.016680892
-3.3839259e-07
0.012686512
-2.3116902e-07
0.0085730123
-1.3506657e-07
0.0052371434
-7.0504447e-08
0.0029401061
-3.3393394e-08
0.0015360433
-1.4246005e-08
0.00075135833
-5.2722962e-09
0.00034264777
-1.4957871e-09
0.0001422427
-2.1279637e-10
4.973309e-05
1.0127232e-05
2.6590517e-10
1.0126965e-05
1.5567007e-09
4.9731798e-05
5.1913577e-09
0.00014223906
1.3746177e-08
0.00034263921
3.1851341e-08
0.00075134023
6.6827766e-08
0.0015360083
1.276427e-07
0.0029400453
2.1826646e-07
0.0052370528
3.1962574e-07
0.0085729109
3.6522108e-07
0.012686467
2.6011942e-07
0.016680997
-3.0029256e-11
0.019207362
-2.6018794e-07
0.019207362
-3.6529815e-07
0.016680997
-3.1966424e-07
0.012686467
-2.181893e-07
0.0085729109
-1.2739871e-07
0.0052370528
-6.644541e-08
0.0029400453
-3.1426808e-08
0.0015360083
-1.3374734e-08
0.00075134022
-4.929179e-09
0.00034263921
-1.3820371e-09
0.00014223907
-1.8794807e-10
4.9731798e-05
1.0126966e-05
2.5083616e-10
1.0126714e-05
1.4687938e-09
4.9730579e-05
4.8986038e-09
0.00014223563
1.2971606e-08
0.00034263114
3.0058232e-08
0.00075132314
6.307159e-08
0.0015359753
1.2049092e-07
0.0029399879
2.0611447e-07
0.0052369672
3.0205449e-07
0.008572815
3.4562426e-07
0.012686423
2.4661044e-07
0.016681096
-3.364721e-11
0.019207609
-2.4668704e-07
0.019207609
-3.4571079e-07
0.016681096
-3.0209736e-07
0.012686423
-2.0602645e-07
0.008572815
-1.202149e-07
0.0052369672
-6.2640526e-08
0.0029399879
-2.9580733e-08
0.0015359753
-1.255456e-08
0.00075132314
-4.6045934e-09
0.00034263114
-1.2731679e-09
0.00014223563
-1.6358796e-10
4.973058e-05
1.0126714e-05
2.36679e-10
1.0126477e-05
1.3862047e-09
4.9729429e-05
4.6236078e-09
0.0001422324
1.2244364e-08
0.00034262351
2.8375642e-08
0.000751307
5.954782e-08
0.0015359442
1.1377811e-07
0.0029399337
1.9469005e-07
0.0052368863
2.854817e-07
0.0085727242
3.2698725e-07
0.012686382
2.3363452e-07
0.016681189
-3.7297015e-11
0.019207842
-2.3371956e-07
0.019207842
-3.2708366e-07
0.016681189
-2.8552896e-07
0.012686382
-1.9459011e-07
0.0085727242
-1.1346761e-07
0.0052368862
-5.9064679e-08
0.0029399336
-2.7841758e-08
0.0015359441
-1.1778922e-08
0.000751307
-4.2958727e-09
0.00034262351
-1.1684311e-09
0.0001422324
-1.3963216e-10
4.972943e-05
1.0126477e-05
2.234734e-10
1.0126253e-05
1.3092764e-09
4.9728342e-05
4.3674547e-09
0.00014222934
1.1566285e-08
0.00034261631
2.680456e-08
0.00075129176
5.6253325e-08
0.0015359147
1.0749817e-07
0.0029398824
1.8400231e-07
0.0052368098
2.6998136e-07
0.0085726382
3.0961117e-07
0.012686342
2.2157014e-07
0.016681277
-4.0859332e-11
0.019208064
-2.2166362e-07
0.019208064
-3.0971764e-07
0.016681277
-2.7003286e-07
0.012686342
-1.8388928e-07
0.0085726382
-1.0715088e-07
0.0052368097
-5.571517e-08
0.0029398824
-2.6211485e-08
0.0015359147
-1.1050269e-08
0.00075129176
-4.0045919e-09
0.00034261631
-1.068498e-09
0.00014222934
-1.1626372e-10
4.9728343e-05
1.0126253e-05
2.1099898e-10
1.0126041e-05
1.2365578e-09
4.9727316e-05
4.125423e-09
0.00014222645
1.0926572e-08
0.00034260951
2.5325296e-08
0.00075127736
5.3155484e-08
0.0015358869
1.0159031e-07
0.002939834
1.7392127e-07
0.0052367374
2.5529136e-07
0.0085725569
2.9296997e-07
0.012686304
2.0987949e-07
0.01668136
-4.4259901e-11
0.019208274
-2.099812e-07
0.019208274
-2.9308644e-07
0.01668136
-2.5534672e-07
0.012686304
-1.7379398e-07
0.0085725569
-1.0120425e-07
0.0052367374
-5.2560084e-08
0.002939834
-2.4671193e-08
0.0015358869
-1.035878e-08
0.00075127736
-3.7268423e-09
0.00034260951
-9.7246117e-10
0.00014222645
-9.3504098e-11
4.9727317e-05
1.0126042e-05
1.9953604e-10
1.0125841e-05
1.169949e-09
4.9726344e-05
3.9036149e-09
0.00014222371
1.0338428e-08
0.00034260307
2.395922e-08
0.00075126374
5.0283523e-08
0.0015358605
9.6104777e-08
0.0029397882
1.6457019e-07
0.005236669
2.4169605e-07
0.0085724798
2.7766642e-07
0.012686268
1.9919194e-07
0.016681439
-4.731513e-11
0.019208473
-1.9930128e-07
0.019208473
-2.7779242e-07
0.016681439
-2.4175457e-07
0.012686268
-1.6442739e-07
0.0085724798
-9.5678384e-08
0.0052366689
-4.9629549e-08
0.0029397881
-2.3243384e-08
0.0015358605
-9.7187584e-09
0.00075126374
-3.469531e-09
0.00034260307
-8.8282888e-10
0.00014222371
-7.1935358e-11
4.9726345e-05
1.0125841e-05
1.8848154e-10
1.0125652e-05
1.1055258e-09
4.9725426e-05
3.6894388e-09
0.00014222112
9.7737671e-09
0.00034259698
2.2657625e-08
0.00075125085
4.7564073e-08
0.0015358356
9.0918189e-08
0.0029397448
1.5569599e-07
0.0052366042
2.2870779e-07
0.0085724068
2.6286778e-07
0.012686234
1.8871402e-07
0.016681513
-4.9860521e-11
0.019208662
-1.8883011e-07
0.019208662
-2.630026e-07
0.016681513
-2.2876853e-07
0.012686234
-1.5553642e-07
0.0085724068
-9.0450315e-08
0.0052366042
-4.685119e-08
0.0029397448
-2.1880723e-08
0.0015358356
-9.1034835e-09
0.00075125085
-3.2210783e-09
0.00034259699
-7.9643992e-10
0.00014222113
-5.1308851e-11
4.9725427e-05
1.0125652e-05
1.7897339e-10
1.0125472e-05
1.0505445e-09
4.9724553e-05
3.5059577e-09
0.00014221867
9.2837216e-09
0.0003425912
2.1508417e-08
0.00075123862
4.5126427e-08
0.001535812
8.6236527e-08
0.0029397037
1.4769664e-07
0.0052365428
2.1705883e-07
0.0085723374
2.4972564e-07
0.012686202
1.794964e-07
0.016681583
-5.1558341e-11
0.019208841
-1.7961775e-07
0.019208841
-2.498683e-07
0.016681583
-2.1712093e-07
0.012686202
-1.4751951e-07
0.0085723374
-8.57275e-08
0.0052365427
-4.4357174e-08
0.0029397037
-2.0675022e-08
0.001535812
-8.5680778e-09
0.00075123862
-3.0076964e-09
0.00034259121
-7.2277105e-10
0.00014221867
-3.3781897e-11
4.9724554e-05
1.0125472e-05
1.6773122e-10
1.0125303e-05
9.8528701e-10
4.9723734e-05
3.2919624e-09
0.00014221636
8.7331896e-09
0.00034258576
2.0279842e-08
0.00075122707
4.2644355e-08
0.0015357896
8.1623294e-08
0.0029396647
1.3991472e-07
0.0052364845
2.0572649e-07
0.0085722716
2.3678414e-07
0.012686171
1.7032324e-07
0.01668165
-5.187452e-11
0.019209011
-1.7044758e-07
0.019209011
-2.3693327e-07
0.01668165
-2.0578971e-07
0.012686171
-1.3972136e-07
0.0085722716
-8.1078125e-08
0.0052364844
-4.1829659e-08
0.0029396647
-1.9406111e-08
0.0015357896
-7.989847e-09
0.00075122707
-2.77858e-09
0.00034258576
-6.4940665e-10
0.00014221636
-1.9499623e-11
4.9723734e-05
1.0125303e-05
1.6281788e-10
1.0125139e-05
9.5709909e-10
4.9722938e-05
3.1923284e-09