/*--------------------------------*- C++ -*----------------------------------*\
| =========                 |                                                 |
| \\      /  F ield         | OpenFOAM: The Open Source CFD Toolbox           |
|  \\    /   O peration     | Version:  2406                                  |
|   \\  /    A nd           | Website:  www.openfoam.com                      |
|    \\/     M anipulation  |                                                 |
\*---------------------------------------------------------------------------*/
FoamFile
{
    version     2.0;
    format      ascii;
    arch        "LSB;label=32;scalar=64";
    class       volVectorField;
    location    "34";
    object      U;
}
// * * * * * * * * * * * * * * * * * * * * * * * * * * * * * * * * * * * * * //

dimensions      [0 1 -1 0 0 0 0];

internalField   nonuniform List<vector> 
1176
(
(0.019493789 7.0786213e-07 0)
(0.066677318 8.1696534e-06 0)
(0.13357994 3.9503159e-05 0)
(0.22724701 0.00010873576 0)
(0.35591522 0.00021176028 0)
(0.52772023 0.0003039629 0)
(0.74780387 0.00031818028 0)
(1.0136216 0.00024904601 0)
(1.3093323 0.00016667008 0)
(1.6017081 0.00011264684 0)
(1.8421723 7.0213968e-05 0)
(1.9793239 2.3940413e-05 0)
(1.9793239 -2.3941202e-05 0)
(1.8421723 -7.0214171e-05 0)
(1.6017081 -0.00011264509 0)
(1.3093323 -0.00016666282 0)
(1.0136216 -0.00024902725 0)
(0.74780387 -0.00031814489 0)
(0.52772024 -0.00030391149 0)
(0.35591523 -0.00021170135 0)
(0.22724701 -0.00010868117 0)
(0.13357995 -3.9463126e-05 0)
(0.066677323 -8.1473422e-06 0)
(0.019493791 -7.0114961e-07 0)
(0.020187017 -3.7419195e-06 0)
(0.068813532 -2.4638643e-05 0)
(0.13732107 -9.6548557e-05 0)
(0.23247391 -0.0002483946 0)
(0.36204617 -0.00047268779 0)
(0.53373556 -0.00067421175 0)
(0.75267407 -0.00069486926 0)
(1.0170176 -0.00049687341 0)
(1.3116385 -0.00023345889 0)
(1.6034438 -4.9824228e-05 0)
(1.8436588 1.9764596e-05 0)
(1.9807026 1.3426925e-05 0)
(1.9807026 -1.3429657e-05 0)
(1.8436588 -1.9768021e-05 0)
(1.6034438 4.9819439e-05 0)
(1.3116385 0.00023345252 0)
(1.0170176 0.00049686438 0)
(0.75267403 0.00069485449 0)
(0.53373553 0.00067419063 0)
(0.36204615 0.00047266428 0)
(0.2324739 0.00024837428 0)
(0.13732107 9.6535057e-05 0)
(0.068813532 2.4632009e-05 0)
(0.020187017 3.7400752e-06 0)
(0.020018442 2.0918355e-06 0)
(0.068327405 1.272077e-05 0)
(0.13655404 4.6877255e-05 0)
(0.23159544 0.00011389739 0)
(0.36138708 0.00019769272 0)
(0.53366969 0.00023903247 0)
(0.75344344 0.00020559838 0)
(1.0184881 0.00011361154 0)
(1.3134639 7.4314043e-05 0)
(1.6053464 7.9533273e-05 0)
(1.8455118 7.0516764e-05 0)
(1.9825245 2.7825756e-05 0)
(1.9825245 -2.7825361e-05 0)
(1.8455118 -7.0515645e-05 0)
(1.6053464 -7.9530733e-05 0)
(1.3134639 -7.43097e-05 0)
(1.0184882 -0.00011360621 0)
(0.75344346 -0.00020559561 0)
(0.53366971 -0.00023902953 0)
(0.3613871 -0.00019769199 0)
(0.23159545 -0.00011389812 0)
(0.13655405 -4.687868e-05 0)
(0.068327406 -1.2722021e-05 0)
(0.020018442 -2.0922826e-06 0)
(0.019966547 7.0076276e-07 0)
(0.068159231 4.687042e-06 0)
(0.13624021 1.9355437e-05 0)
(0.2311194 5.6456178e-05 0)
(0.36078093 0.00013444571 0)
(0.53306293 0.00025829332 0)
(0.75295637 0.00035344771 0)
(1.0181104 0.00036912045 0)
(1.313184 0.00030758923 0)
(1.6051633 0.0002277728 0)
(1.8453995 0.00014555954 0)
(1.9824491 4.999695e-05 0)
(1.9824491 -4.9997865e-05 0)
(1.8453995 -0.00014556014 0)
(1.6051633 -0.00022777276 0)
(1.313184 -0.0003075902 0)
(1.0181104 -0.00036912166 0)
(0.75295636 -0.00035344757 0)
(0.53306292 -0.00025829421 0)
(0.36078092 -0.00013444525 0)
(0.23111939 -5.6454922e-05 0)
(0.1362402 -1.9354236e-05 0)
(0.068159229 -4.686307e-06 0)
(0.019966546 -7.0053732e-07 0)
(0.019942203 2.9076983e-07 0)
(0.068078703 1.9872079e-06 0)
(0.13608628 8.2361311e-06 0)
(0.23087699 2.3699361e-05 0)
(0.36044744 5.6881714e-05 0)
(0.53266448 0.00012306906 0)
(0.75256878 0.00022681856 0)
(1.017808 0.00032272278 0)
(1.3129044 0.00034572533 0)
(1.604912 0.00030730043 0)
(1.8452029 0.00021095348 0)
(1.9822898 7.4614458e-05 0)
(1.9822898 -7.4614932e-05 0)
(1.8452029 -0.00021095351 0)
(1.604912 -0.0003072999 0)
(1.3129044 -0.00034572451 0)
(1.017808 -0.00032272402 0)
(0.75256878 -0.00022682105 0)
(0.53266448 -0.00012307263 0)
(0.36044744 -5.6885148e-05 0)
(0.23087699 -2.3702061e-05 0)
(0.13608628 -8.2379115e-06 0)
(0.068078703 -1.9881344e-06 0)
(0.019942204 -2.9104198e-07 0)
(0.019933132 1.718172e-07 0)
(0.068047755 1.1940843e-06 0)
(0.13602488 5.0652214e-06 0)
(0.23077535 1.4968913e-05 0)
(0.36029898 3.621966e-05 0)
(0.5324792 7.6944478e-05 0)
(0.75239427 0.00014713813 0)
(1.0177222 0.00023749091 0)
(1.3129292 0.00028525675 0)
(1.6049746 0.00027441565 0)
(1.8452865 0.00019644674 0)
(1.9823834 7.1177273e-05 0)
(1.9823834 -7.117677e-05 0)
(1.8452865 -0.00019644571 0)
(1.6049746 -0.00027441414 0)
(1.3129292 -0.00028525524 0)
(1.0177222 -0.00023749042 0)
(0.75239427 -0.00014713872 0)
(0.5324792 -7.6945758e-05 0)
(0.36029899 -3.6221035e-05 0)
(0.23077535 -1.4970036e-05 0)
(0.13602489 -5.0659939e-06 0)
(0.068047755 -1.1945096e-06 0)
(0.019933132 -1.7194635e-07 0)
(0.0199234 1.5587751e-07 0)
(0.068015506 1.0700827e-06 0)
(0.13596286 4.4934843e-06 0)
(0.23067607 1.3195511e-05 0)
(0.36015773 3.1857233e-05 0)
(0.53230178 6.6958448e-05 0)
(0.75221429 0.00012411925 0)
(1.0176105 0.00019917108 0)
(1.3129358 0.00025490913 0)
(1.6050904 0.00024595237 0)
(1.8454579 0.00018127952 0)
(1.9825798 6.6548979e-05 0)
(1.9825798 -6.654798e-05 0)
(1.8454579 -0.00018127813 0)
(1.6050904 -0.00024595088 0)
(1.3129358 -0.00025490806 0)
(1.0176105 -0.0001991708 0)
(0.75221429 -0.00012411959 0)
(0.53230178 -6.6959084e-05 0)
(0.36015773 -3.1857858e-05 0)
(0.23067607 -1.3195983e-05 0)
(0.13596286 -4.4937992e-06 0)
(0.068015506 -1.0702566e-06 0)
(0.0199234 -1.5593092e-07 0)
(0.019915697 1.2758979e-07 0)
(0.067989792 8.7802899e-07 0)
(0.13591293 3.6960282e-06 0)
(0.23059503 1.0901659e-05 0)
(0.36003987 2.6613452e-05 0)
(0.53214753 5.7237302e-05 0)
(0.75204133 0.00010911078 0)
(1.0174723 0.0001793667 0)
(1.3128926 0.00023802529 0)
(1.6051414 0.00023746803 0)
(1.8455877 0.00017750719 0)
(1.9827514 6.5539802e-05 0)
(1.9827514 -6.5538892e-05 0)
(1.8455877 -0.00017750604 0)
(1.6051414 -0.00023746689 0)
(1.3128926 -0.00023802462 0)
(1.0174723 -0.00017936656 0)
(0.75204133 -0.00010911108 0)
(0.53214753 -5.7237855e-05 0)
(0.36003987 -2.661406e-05 0)
(0.23059503 -1.0902177e-05 0)
(0.13591293 -3.6964066e-06 0)
(0.067989792 -8.7824737e-07 0)
(0.019915697 -1.2765757e-07 0)
(0.019909217 1.0466438e-07 0)
(0.067968141 7.23157e-07 0)
(0.13587084 3.052145e-06 0)
(0.23052654 9.0119009e-06 0)
(0.35993984 2.199999e-05 0)
(0.53201542 4.7473602e-05 0)
(0.75188901 9.2014292e-05 0)
(1.0173341 0.00015618218 0)
(1.3128278 0.0002169971 0)
(1.6051595 0.0002270966 0)
(1.8456699 0.00017232656 0)
(1.982868 6.4147975e-05 0)
(1.982868 -6.4147305e-05 0)
(1.8456699 -0.00017232576 0)
(1.6051595 -0.00022709582 0)
(1.3128278 -0.00021699665 0)
(1.0173341 -0.00015618205 0)
(0.75188901 -9.2014549e-05 0)
(0.53201542 -4.7474139e-05 0)
(0.35993984 -2.2000606e-05 0)
(0.23052654 -9.0124298e-06 0)
(0.13587084 -3.0525379e-06 0)
(0.067968141 -7.2338785e-07 0)
(0.019909217 -1.0473667e-07 0)
(0.019903971 8.6134201e-08 0)
(0.067950552 5.9698677e-07 0)
(0.13583649 2.527424e-06 0)
(0.2304703 7.4916877e-06 0)
(0.35985692 1.8376405e-05 0)
(0.53190436 3.983583e-05 0)
(0.75175836 7.7712334e-05 0)
(1.0172122 0.00013432455 0)
(1.3127613 0.00019323391 0)
(1.6051772 0.00021058365 0)
(1.8457533 0.00016272984 0)
(1.9829863 6.1084397e-05 0)
(1.9829863 -6.1084012e-05 0)
(1.8457533 -0.00016272938 0)
(1.6051772 -0.00021058324 0)
(1.3127613 -0.00019323369 0)
(1.0172122 -0.00013432461 0)
(0.75175836 -7.7712794e-05 0)
(0.53190436 -3.9836563e-05 0)
(0.35985692 -1.8377168e-05 0)
(0.2304703 -7.4923019e-06 0)
(0.13583649 -2.5278601e-06 0)
(0.067950552 -5.9723627e-07 0)
(0.019903971 -8.621157e-08 0)
(0.019899543 7.3363021e-08 0)
(0.067935688 5.0898216e-07 0)
(0.13580742 2.1569256e-06 0)
(0.23042259 6.4028207e-06 0)
(0.35978626 1.5747667e-05 0)
(0.5318089 3.4277914e-05 0)
(0.75164409 6.7204707e-05 0)
(1.017102 0.00011723005 0)
(1.3126976 0.00017262474 0)
(1.6051928 0.0001930891 0)
(1.8458371 0.00015219868 0)
(1.9831061 5.7544844e-05 0)
(1.9831061 -5.7544654e-05 0)
(1.8458371 -0.00015219845 0)
(1.6051928 -0.00019308892 0)
(1.3126976 -0.00017262472 0)
(1.0171021 -0.00011723035 0)
(0.75164409 -6.7205429e-05 0)
(0.5318089 -3.4278875e-05 0)
(0.35978626 -1.5748592e-05 0)
(0.23042259 -6.4035322e-06 0)
(0.13580742 -2.1574111e-06 0)
(0.067935688 -5.0925218e-07 0)
(0.019899543 -7.3445727e-08 0)
(0.019895721 6.3731024e-08 0)
(0.06792285 4.4253338e-07 0)
(0.13578228 1.8767598e-06 0)
(0.23038125 5.5765594e-06 0)
(0.35972483 1.3738719e-05 0)
(0.53172535 2.999804e-05 0)
(0.75154264 5.9111587e-05 0)
(1.0170011 0.0001038882 0)
(1.3126344 0.0001554028 0)
(1.6052015 0.00017849523 0)
(1.8459125 0.00014271549 0)
(1.9832185 5.4330598e-05 0)
(1.9832185 -5.4330534e-05 0)
(1.8459125 -0.0001427154 0)
(1.6052015 -0.00017849518 0)
(1.3126344 -0.00015540292 0)
(1.0170011 -0.00010388869 0)
(0.75154264 -5.9112469e-05 0)
(0.53172535 -2.9999105e-05 0)
(0.35972483 -1.3739693e-05 0)
(0.23038125 -5.5772864e-06 0)
(0.13578228 -1.8772429e-06 0)
(0.06792285 -4.4279687e-07 0)
(0.019895721 -6.3811049e-08 0)
(0.019892371 5.6091733e-08 0)
(0.067911586 3.8978276e-07 0)
(0.13576021 1.6541334e-06 0)
(0.2303449 4.918777e-06 0)
(0.35967069 1.213202e-05 0)
(0.53165136 2.6542433e-05 0)
(0.7514519 5.2498748e-05 0)
(1.0169086 9.2875635e-05 0)
(1.3125728 0.0001406148 0)
(1.605205 0.00016529606 0)
(1.8459798 0.00013398917 0)
(1.9833221 5.1387382e-05 0)
(1.9833221 -5.1387418e-05 0)
(1.8459798 -0.00013398917 0)
(1.605205 -0.00016529612 0)
(1.3125728 -0.00014061504 0)
(1.0169086 -9.2876223e-05 0)
(0.7514519 -5.2499664e-05 0)
(0.53165136 -2.6543464e-05 0)
(0.35967069 -1.2132928e-05 0)
(0.2303449 -4.919437e-06 0)
(0.13576021 -1.6545622e-06 0)
(0.067911586 -3.9001271e-07 0)
(0.019892371 -5.6161041e-08 0)
(0.019889403 4.9849468e-08 0)
(0.067901607 3.4661868e-07 0)
(0.13574064 1.4717664e-06 0)
(0.23031264 4.3793931e-06 0)
(0.35962253 1.0812308e-05 0)
(0.53158531 2.3691389e-05 0)
(0.75137029 4.6984088e-05 0)
(1.016824 8.3546207e-05 0)
(1.3125139 0.00012773732 0)
(1.6052051 0.0001529333 0)
(1.8460415 0.00012582021 0)
(1.9834196 4.8616388e-05 0)
(1.9834196 -4.8616512e-05 0)
(1.8460415 -0.00012582031 0)
(1.6052051 -0.00015293344 0)
(1.3125139 -0.00012773764 0)
(1.016824 -8.354681e-05 0)
(0.75137029 -4.6984926e-05 0)
(0.53158531 -2.3692273e-05 0)
(0.35962253 -1.0813053e-05 0)
(0.23031264 -4.3799189e-06 0)
(0.13574064 -1.4720981e-06 0)
(0.067901607 -3.4679243e-07 0)
(0.019889403 -4.9901268e-08 0)
(0.019886752 4.4699271e-08 0)
(0.067892685 3.1094483e-07 0)
(0.13572313 1.3208203e-06 0)
(0.23028375 3.9322106e-06 0)
(0.35957935 9.7158829e-06 0)
(0.53152592 2.1315582e-05 0)
(0.75129648 4.2360219e-05 0)
(1.0167465 7.5619803e-05 0)
(1.3124581 0.00011654219 0)
(1.6052027 0.00014169853 0)
(1.8460982 0.00011827082 0)
(1.9835117 4.6031417e-05 0)
(1.9835117 -4.6031611e-05 0)
(1.8460982 -0.00011827098 0)
(1.6052027 -0.00014169874 0)
(1.3124581 -0.00011654254 0)
(1.0167465 -7.5620351e-05 0)
(0.75129648 -4.2360895e-05 0)
(0.53152592 -2.1316233e-05 0)
(0.35957935 -9.7163922e-06 0)
(0.23028375 -3.9325469e-06 0)
(0.13572313 -1.3210178e-06 0)
(0.067892685 -3.1104198e-07 0)
(0.019886752 -4.4727351e-08 0)
(0.019884362 4.0387279e-08 0)
(0.067884644 2.810421e-07 0)
(0.13570735 1.1941615e-06 0)
(0.23025769 3.5564968e-06 0)
(0.35954035 8.7929076e-06 0)
(0.53147216 1.931004e-05 0)
(0.75122934 3.8440148e-05 0)
(1.0166753 6.8838881e-05 0)
(1.3124053 0.00010678341 0)
(1.6051983 0.0001315521 0)
(1.8461504 0.0001113278 0)
(1.9835985 4.3630976e-05 0)
(1.9835985 -4.3631219e-05 0)
(1.8461504 -0.00011132802 0)
(1.6051983 -0.00013155235 0)
(1.3124053 -0.00010678375 0)
(1.0166753 -6.8839323e-05 0)
(0.75122934 -3.84406e-05 0)
(0.53147216 -1.9310394e-05 0)
(0.35954035 -8.7931225e-06 0)
(0.23025769 -3.5565974e-06 0)
(0.13570735 -1.1941923e-06 0)
(0.067884644 -2.8104422e-07 0)
(0.019884362 -4.0385943e-08 0)
(0.019882195 3.6712791e-08 0)
(0.067877349 2.5554308e-07 0)
(0.13569303 1.0860875e-06 0)
(0.23023403 3.2356445e-06 0)
(0.3595049 8.0036046e-06 0)
(0.5314232 1.7590953e-05 0)
(0.75116796 3.5067231e-05 0)
(1.0166096 6.2964106e-05 0)
(1.3123553 9.8203107e-05 0)
(1.6051923 0.00012233345 0)
(1.8461982 0.00010491294 0)
(1.9836803 4.1390277e-05 0)
(1.9836803 -4.1390542e-05 0)
(1.8461982 -0.00010491319 0)
(1.6051923 -0.00012233372 0)
(1.3123553 -9.8203416e-05 0)
(1.0166096 -6.2964403e-05 0)
(0.75116796 -3.5067411e-05 0)
(0.5314232 -1.7590953e-05 0)
(0.3595049 -8.0034695e-06 0)
(0.23023403 -3.2354646e-06 0)
(0.13569303 -1.0859196e-06 0)
(0.067877349 -2.5543176e-07 0)
(0.019882195 -3.667633e-08 0)
(0.019880219 3.3540393e-08 0)
(0.067870695 2.3351632e-07 0)
(0.13567996 9.9268375e-07 0)
(0.23021243 2.9581708e-06 0)
(0.35947252 7.3203208e-06 0)
(0.53137842 1.6100165e-05 0)
(0.75111164 3.2133021e-05 0)
(1.0165488 5.7823374e-05 0)
(1.3123082 9.0602395e-05 0)
(1.6051852 0.00011395327 0)
(1.8462423 9.8955773e-05 0)
(1.9837576 3.9288771e-05 0)
(1.9837576 -3.9289039e-05 0)
(1.8462423 -9.8956042e-05 0)
(1.6051852 -0.00011395355 0)
(1.3123082 -9.0602648e-05 0)
(1.0165488 -5.7823492e-05 0)
(0.75111164 -3.2132876e-05 0)
(0.53137842 -1.6099747e-05 0)
(0.35947252 -7.3197726e-06 0)
(0.23021243 -2.9576598e-06 0)
(0.13567996 -9.9228146e-07 0)
(0.067870695 -2.3327124e-07 0)
(0.019880219 -3.3462513e-08 0)
(0.019878409 3.0775959e-08 0)
(0.0678646 2.1431259e-07 0)
(0.13566798 9.1121339e-07 0)
(0.23019263 2.7160072e-06 0)
(0.35944282 6.7234561e-06 0)
(0.53133728 1.4796047e-05 0)
(0.75105976 2.9559713e-05 0)
(1.0164925 5.3292538e-05 0)
(1.3122638 8.3831533e-05 0)
(1.6051772 0.00010632394 0)
(1.846283 9.3403069e-05 0)
(1.9838307 3.7312253e-05 0)
(1.9838307 -3.7312511e-05 0)
(1.846283 -9.3403343e-05 0)
(1.6051772 -0.00010632421 0)
(1.3122638 -8.3831712e-05 0)
(1.0164925 -5.3292442e-05 0)
(0.75105976 -2.9559183e-05 0)
(0.53133728 -1.4795134e-05 0)
(0.35944282 -6.7224198e-06 0)
(0.23019263 -2.7151061e-06 0)
(0.13566798 -9.1053539e-07 0)
(0.0678646 -2.1391038e-07 0)
(0.019878409 -3.0649454e-08 0)
(0.019876745 2.834579e-08 0)
(0.067858993 1.974241e-07 0)
(0.13565697 8.3953814e-07 0)
(0.23017441 2.5028545e-06 0)
(0.35941547 6.1976886e-06 0)
(0.53129936 1.3645844e-05 0)
(0.75101183 2.7285355e-05 0)
(1.0164401 4.9271754e-05 0)
(1.3122219 7.7767703e-05 0)
(1.6051688 9.9356069e-05 0)
(1.8463207 8.8213433e-05 0)
(1.9838998 3.5449342e-05 0)
(1.9838998 -3.544959e-05 0)
(1.8463207 -8.8213712e-05 0)
(1.6051688 -9.9356337e-05 0)
(1.3122219 -7.7767799e-05 0)
(1.0164401 -4.9271408e-05 0)
(0.75101183 -2.728437e-05 0)
(0.53129936 -1.3644345e-05 0)
(0.35941547 -6.1960771e-06 0)
(0.23017441 -2.5014951e-06 0)
(0.13565697 -8.3853709e-07 0)
(0.067858993 -1.9683809e-07 0)
(0.019876745 -2.8162451e-08 0)
(0.019875208 2.6191943e-08 0)
(0.067853818 1.824509e-07 0)
(0.1356468 7.7597186e-07 0)
(0.23015758 2.3137416e-06 0)
(0.3593902 5.7309185e-06 0)
(0.5312643 1.2623625e-05 0)
(0.75096742 2.5260415e-05 0)
(1.0163914 4.5679606e-05 0)
(1.3121824 7.2308107e-05 0)
(1.6051599 9.2973383e-05 0)
(1.8463555 8.3350248e-05 0)
(1.9839652 3.3689379e-05 0)
(1.9839652 -3.3689627e-05 0)
(1.8463555 -8.3350546e-05 0)
(1.6051599 -9.2973658e-05 0)
(1.3121824 -7.2308118e-05 0)
(1.0163914 -4.5678972e-05 0)
(0.75096742 -2.5258897e-05 0)
(0.5312643 -1.2621441e-05 0)
(0.3593902 -5.7286345e-06 0)
(0.23015758 -2.3118472e-06 0)
(0.1356468 -7.7459449e-07 0)
(0.067853818 -1.8165111e-07 0)
(0.019875208 -2.5942537e-08 0)
(0.019873787 2.426925e-08 0)
(0.067849027 1.6908075e-07 0)
(0.13563738 7.1919597e-07 0)
(0.230142 2.1447732e-06 0)
(0.35936679 5.3136425e-06 0)
(0.53123178 1.1708964e-05 0)
(0.75092616 2.3445665e-05 0)
(1.016346 4.2450636e-05 0)
(1.3121452 6.7367707e-05 0)
(1.6051509 8.71076e-05 0)
(1.8463878 7.8785169e-05 0)
(1.9840271 3.2023781e-05 0)
(1.9840271 -3.2024049e-05 0)
(1.8463878 -7.8785509e-05 0)
(1.6051509 -8.7107907e-05 0)
(1.3121452 -6.7367636e-05 0)
(1.016346 -4.2449677e-05 0)
(0.75092616 -2.3443533e-05 0)
(0.53123178 -1.1705985e-05 0)
(0.35936679 -5.3105789e-06 0)
(0.230142 -2.1422592e-06 0)
(0.13563738 -7.1738317e-07 0)
(0.067849027 -1.680338e-07 0)
(0.019873787 -2.3943492e-08 0)
(0.019872467 2.2542107e-08 0)
(0.067844581 1.5706741e-07 0)
(0.13562864 6.6816989e-07 0)
(0.23012754 1.9928717e-06 0)
(0.35934505 4.9383369e-06 0)
(0.53120156 1.0885651e-05 0)
(0.75088776 2.180988e-05 0)
(1.0163035 3.9532322e-05 0)
(1.31211 6.2876632e-05 0)
(1.6051418 8.1702211e-05 0)
(1.8464178 7.4491957e-05 0)
(1.9840857 3.0444396e-05 0)
(1.9840857 -3.0444716e-05 0)
(1.8464178 -7.4492375e-05 0)
(1.6051418 -8.1702584e-05 0)
(1.31211 -6.287649e-05 0)
(1.0163035 -3.9531003e-05 0)
(0.75088776 -2.1807046e-05 0)
(0.53120156 -1.0881758e-05 0)
(0.35934505 -4.9343765e-06 0)
(0.23012754 -1.9896448e-06 0)
(0.13562864 -6.6585613e-07 0)
(0.067844581 -1.5573619e-07 0)
(0.019872467 -2.212855e-08 0)
(0.01987124 2.098199e-08 0)
(0.067840446 1.4621357e-07 0)
(0.13562051 6.2205961e-07 0)
(0.23011408 1.8555685e-06 0)
(0.35932481 4.5989567e-06 0)
(0.53117342 1.0140624e-05 0)
(0.75085195 2.0327805e-05 0)
(1.0162638 3.6881968e-05 0)
(1.3120768 5.8777165e-05 0)
(1.6051327 7.670694e-05 0)
(1.8464458 7.0451493e-05 0)
(1.9841412 2.8945179e-05 0)
(1.9841412 -2.8945591e-05 0)
(1.8464458 -7.0452034e-05 0)
(1.6051327 -7.6707421e-05 0)
(1.3120768 -5.8776967e-05 0)
(1.0162638 -3.688025e-05 0)
(0.75085195 -2.0324174e-05 0)
(0.53117342 -1.0135688e-05 0)
(0.35932481 -4.5939699e-06 0)
(0.23011408 -1.8515247e-06 0)
(0.13562051 -6.1917182e-07 0)
(0.067840446 -1.445566e-07 0)
(0.01987124 -2.0467816e-08 0)
(0.019870096 1.9565829e-08 0)
(0.067836592 1.3635961e-07 0)
(0.13561293 5.8019003e-07 0)
(0.23010153 1.7308641e-06 0)
(0.35930594 4.2906027e-06 0)
(0.53114716 9.4632831e-06 0)
(0.75081849 1.897888e-05 0)
(1.0162266 3.4464582e-05 0)
(1.3120455 5.5021176e-05 0)
(1.6051237 7.2080997e-05 0)
(1.8464718 6.6643001e-05 0)
(1.9841938 2.7519693e-05 0)
(1.9841938 -2.7520245e-05 0)
(1.8464718 -6.6643717e-05 0)
(1.6051237 -7.2081635e-05 0)
(1.3120455 -5.5020939e-05 0)
(1.0162266 -3.4462425e-05 0)
(0.75081849 -1.8974347e-05 0)
(0.53114716 -9.4571595e-06 0)
(0.35930594 -4.2844444e-06 0)
(0.23010153 -1.7258871e-06 0)
(0.13561293 -5.7664597e-07 0)
(0.067836592 -1.3433013e-07 0)
(0.019870096 -1.8936593e-08 0)
(0.019869029 1.8274754e-08 0)
(0.067832994 1.2737485e-07 0)
(0.13560586 5.4200833e-07 0)
(0.23008981 1.6171203e-06 0)
(0.35928831 4.009255e-06 0)
(0.53112262 8.844912e-06 0)
(0.75078719 1.7746156e-05 0)
(1.0161917 3.2251223e-05 0)
(1.3120159 5.1568464e-05 0)
(1.6051149 6.7786543e-05 0)
(1.846496 6.3053259e-05 0)
(1.9842436 2.6163906e-05 0)
(1.9842436 -2.6164649e-05 0)
(1.846496 -6.3054208e-05 0)
(1.6051149 -6.7787388e-05 0)
(1.3120159 -5.1568206e-05 0)
(1.0161917 -3.2248578e-05 0)
(0.75078719 -1.7740601e-05 0)
(0.53112262 -8.8374361e-06 0)
(0.35928831 -4.0017607e-06 0)
(0.23008981 -1.6110782e-06 0)
(0.13560586 -5.3771505e-07 0)
(0.067832994 -1.2492003e-07 0)
(0.019869029 -1.7514124e-08 0)
(0.019868031 1.7093224e-08 0)
(0.067829631 1.1915162e-07 0)
(0.13559924 5.0705857e-07 0)
(0.23007886 1.5129853e-06 0)
(0.35927183 3.7515969e-06 0)
(0.53109966 8.2783185e-06 0)
(0.75075787 1.6615624e-05 0)
(1.0161589 3.0217805e-05 0)
(1.311988 4.8385004e-05 0)
(1.6051063 6.3793966e-05 0)
(1.8465187 5.9664073e-05 0)
(1.9842909 2.4872457e-05 0)
(1.9842909 -2.4873445e-05 0)
(1.8465187 -5.9665315e-05 0)
(1.6051063 -6.3795073e-05 0)
(1.311988 -4.8384736e-05 0)
(1.0161589 -3.0214613e-05 0)
(0.75075787 -1.6608907e-05 0)
(0.53109965 -8.2693027e-06 0)
(0.35927183 -3.7425799e-06 0)
(0.23007886 -1.505729e-06 0)
(0.13559924 -5.0191101e-07 0)
(0.067829631 -1.1621179e-07 0)
(0.019868031 -1.6182765e-08 0)
(0.019867097 1.6008267e-08 0)
(0.067826482 1.116e-07 0)
(0.13559305 4.7495995e-07 0)
(0.2300686 1.4173293e-06 0)
(0.35925639 3.5148508e-06 0)
(0.53107814 7.7574634e-06 0)
(0.75073038 1.5575493e-05 0)
(1.0161281 2.8344074e-05 0)
(1.3119617 4.5442143e-05 0)
(1.6050979 6.0073758e-05 0)
(1.8465398 5.6467003e-05 0)
(1.9843356 2.3643031e-05 0)
(1.9843356 -2.3644317e-05 0)
(1.8465398 -5.6468596e-05 0)
(1.6050979 -6.0075176e-05 0)
(1.3119617 -4.5441875e-05 0)
(1.0161281 -2.8340264e-05 0)
(0.75073038 -1.5567456e-05 0)
(0.53107814 -7.7466939e-06 0)
(0.35925639 -3.5040996e-06 0)
(0.2300686 -1.4086905e-06 0)
(0.13559305 -4.688399e-07 0)
(0.067826482 -1.0810813e-07 0)
(0.019867097 -1.4927292e-08 0)
(0.019866221 1.5008986e-08 0)
(0.067823531 1.0464432e-07 0)
(0.13558724 4.4539191e-07 0)
(0.23005898 1.3292017e-06 0)
(0.35924191 3.2966828e-06 0)
(0.53105796 7.2772793e-06 0)
(0.75070457 1.4615859e-05 0)
(1.0160992 2.6612844e-05 0)
(1.3119367 4.2715044e-05 0)
(1.6050897 5.6604251e-05 0)
(1.8465596 5.3444474e-05 0)
(1.984378 2.2470652e-05 0)
(1.984378 -2.2472285e-05 0)
(1.8465596 -5.3446475e-05 0)
(1.6050897 -5.6606029e-05 0)
(1.3119367 -4.2714779e-05 0)
(1.0160992 -2.6608331e-05 0)
(0.75070457 -1.4606319e-05 0)
(0.53105795 -7.2645138e-06 0)
(0.35924191 -3.2839595e-06 0)
(0.23005898 -1.3189917e-06 0)
(0.13558724 -4.3816747e-07 0)
(0.067823531 -1.0052583e-07 0)
(0.019866221 -1.3734482e-08 0)
(0.0198654 1.4086131e-08 0)
(0.067820761 9.8220485e-08 0)
(0.1355818 4.180828e-07 0)
(0.23004995 1.2477953e-06 0)
(0.35922832 3.0951047e-06 0)
(0.53103901 6.8334302e-06 0)
(0.75068032 1.372823e-05 0)
(1.0160719 2.5009484e-05 0)
(1.3119132 4.0182818e-05 0)
(1.6050818 5.3361517e-05 0)
(1.8465781 5.0592676e-05 0)
(1.9844182 2.1354568e-05 0)
(1.9844182 -2.1356596e-05 0)
(1.8465781 -5.0595139e-05 0)
(1.6050818 -5.3363703e-05 0)
(1.3119132 -4.0182551e-05 0)
(1.0160719 -2.5004168e-05 0)
(0.75068032 -1.3716978e-05 0)
(0.531039 -6.8183977e-06 0)
(0.35922832 -3.0801448e-06 0)
(0.23004996 -1.2358056e-06 0)
(0.1355818 -4.0960855e-07 0)
(0.067820762 -9.3393301e-08 0)
(0.0198654 -1.2592815e-08 0)
(0.019864628 1.3231762e-08 0)
(0.067818161 9.2273291e-08 0)
(0.13557668 3.927986e-07 0)
(0.23004148 1.1724165e-06 0)
(0.35921555 2.9084155e-06 0)
(0.5310212 6.4222246e-06 0)
(0.75065752 1.2905368e-05 0)
(1.0160463 2.3521293e-05 0)
(1.3118909 3.7826647e-05 0)
(1.6050743 5.0329735e-05 0)
(1.8465955 4.7892873e-05 0)
(1.9844563 2.0289473e-05 0)
(1.9844563 -2.0291939e-05 0)
(1.8465955 -4.7895852e-05 0)
(1.6050743 -5.0332375e-05 0)
(1.3118909 -3.782637e-05 0)
(1.0160463 -2.3515057e-05 0)
(0.75065751 -1.2892173e-05 0)
(0.53102119 -6.4046255e-06 0)
(0.35921555 -2.8909287e-06 0)
(0.23004148 -1.1584192e-06 0)
(0.13557668 -3.8291628e-07 0)
(0.067818161 -8.664835e-08 0)
(0.019864628 -1.149222e-08 0)
(0.019863903 1.2439104e-08 0)
(0.067815716 8.6755904e-08 0)
(0.13557187 3.6934096e-07 0)
(0.23003351 1.1024748e-06 0)
(0.35920355 2.7351542e-06 0)
(0.53100445 6.0404611e-06 0)
(0.75063606 1.2140988e-05 0)
(1.0160221 2.2137464e-05 0)
(1.3118699 3.5631151e-05 0)
(1.6050669 4.7488867e-05 0)
(1.8466118 4.5346584e-05 0)
(1.9844924 1.9276322e-05 0)
(1.9844924 -1.9279269e-05 0)
(1.8466118 -4.5350131e-05 0)
(1.6050669 -4.7492005e-05 0)
(1.3118699 -3.5630849e-05 0)
(1.0160221 -2.2130181e-05 0)
(0.75063605 -1.2125595e-05 0)
(0.53100445 -6.01997e-06 0)
(0.35920355 -2.714827e-06 0)
(0.23003351 -1.0862247e-06 0)
(0.13557187 -3.578809e-07 0)
(0.067815716 -8.0237951e-08 0)
(0.019863903 -1.0424048e-08 0)
(0.019863221 1.1702137e-08 0)
(0.067813417 8.1626348e-08 0)
(0.13556735 3.4753185e-07 0)
(0.23002601 1.0374438e-06 0)
(0.35919226 2.5740365e-06 0)
(0.53098868 5.6853636e-06 0)
(0.75061585 1.142963e-05 0)
(1.0159993 2.0848252e-05 0)
(1.31185 3.3581374e-05 0)
(1.6050599 4.4827388e-05 0)
(1.8466272 4.2931905e-05 0)
(1.9845266 1.8308691e-05 0)
(1.9845266 -1.8312158e-05 0)
(1.8466272 -4.2936072e-05 0)
(1.6050599 -4.483107e-05 0)
(1.31185 -3.358103e-05 0)
(1.0159993 -2.083978e-05 0)
(0.75061585 -1.1411766e-05 0)
(0.53098868 -5.661633e-06 0)
(0.35919225 -2.5505356e-06 0)
(0.23002601 -1.0186815e-06 0)
(0.13556735 -3.3431496e-07 0)
(0.067813417 -7.41151e-08 0)
(0.019863221 -9.3807701e-09 0)
(0.019862579 1.1015855e-08 0)
(0.067811252 7.6850361e-08 0)
(0.13556309 3.2722652e-07 0)
(0.23001895 9.7689034e-07 0)
(0.35918162 2.4239786e-06 0)
(0.53097384 5.3545314e-06 0)
(0.75059681 1.0766568e-05 0)
(1.0159778 1.9645642e-05 0)
(1.3118312 3.1666244e-05 0)
(1.6050532 4.2328321e-05 0)
(1.8466415 4.065726e-05 0)
(1.984559 1.7389759e-05 0)
(1.984559 -1.7393788e-05 0)
(1.8466415 -4.06621e-05 0)
(1.6050532 -4.2332595e-05 0)
(1.3118312 -3.1665837e-05 0)
(1.0159778 -1.9635831e-05 0)
(0.75059681 -1.0745942e-05 0)
(0.53097383 -5.3271964e-06 0)
(0.35918162 -2.3969562e-06 0)
(0.23001895 -9.5534576e-07 0)
(0.13556309 -3.120674e-07 0)
(0.067811252 -6.8242285e-08 0)
(0.019862579 -8.3564199e-09 0)
(0.019861974 1.0375437e-08 0)
(0.067809213 7.2393988e-08 0)
(0.13555907 3.0828077e-07 0)
(0.2300123 9.2039148e-07 0)
(0.3591716 2.2839641e-06 0)
(0.53095985 5.0457973e-06 0)
(0.75057886 1.0147532e-05 0)
(1.0159575 1.8521764e-05 0)
(1.3118134 2.9872948e-05 0)
(1.6050467 3.99829e-05 0)
(1.8466551 3.8494937e-05 0)
(1.9845898 1.6510969e-05 0)
(1.9845898 -1.6515601e-05 0)
(1.8466551 -3.8500505e-05 0)
(1.6050467 -3.9987814e-05 0)
(1.3118134 -2.9872457e-05 0)
(1.0159575 -1.8510457e-05 0)
(0.75057886 -1.0123844e-05 0)
(0.53095984 -5.014482e-06 0)
(0.3591716 -2.2530638e-06 0)
(0.2300123 -8.9578951e-07 0)
(0.13555908 -2.9099118e-07 0)
(0.067809213 -6.2584329e-08 0)
(0.019861974 -7.3458518e-09 0)
(0.019861404 9.7773641e-09 0)
(0.067807292 6.8233892e-08 0)
(0.13555529 2.9059667e-07 0)
(0.23000603 8.6764821e-07 0)
(0.35916216 2.1532183e-06 0)
(0.53094666 4.75739e-06 0)
(0.75056194 9.569014e-06 0)
(1.0159384 1.7470931e-05 0)
(1.3117965 2.8194441e-05 0)
(1.6050405 3.7777446e-05 0)
(1.8466677 3.6462979e-05 0)
(1.9846188 1.5678741e-05 0)
(1.9846188 -1.5684019e-05 0)
(1.8466678 -3.6469325e-05 0)
(1.6050405 -3.7783048e-05 0)
(1.3117965 -2.8193841e-05 0)
(1.0159384 -1.7457965e-05 0)
(0.75056193 -9.5419581e-06 0)
(0.53094666 -4.7217137e-06 0)
(0.35916216 -2.1180805e-06 0)
(0.23000603 -8.3971173e-07 0)
(0.1355553 -2.7098752e-07 0)
(0.067807292 -5.7117696e-08 0)
(0.019861404 -6.3455325e-09 0)
(0.019860867 9.2173495e-09 0)
(0.067805479 6.4339047e-08 0)
(0.13555173 2.7404189e-07 0)
(0.23000012 8.1828041e-07 0)
(0.35915325 2.0308619e-06 0)
(0.53093422 4.4875051e-06 0)
(0.75054596 9.0274696e-06 0)
(1.0159203 1.6486204e-05 0)
(1.3117806 2.6618254e-05 0)
(1.6050346 3.5703724e-05 0)
(1.8466798 3.4524125e-05 0)
(1.9846465 1.4880924e-05 0)
(1.9846465 -1.4886889e-05 0)
(1.8466798 -3.4531301e-05 0)
(1.6050346 -3.5710061e-05 0)
(1.3117806 -2.6617519e-05 0)
(1.0159203 -1.6471414e-05 0)
(0.75054595 -8.996741e-06 0)
(0.53093421 -4.4470945e-06 0)
(0.35915325 -1.9911383e-06 0)
(0.23000012 -7.8674336e-07 0)
(0.13555173 -2.5193304e-07 0)
(0.06780548 -5.1816817e-08 0)
(0.019860867 -5.3529027e-09 0)
(0.01986036 8.6936267e-09 0)
(0.06780377 6.0699546e-08 0)
(0.13554837 2.5857634e-07 0)
(0.22999455 7.7214881e-07 0)
(0.35914485 1.9164615e-06 0)
(0.53092248 4.2350081e-06 0)
(0.75053089 8.5205947e-06 0)
(1.0159032 1.5564397e-05 0)
(1.3117655 2.5142298e-05 0)
(1.605029 3.3753384e-05 0)
(1.846691 3.2710411e-05 0)
(1.9846726 1.4128936e-05 0)
(1.9846726 -1.4135621e-05 0)
(1.846691 -3.2718453e-05 0)
(1.605029 -3.3760495e-05 0)
(1.3117655 -2.5141395e-05 0)
(1.0159032 -1.5547617e-05 0)
(0.75053088 -8.4858944e-06 0)
(0.53092248 -4.1895034e-06 0)
(0.35914485 -1.8718208e-06 0)
(0.22999455 -7.3676169e-07 0)
(0.13554837 -2.3380115e-07 0)
(0.067803771 -4.6680308e-08 0)
(0.01986036 -4.3689541e-09 0)
(0.019859881 8.2014263e-09 0)
(0.067802156 5.7279089e-08 0)
(0.13554519 2.4404409e-07 0)
(0.22998928 7.28822e-07 0)
(0.35913691 1.8090926e-06 0)
(0.53091139 3.9981597e-06 0)
(0.75051664 8.0450381e-06 0)
(1.0158871 1.4698309e-05 0)
(1.3117512 2.3751835e-05 0)
(1.6050236 3.191471e-05 0)
(1.8467017 3.0969569e-05 0)
(1.9846975 1.3404832e-05 0)
(1.9846975 -1.341225e-05 0)
(1.8467017 -3.0978516e-05 0)
(1.6050236 -3.1922627e-05 0)
(1.3117512 -2.3750725e-05 0)
(1.0158871 -1.4679371e-05 0)
(0.75051663 -8.006077e-06 0)
(0.53091138 -3.9472203e-06 0)
(0.35913691 -1.7592256e-06 0)
(0.22998928 -6.8935246e-07 0)
(0.13554519 -2.1644861e-07 0)
(0.067802157 -4.1679632e-08 0)
(0.019859882 -3.3914457e-09 0)
(0.01985943 7.7422363e-09 0)
(0.067800634 5.4093332e-08 0)
(0.13554219 2.3051489e-07 0)
(0.22998431 6.8845524e-07 0)
(0.35912943 1.7089113e-06 0)
(0.53090093 3.7768308e-06 0)
(0.7505032 7.6002996e-06 0)
(1.0158719 1.3888635e-05 0)
(1.3117377 2.2452927e-05 0)
(1.6050185 3.0190152e-05 0)
(1.8467117 2.9354615e-05 0)
(1.9847208 1.2727955e-05 0)
(1.9847208 -1.2736092e-05 0)
(1.8467117 -2.9364479e-05 0)
(1.6050185 -3.0198885e-05 0)
(1.3117377 -2.2451556e-05 0)
(1.0158718 -1.3867373e-05 0)
(0.75050319 -7.556817e-06 0)
(0.53090093 -3.7201689e-06 0)
(0.35912943 -1.6535702e-06 0)
(0.22998432 -6.4472672e-07 0)
(0.1355422 -1.9998653e-07 0)
(0.067800635 -3.685398e-08 0)
(0.01985943 -2.429033e-09 0)
(0.019859002 7.3081528e-09 0)
(0.067799193 5.107956e-08 0)
(0.13553936 2.1771886e-07 0)
(0.22997961 6.5033075e-07 0)
(0.35912234 1.614509e-06 0)
(0.53089102 3.5686829e-06 0)
(0.75049046 7.1821556e-06 0)
(1.0158574 1.3125641e-05 0)
(1.3117249 2.1223795e-05 0)
(1.6050136 2.8556984e-05 0)
(1.8467212 2.7790476e-05 0)
(1.9847433 1.2071252e-05 0)
(1.9847433 -1.2080079e-05 0)
(1.8467212 -2.7801252e-05 0)
(1.6050136 -2.8566521e-05 0)
(1.3117249 -2.1222093e-05 0)
(1.0158574 -1.3101901e-05 0)
(0.75049046 -7.1339393e-06 0)
(0.53089102 -3.5060936e-06 0)
(0.35912234 -1.5535433e-06 0)
(0.22997961 -6.0225738e-07 0)
(0.13553936 -1.842136e-07 0)
(0.067799194 -3.2180134e-08 0)
(0.019859003 -1.4858849e-09 0)
(0.0198586 6.9094265e-09 0)
(0.067797836 4.8321249e-08 0)
(0.13553669 2.0601409e-07 0)
(0.22997518 6.1536697e-07 0)
(0.35911566 1.5275345e-06 0)
(0.5308817 3.3760246e-06 0)
(0.75047849 6.7942009e-06 0)
(1.0158438 1.241827e-05 0)
(1.3117128 2.0086818e-05 0)
(1.6050089 2.7040703e-05 0)
(1.84673 2.636258e-05 0)
(1.9847642 1.1466957e-05 0)
(1.9847642 -1.1476411e-05 0)
(1.84673 -2.6374213e-05 0)
(1.605009 -2.7050994e-05 0)
(1.3117128 -2.0084697e-05 0)
(1.0158438 -1.2391911e-05 0)
(0.75047848 -6.741102e-06 0)