/*--------------------------------*- C++ -*----------------------------------*\
| =========                 |                                                 |
| \\      /  F ield         | OpenFOAM: The Open Source CFD Toolbox           |
|  \\    /   O peration     | Version:  2406                                  |
|   \\  /    A nd           | Website:  www.openfoam.com                      |
|    \\/     M anipulation  |                                                 |
\*---------------------------------------------------------------------------*/
FoamFile
{
    version     2.0;
    format      ascii;
    arch        "LSB;label=32;scalar=64";
    class       volScalarField;
    location    "1.5";
    object      p;
}
// * * * * * * * * * * * * * * * * * * * * * * * * * * * * * * * * * * * * * //

dimensions      [0 2 -2 0 0 0 0];

internalField   nonuniform List<scalar> 
34560
(
24.264773
24.251335
24.233343
24.211503
24.186242
24.159522
24.13339
24.109241
24.089146
24.346072
24.329329
24.30642
24.277872
24.244082
24.20767
24.172182
24.140112
24.113217
24.42237
24.402522
24.375215
24.341074
24.300432
24.256314
24.213201
24.174146
24.141435
24.498778
24.475952
24.444306
24.404572
24.357196
24.305736
24.255434
24.209687
24.171027
24.573225
24.54752
24.511684
24.466566
24.412731
24.354243
24.296988
24.244667
24.199998
24.642048
24.613961
24.574517
24.524639
24.464983
24.400085
24.336339
24.27778
24.227329
24.704625
24.674366
24.631629
24.577418
24.512495
24.441831
24.372153
24.307847
24.252055
24.759381
24.727216
24.681579
24.62355
24.554022
24.478322
24.403389
24.333956
24.273428
24.805038
24.771257
24.723157
24.661889
24.588489
24.508578
24.429212
24.355413
24.290891
24.840123
24.805098
24.755081
24.691285
24.614879
24.531746
24.448946
24.371699
24.304061
24.86386
24.827933
24.776566
24.711035
24.632599
24.547291
24.462172
24.382538
24.312818
24.876155
24.839729
24.787623
24.721148
24.641621
24.555147
24.468802
24.387935
24.317174
24.876155
24.839729
24.787623
24.721149
24.641622
24.555147
24.468802
24.387935
24.317174
24.86386
24.827933
24.776567
24.711036
24.632599
24.547292
24.462172
24.382538
24.312819
24.840124
24.805098
24.755081
24.691286
24.614879
24.531746
24.448946
24.371698
24.304061
24.805039
24.771258
24.723157
24.661889
24.588489
24.508577
24.429211
24.355412
24.290891
24.759381
24.727216
24.681579
24.623549
24.554022
24.478321
24.403388
24.333955
24.273428
24.704624
24.674365
24.631629
24.577417
24.512495
24.44183
24.372152
24.307846
24.252055
24.642049
24.613962
24.574518
24.524639
24.464983
24.400084
24.336338
24.277779
24.227329
24.573227
24.547522
24.511685
24.466568
24.412732
24.354243
24.296988
24.244667
24.199999
24.498781
24.475955
24.444309
24.404574
24.357198
24.305737
24.255435
24.209689
24.171029
24.422374
24.402526
24.375219
24.341078
24.300435
24.256317
24.213204
24.174149
24.141437
24.346077
24.329333
24.306425
24.277877
24.244086
24.207674
24.172188
24.140118
24.11322
24.264778
24.251339
24.233348
24.211508
24.186247
24.159527
24.133396
24.109248
24.089153
22.251629
22.252763
22.254282
22.256974
22.261756
22.268521
22.276317
22.283392
22.289209
22.239464
22.241204
22.243678
22.247884
22.254852
22.264116
22.273864
22.282143
22.288684
22.225308
22.227674
22.23106
22.236752
22.246009
22.258005
22.270189
22.280158
22.287558
22.212245
22.215292
22.219644
22.226688
22.23793
22.252353
22.266807
22.278465
22.286803
22.19984
22.203553
22.209032
22.217644
22.230867
22.247647
22.264299
22.277571
22.286818
22.187908
22.192207
22.198849
22.209382
22.22477
22.243911
22.262726
22.277541
22.287614
22.176844
22.181566
22.189078
22.201797
22.219939
22.241344
22.262185
22.278384
22.289183
22.166885
22.171874
22.179991
22.194687
22.216083
22.239922
22.262629
22.280036
22.291448
22.158567
22.163723
22.172201
22.187985
22.212485
22.239656
22.263982
22.282374
22.294248
22.152021
22.157285
22.165971
22.182423
22.209178
22.239734
22.265967
22.285223
22.297516
22.147618
22.152913
22.161753
22.178614
22.206153
22.2391
22.268013
22.28832
22.3007
22.145682
22.150934
22.15983
22.176976
22.205041
22.238922
22.269069
22.290022
22.302561
22.145682
22.150934
22.15983
22.176976
22.205041
22.238922
22.269069
22.290022
22.30256
22.147618
22.152913
22.161753
22.178614
22.206153
22.2391
22.268013
22.28832
22.300699
22.15202
22.157284
22.165971
22.182422
22.209177
22.239733
22.265966
22.285222
22.297515
22.158566
22.163722
22.1722
22.187984
22.212484
22.239655
22.26398
22.282372
22.294247
22.166884
22.171873
22.17999
22.194686
22.216082
22.23992
22.262626
22.280033
22.291446
22.176843
22.181565
22.189077
22.201796
22.219938
22.241342
22.262183
22.278381
22.28918
22.187907
22.192206
22.198848
22.209381
22.224769
22.243909
22.262723
22.277538
22.28761
22.19984
22.203554
22.209033
22.217644
22.230866
22.247646
22.264297
22.277569
22.286814
22.212245
22.215292
22.219644
22.226689
22.23793
22.252352
22.266806
22.278463
22.2868
22.225308
22.227674
22.231061
22.236753
22.24601
22.258006
22.270189
22.280157
22.287555
22.239465
22.241205
22.243679
22.247886
22.254854
22.264117
22.273865
22.282142
22.288681
22.25163
22.252764
22.254283
22.256975
22.261758
22.268523
22.276318
22.283392
22.289208
21.744102
21.744253
21.744254
21.743928
21.743401
21.74297
21.742993
21.743488
21.743928
21.740032
21.740347
21.740562
21.74047
21.740252
21.740219
21.740649
21.741472
21.742175
21.73486
21.735288
21.73564
21.735754
21.735841
21.736247
21.73721
21.738546
21.739673
21.730065
21.730549
21.730889
21.731076
21.731362
21.732099
21.733532
21.735416
21.737106
21.726006
21.726496
21.726605
21.726602
21.727019
21.728046
21.729912
21.73233
21.734597
21.722756
21.7233
21.723107
21.722535
21.722877
21.724148
21.726411
21.729332
21.732139
21.720868
21.721513
21.721176
21.719623
21.71913
21.720531
21.723122
21.726479
21.729797
21.720133
21.720914
21.720567
21.718119
21.716119
21.717257
21.720083
21.723813
21.727628
21.720172
21.721052
21.720783
21.718133
21.714571
21.714296
21.717268
21.721372
21.725706
21.720795
21.721716
21.721551
21.718964
21.714453
21.712364
21.714836
21.719167
21.723932
21.721455
21.72241
21.722301
21.719874
21.715556
21.712246
21.713065
21.717127
21.72235
21.721802
21.722778
21.722676
21.720251
21.715946
21.712322
21.712419
21.716206
21.721523
21.721802
21.722778
21.722676
21.720251
21.715946
21.712322
21.712419
21.716205
21.721523
21.721454
21.722409
21.7223
21.719874
21.715556
21.712245
21.713065
21.717126
21.72235
21.720794
21.721715
21.72155
21.718964
21.714452
21.712363
21.714835
21.719165
21.723931
21.720171
21.721051
21.720781
21.718131
21.71457
21.714294
21.717266
21.721371
21.725704
21.720131
21.720912
21.720566
21.718117
21.716117
21.717255
21.720081
21.723811
21.727626
21.720866
21.721511
21.721174
21.719621
21.719128
21.720529
21.72312
21.726476
21.729794
21.722754
21.723298
21.723105
21.722533
21.722875
21.724145
21.726408
21.729329
21.732136
21.726004
21.726494
21.726603
21.7266
21.727017
21.728044
21.72991
21.732327
21.734594
21.730063
21.730547
21.730887
21.731074
21.73136
21.732097
21.733529
21.735413
21.737103
21.734857
21.735285
21.735638
21.735752
21.735839
21.736245
21.737207
21.738543
21.739669
21.74003
21.740345
21.740559
21.740468
21.74025
21.740216
21.740646
21.741468
21.742171
21.7441
21.744251
21.744251
21.743925
21.743398
21.742966
21.742989
21.743484
21.743924
20.592626
20.59251
20.592416
20.592449
20.592654
20.592963
20.593189
20.593096
20.592927
20.592305
20.592214
20.592187
20.59235
20.592746
20.593238
20.593534
20.593404
20.593003
20.591613
20.591541
20.591571
20.591861
20.592464
20.593187
20.593643
20.593549
20.593001
20.591019
20.590973
20.591057
20.591455
20.592232
20.593152
20.59375
20.593703
20.593073
20.590453
20.590431
20.590572
20.591091
20.592063
20.593203
20.593952
20.593939
20.593238
20.589813
20.589825
20.590033
20.590698
20.591922
20.593345
20.594261
20.594235
20.593447
20.589164
20.589205
20.589482
20.590298
20.591833
20.593589
20.594694
20.594581
20.593653
20.588229
20.588306
20.588638
20.589532
20.591198
20.59324
20.594674
20.594841
20.593805
20.587101
20.587205
20.587575
20.588516
20.590178
20.592313
20.59399
20.594556
20.593789
20.586056
20.586177
20.586575
20.587564
20.589303
20.591523
20.593297
20.593879
20.593386
20.585279
20.585417
20.585835
20.58688
20.58872
20.59099
20.592764
20.593297
20.592837
20.584877
20.585028
20.585458
20.586515
20.588384
20.590688
20.592471
20.592987
20.592528
20.584877
20.585028
20.585458
20.586515
20.588384
20.590688
20.592471
20.592987
20.592528
20.585279
20.585416
20.585835
20.586879
20.588719
20.590989
20.592763
20.593296
20.592837
20.586055
20.586176
20.586574
20.587562
20.589301
20.591522
20.593296
20.593878
20.593385
20.587099
20.587204
20.587574
20.588515
20.590176
20.592311
20.593988
20.594554
20.593787
20.588227
20.588304
20.588636
20.58953
20.591196
20.593238
20.594672
20.594839
20.593803
20.589162
20.589203
20.589479
20.590295
20.591831
20.593586
20.594691
20.594578
20.59365
20.589811
20.589822
20.59003
20.590695
20.591919
20.593341
20.594258
20.594231
20.593444
20.59045
20.590428
20.590568
20.591087
20.592059
20.593199
20.593948
20.593935
20.593235
20.591015
20.590969
20.591053
20.591451
20.592228
20.593147
20.593746
20.593698
20.593069
20.591608
20.591537
20.591567
20.591856
20.59246
20.593182
20.593639
20.593544
20.592996
20.5923
20.592208
20.592182
20.592345
20.592741
20.593232
20.593529
20.593399
20.592999
20.59262
20.592504
20.59241
20.592443
20.592648
20.592957
20.593184
20.593092
20.592923
19.662077
19.662083
19.662057
19.661959
19.661785
19.66159
19.661481
19.661493
19.661532
19.661337
19.661364
19.661367
19.661299
19.661163
19.661024
19.660978
19.661061
19.661181
19.660448
19.660492
19.660513
19.660462
19.660358
19.660276
19.660318
19.660507
19.660729
19.659588
19.659646
19.659677
19.659631
19.659536
19.659491
19.659612
19.659924
19.660281
19.658773
19.658842
19.658879
19.658829
19.658731
19.658706
19.658905
19.659353
19.659856
19.658038
19.658115
19.658152
19.658082
19.65794
19.657895
19.658167
19.658792
19.659456
19.657523
19.657603
19.657627
19.657505
19.657235
19.657106
19.657408
19.658248
19.659097
19.657444
19.657519
19.65754
19.657426
19.657192
19.657015
19.65718
19.657839
19.658806
19.657754
19.657828
19.657865
19.657802
19.657699
19.657604
19.65769
19.657992
19.658664
19.658175
19.658254
19.658306
19.658285
19.658207
19.658155
19.658261
19.658531
19.658844
19.658515
19.658596
19.658664
19.658655
19.658593
19.658562
19.658674
19.65894
19.659162
19.658694
19.658772
19.658843
19.658848
19.658801
19.658779
19.65889
19.659144
19.659336
19.658694
19.658772
19.658843
19.658848
19.6588
19.658778
19.65889
19.659144
19.659336
19.658515
19.658596
19.658663
19.658655
19.658592
19.658561
19.658674
19.658939
19.659161
19.658174
19.658253
19.658305
19.658284
19.658206
19.658153
19.65826
19.65853
19.658843
19.657752
19.657826
19.657863
19.6578
19.657697
19.657602
19.657688
19.65799
19.658663
19.657442
19.657517
19.657538
19.657423
19.65719
19.657013
19.657177
19.657837
19.658805
19.65752
19.6576
19.657624
19.657502
19.657232
19.657103
19.657405
19.658245
19.659095
19.658034
19.658112
19.658149
19.658078
19.657936
19.657891
19.658163
19.658789
19.659454
19.658769
19.658838
19.658875
19.658825
19.658726
19.658701
19.6589
19.659349
19.659853
19.659583
19.659641
19.659672
19.659625
19.65953
19.659485
19.659607
19.65992
19.660277
19.660442
19.660486
19.660506
19.660456
19.660351
19.66027
19.660312
19.660501
19.660724
19.66133
19.661358
19.661361
19.661292
19.661156
19.661017
19.660972
19.661055
19.661175
19.66207
19.662075
19.66205
19.661952
19.661778
19.661582
19.661473
19.661485
19.661525
18.622247
18.622229
18.622214
18.622215
18.622234
18.622248
18.622225
18.622139
18.622051
18.622051
18.622038
18.622033
18.622058
18.622112
18.622164
18.62216
18.62207
18.62194
18.621831
18.621819
18.621822
18.621865
18.62195
18.622039
18.622062
18.621981
18.62183
18.621632
18.621623
18.621633
18.621689
18.621796
18.62191
18.621955
18.621888
18.621736
18.621438
18.621432
18.621448
18.621517
18.621645
18.621782
18.621849
18.621801
18.621657
18.621226
18.621225
18.621249
18.621332
18.621479
18.621641
18.621735
18.621712
18.621584
18.621017
18.621019
18.621049
18.62114
18.621299
18.621482
18.621605
18.621617
18.621514
18.620831
18.620836
18.620869
18.620968
18.621139
18.621342
18.621493
18.621521
18.621447
18.620664
18.62067
18.620706
18.620809
18.620991
18.621224
18.621407
18.621446
18.621387
18.620496
18.620503
18.620539
18.62064
18.620817
18.62105
18.621274
18.621375
18.62134
18.620347
18.620354
18.620389
18.620484
18.620651
18.62087
18.62112
18.621299
18.621303
18.620261
18.620269
18.620301
18.62039
18.620548
18.620774
18.621039
18.621254
18.62128
18.620261
18.620268
18.620301
18.62039
18.620547
18.620773
18.621039
18.621254
18.62128
18.620346
18.620354
18.620389
18.620483
18.62065
18.620869
18.621119
18.621298
18.621303
18.620495
18.620502
18.620538
18.620639
18.620816
18.621048
18.621273
18.621374
18.62134
18.620663
18.620668
18.620704
18.620807
18.620989
18.621222
18.621405
18.621444
18.621386
18.620829
18.620833
18.620866
18.620965
18.621136
18.621339
18.62149
18.621519
18.621446
18.621014
18.621016
18.621045
18.621136
18.621295
18.621478
18.621601
18.621614
18.621512
18.621222
18.621221
18.621245
18.621327
18.621474
18.621636
18.62173
18.621709
18.621582
18.621433
18.621427
18.621442
18.621511
18.621639
18.621777
18.621844
18.621796
18.621653
18.621626
18.621617
18.621626
18.621682
18.621789
18.621903
18.621948
18.621883
18.621731
18.621823
18.621811
18.621814
18.621857
18.621942
18.622031
18.622055
18.621974
18.621824
18.622042
18.622028
18.622024
18.622049
18.622103
18.622155
18.622151
18.622061
18.621931
18.622237
18.622219
18.622204
18.622205
18.622224
18.622238
18.622214
18.622129
18.62204
17.632272
17.632278
17.632278
17.632264
17.632233
17.632196
17.632178
17.63219
17.632208
17.632135
17.632145
17.63215
17.63214
17.632113
17.632085
17.632078
17.632105
17.632144
17.63197
17.631984
17.631992
17.631984
17.631962
17.631942
17.631951
17.632
17.63206
17.631804
17.631819
17.63183
17.631823
17.631802
17.631789
17.631814
17.631887
17.631974
17.631637
17.631654
17.631666
17.63166
17.63164
17.631634
17.631676
17.631774
17.63189
17.631473
17.631492
17.631505
17.631498
17.631479
17.63148
17.631539
17.631664
17.631807
17.631325
17.631345
17.631358
17.631349
17.63133
17.631334
17.631409
17.631559
17.631729
17.631202
17.631222
17.631234
17.631224
17.631201
17.631203
17.631288
17.631463
17.631657
17.631111
17.63113
17.631141
17.631129
17.631101
17.631093
17.63118
17.631384
17.631598
17.631056
17.631075
17.631086
17.631073
17.631049
17.631056
17.631138
17.631333
17.631556
17.631036
17.631054
17.631066
17.631059
17.631045
17.631074
17.631154
17.631312
17.63153
17.631031
17.63105
17.631062
17.631059
17.631056
17.631085
17.631162
17.631304
17.631518
17.631031
17.63105
17.631062
17.631059
17.631056
17.631084
17.631162
17.631303
17.631518
17.631035
17.631054
17.631066
17.631058
17.631044
17.631073
17.631153
17.631312
17.63153
17.631055
17.631074
17.631085
17.631072
17.631048
17.631055
17.631136
17.631332
17.631555
17.631109
17.631128
17.631139
17.631126
17.631098
17.63109
17.631178
17.631382
17.631597
17.6312
17.631219
17.631231
17.631221
17.631197
17.6312
17.631285
17.631461
17.631656
17.631322
17.631341
17.631354
17.631345
17.631325
17.63133
17.631405
17.631556
17.631727
17.631469
17.631487
17.6315
17.631493
17.631473
17.631474
17.631534
17.631659
17.631805
17.63163
17.631648
17.63166
17.631653
17.631632
17.631627
17.631669
17.631769
17.631886
17.631796
17.631811
17.631822
17.631814
17.631793
17.63178
17.631806
17.63188
17.631969
17.63196
17.631973
17.631982
17.631974
17.631951
17.631932
17.631941
17.631991
17.632053
17.632123
17.632133
17.632138
17.632128
17.632101
17.632072
17.632066
17.632094
17.632135
17.632258
17.632264
17.632265
17.63225
17.632219
17.632183
17.632165
17.632177
17.632196
16.617505
16.6175
16.617496
16.617497
16.617503
16.617509
16.617507
16.617492
16.617473
16.617467
16.617463
16.617461
16.617466
16.61748
16.617494
16.617496
16.617479
16.617452
16.617432
16.617428
16.617427
16.617436
16.617455
16.617477
16.617483
16.617466
16.617434
16.617405
16.617401
16.6174
16.617412
16.617436
16.617462
16.617472
16.617456
16.61742
16.617383
16.617378
16.617379
16.617393
16.617421
16.617451
16.617464
16.617448
16.61741
16.617362
16.617358
16.61736
16.617376
16.617407
16.617441
16.617457
16.617442
16.617404
16.617345
16.617342
16.617344
16.617362
16.617396
16.617433
16.617451
16.617438
16.617399
16.617332
16.617329
16.617332
16.617351
16.617388
16.617427
16.617446
16.617435
16.617397
16.617322
16.617319
16.617322
16.617343
16.617381
16.617421
16.617442
16.617433
16.617395
16.617315
16.617312
16.617317
16.617338
16.617377
16.617418
16.617441
16.617432
16.617395
16.617312
16.617309
16.617314
16.617336
16.617375
16.617418
16.617441
16.617432
16.617396
16.617311
16.617308
16.617313
16.617335
16.617375
16.617417
16.617441
16.617432
16.617396
16.617311
16.617308
16.617312
16.617335
16.617374
16.617416
16.61744
16.617432
16.617396
16.617311
16.617308
16.617313
16.617335
16.617375
16.617417
16.61744
16.617432
16.617396
16.617314
16.617311
16.617315
16.617336
16.617375
16.617416
16.617439
16.617431
16.617395
16.61732
16.617317
16.61732
16.617341
16.617378
16.617418
16.61744
16.617431
16.617395
16.617329
16.617326
16.617329
16.617348
16.617384
16.617423
16.617443
16.617433
16.617396
16.617342
16.617338
16.61734
16.617357
16.617391
16.617428
16.617446
16.617435
16.617398
16.617357
16.617352
16.617354
16.617369
16.617401
16.617435
16.617451
16.617438
16.617402
16.617375
16.617371
16.617371
16.617384
16.617412
16.617442
16.617456
16.617442
16.617407
16.617395
16.61739
16.61739
16.617401
16.617425
16.617451
16.617462
16.617448
16.617415
16.61742
16.617415
16.617414
16.617422
16.617442
16.617463
16.617471
16.617456
16.617427
16.617452
16.617448
16.617445
16.617451
16.617464
16.617478
16.617481
16.617466
16.617443
16.617487
16.617483
16.617479
16.61748
16.617486
16.617492
16.61749
16.617476
16.61746
15.613584
15.613586
15.613587
15.613585
15.613578
15.61357
15.613564
15.613563
15.613565
15.613553
15.613556
15.613558
15.613556
15.61355
15.613542
15.613538
15.613541
15.613548
15.613516
15.61352
15.613522
15.613521
15.613515
15.613509
15.613508
15.613515
15.613527
15.613479
15.613483
15.613486
15.613484
15.613478
15.613473
15.613475
15.613488
15.613506
15.613442
15.613446
15.613449
15.613448
15.613442
15.613438
15.613443
15.613461
15.613485
15.613407
15.613412
15.613415
15.613412
15.613406
15.613403
15.613412
15.613435
15.613465
15.613375
15.61338
15.613383
15.61338
15.613374
15.613372
15.613384
15.613411
15.613446
15.613348
15.613352
15.613355
15.613352
15.613346
15.613345
15.613358
15.61339
15.613429
15.613325
15.613329
15.613332
15.613329
15.613322
15.613322
15.613338
15.613373
15.613415
15.613308
15.613312
15.613314
15.613311
15.613304
15.613304
15.613322
15.613359
15.613404
15.613296
15.6133
15.613303
15.613299
15.613292
15.613292
15.613311
15.61335
15.613396
15.61329
15.613294
15.613297
15.613293
15.613286
15.613286
15.613306
15.613345
15.613393
15.61329
15.613294
15.613296
15.613293
15.613286
15.613286
15.613305
15.613345
15.613393
15.613296
15.6133
15.613302
15.613298
15.613291
15.613291
15.61331
15.613349
15.613397
15.613307
15.613311
15.613313
15.613309
15.613303
15.613302
15.61332
15.613358
15.613404
15.613323
15.613327
15.61333
15.613326
15.61332
15.613319
15.613335
15.613371
15.613415
15.613345
15.613349
15.613352
15.613349
15.613342
15.613341
15.613355
15.613388
15.613429
15.613372
15.613376
15.613378
15.613375
15.613369
15.613367
15.613379
15.613408
15.613445
15.613402
15.613406
15.613408
15.613406
15.6134
15.613397
15.613406
15.613431
15.613463
15.613435
15.613439
15.613441
15.613439
15.613433
15.613429
15.613435
15.613456
15.613483
15.613469
15.613472
15.613475
15.613473
15.613467
15.613462
15.613465
15.613481
15.613502
15.613503
15.613506
15.613509
15.613507
15.613501
15.613495
15.613496
15.613505
15.613521
15.613537
15.61354
15.613541
15.613539
15.613533
15.613526
15.613523
15.613528
15.613538
15.613566
15.613568
15.613569
15.613567
15.61356
15.613552
15.613546
15.613546
15.613552
14.605117
14.605116
14.605115
14.605115
14.605116
14.605117
14.605117
14.605113
14.605108
14.605105
14.605105
14.605104
14.605105
14.605108
14.605111
14.605111
14.605107
14.6051
14.605095
14.605094
14.605094
14.605096
14.6051
14.605104
14.605105
14.605101
14.605093
14.605087
14.605086
14.605086
14.605088
14.605093
14.605098
14.6051
14.605095
14.605086
14.60508
14.605079
14.605079
14.605082
14.605087
14.605093
14.605095
14.605091
14.605081
14.605074
14.605073
14.605073
14.605076
14.605082
14.605089
14.605091
14.605087
14.605077
14.605069
14.605068
14.605068
14.605071
14.605078
14.605085
14.605088
14.605083
14.605073
14.605064
14.605063
14.605064
14.605067
14.605074
14.605082
14.605085
14.60508
14.60507
14.605061
14.60506
14.605061
14.605065
14.605072
14.605079
14.605082
14.605078
14.605068
14.605059
14.605058
14.605059
14.605062
14.60507
14.605078
14.605081
14.605077
14.605067
14.605058
14.605057
14.605057
14.605061
14.605069
14.605077
14.605081
14.605076
14.605066
14.605057
14.605056
14.605057
14.605061
14.605068
14.605077
14.605081
14.605076
14.605066
14.605057
14.605056
14.605057
14.605061
14.605068
14.605077
14.60508
14.605075
14.605066
14.605057
14.605056
14.605057
14.605061
14.605068
14.605076
14.60508
14.605076
14.605066
14.605058
14.605057
14.605058
14.605061
14.605068
14.605076
14.60508
14.605076
14.605067
14.60506
14.605059
14.605059
14.605062
14.605069
14.605077
14.60508
14.605077
14.605068
14.605062
14.605061
14.605061
14.605064
14.605071
14.605078
14.605082
14.605078
14.60507
14.605065
14.605064
14.605064
14.605067
14.605073
14.60508
14.605083
14.60508
14.605073
14.605068
14.605067
14.605067
14.60507
14.605076
14.605082
14.605086
14.605083
14.605075
14.605073
14.605071
14.605071
14.605073
14.605079
14.605085
14.605088
14.605085
14.605078
14.605077
14.605076
14.605076
14.605077
14.605082
14.605088
14.60509
14.605088
14.605082
14.605083
14.605082
14.605081
14.605083
14.605086
14.605091
14.605093
14.605091
14.605086
14.60509
14.605089
14.605089
14.60509
14.605092
14.605095
14.605096
14.605094
14.60509
14.6051
14.605099
14.605098
14.605098
14.605099
14.6051
14.6051
14.605097
14.605094
13.598196
13.598197
13.598197
13.598197
13.598196
13.598194
13.598192
13.59819
13.59819
13.598192
13.598192
13.598193
13.598193
13.598192
13.598189
13.598187
13.598186
13.598188
13.598185
13.598186
13.598187
13.598187
13.598185
13.598183
13.598182
13.598182
13.598185
13.598179
13.59818
13.59818
13.59818
13.598179
13.598177
13.598176
13.598178
13.598181
13.598172
13.598173
13.598174
13.598174
13.598173
13.598171
13.59817
13.598173
13.598178
13.598166
13.598167
13.598168
13.598168
13.598167
13.598165
13.598165
13.598169
13.598175
13.598161
13.598162
13.598163
13.598163
13.598161
13.59816
13.598161
13.598166
13.598173
13.598156
13.598158
13.598158
13.598158
13.598157
13.598155
13.598157
13.598163
13.59817
13.598153
13.598154
13.598154
13.598154
13.598153
13.598152
13.598154
13.59816
13.598168
13.59815
13.598151
13.598152
13.598151
13.59815
13.598149
13.598151
13.598158
13.598167
13.598148
13.598149
13.598149
13.598149
13.598147
13.598147
13.598149
13.598156
13.598166
13.598147
13.598148
13.598148
13.598148
13.598146
13.598145
13.598148
13.598156
13.598166
13.598147
13.598148
13.598148
13.598147
13.598146
13.598145
13.598148
13.598155
13.598166
13.598147
13.598148
13.598149
13.598148
13.598147
13.598146
13.598149
13.598156
13.598166
13.598149
13.59815
13.59815
13.59815
13.598148
13.598148
13.59815
13.598157
13.598167
13.598151
13.598152
13.598153
13.598152
13.59815
13.59815
13.598152
13.598159
13.598169
13.598154
13.598155
13.598156
13.598155
13.598153
13.598152
13.598154
13.598161
13.59817
13.598158
13.598158
13.598159
13.598158
13.598156
13.598155
13.598157
13.598163
13.598172
13.598161
13.598162
13.598163
13.598162
13.59816
13.598159
13.59816
13.598165
13.598174
13.598165
13.598166
13.598167
13.598166
13.598164
13.598163
13.598163
13.598168
13.598175
13.598169
13.59817
13.598171
13.59817
13.598169
13.598167
13.598167
13.59817
13.598177
13.598173
13.598174
13.598175
13.598174
13.598173
13.598171
13.59817
13.598173
13.598178
13.598177
13.598178
13.598178
13.598178
13.598177
13.598175
13.598173
13.598174
13.598178
13.59818
13.598181
13.598181
13.598181
13.59818
13.598178
13.598175
13.598175
13.598177
12.590975
12.590975
12.590975
12.590975
12.590975
12.590976
12.590977
12.590977
12.590978
12.590975
12.590975
12.590975
12.590975
12.590976
12.590977
12.590978
12.590978
12.590978
12.590975
12.590974
12.590974
12.590975
12.590976
12.590977
12.590979
12.590979
12.590979
12.590975
12.590974
12.590974
12.590975
12.590976
12.590978
12.59098
12.59098
12.59098
12.590974
12.590974
12.590974
12.590975
12.590977
12.590979
12.590981
12.590981
12.590981
12.590975
12.590974
12.590974
12.590975
12.590977
12.590979
12.590981
12.590982
12.590982
12.590975
12.590975
12.590975
12.590976
12.590977
12.59098
12.590982
12.590983
12.590983
12.590975
12.590975
12.590975
12.590976
12.590978
12.59098
12.590983
12.590984
12.590983
12.590975
12.590975
12.590975
12.590976
12.590978
12.590981
12.590983
12.590984
12.590984
12.590975
12.590975
12.590975
12.590976
12.590978
12.590981
12.590983
12.590985
12.590985
12.590975
12.590975
12.590975
12.590976
12.590978
12.590981
12.590983
12.590985
12.590985
12.590975
12.590975
12.590975
12.590976
12.590978
12.590981
12.590983
12.590985
12.590985
12.590975
12.590975
12.590975
12.590976
12.590978
12.590981
12.590983
12.590985
12.590985
12.590975
12.590974
12.590975
12.590975
12.590977
12.59098
12.590983
12.590985
12.590985
12.590974
12.590974
12.590974
12.590975
12.590977
12.590979
12.590982
12.590984
12.590985
12.590974
12.590973
12.590973
12.590974
12.590976
12.590978
12.590981
12.590983
12.590984
12.590973
12.590972
12.590972
12.590973
12.590975
12.590977
12.59098
12.590982
12.590983
12.590971
12.590971
12.590971
12.590971
12.590973
12.590976
12.590978
12.59098
12.590982
12.59097
12.59097
12.590969
12.59097
12.590971
12.590974
12.590976
12.590979
12.59098
12.590968
12.590968
12.590968
12.590968
12.590969
12.590971
12.590974
12.590976
12.590978
12.590966
12.590966
12.590965
12.590966
12.590967
12.590969
12.590971
12.590974
12.590976
12.590964
12.590964
12.590963
12.590964
12.590965
12.590966
12.590968
12.590971
12.590973
12.590962
12.590962
12.590962
12.590962
12.590962
12.590964
12.590965
12.590967
12.59097
12.590961
12.590961
12.59096
12.59096
12.590961
12.590962
12.590962
12.590964
12.590966
11.583625
11.583625
11.583625
11.583625
11.583625
11.583625
11.583625
11.583624
11.583623
11.583623
11.583624
11.583624
11.583624
11.583624
11.583623
11.583623
11.583622
11.58362
11.583621
11.583621
11.583622
11.583622
11.583622
11.583622
11.583621
11.58362
11.583619
11.583619
11.583619
11.58362
11.58362
11.58362
11.58362
11.583619
11.583618
11.583617
11.583617
11.583618
11.583618
11.583618
11.583618
11.583618
11.583617
11.583617
11.583616
11.583616
11.583616
11.583616
11.583616
11.583616
11.583616
11.583616
11.583615
11.583614
11.583614
11.583615
11.583615
11.583615
11.583615
11.583615
11.583615
11.583614
11.583613
11.583613
11.583613
11.583613
11.583614
11.583614
11.583614
11.583613
11.583613
11.583612
11.583612
11.583612
11.583612
11.583613
11.583613
11.583613
11.583612
11.583612
11.583611
11.583612
11.583612
11.583612
11.583612
11.583612
11.583612
11.583612
11.583611
11.583611
11.583611
11.583611
11.583611
11.583611
11.583611
11.583611
11.583611
11.583611
11.58361
11.583611
11.583611
11.583611
11.583611
11.583611
11.583611
11.583611
11.58361
11.58361
11.583611
11.583611
11.583611
11.583611
11.583611
11.58361
11.58361
11.58361
11.58361
11.583611
11.583611
11.583611
11.583611
11.58361
11.58361
11.58361
11.58361
11.58361
11.583611
11.583611
11.583611
11.583611
11.583611
11.58361
11.58361
11.58361
11.583611
11.583611
11.583611
11.583611
11.583611
11.583611
11.583611
11.583611
11.583611
11.583611
11.583611
11.583611
11.583611
11.583611
11.583611
11.583611
11.583611
11.583611
11.583611
11.583612
11.583611
11.583611
11.583611
11.583611
11.583611
11.583611
11.583612
11.583612
11.583612
11.583612
11.583612
11.583612
11.583611
11.583612
11.583612
11.583612
11.583613
11.583612
11.583612
11.583612
11.583612
11.583612
11.583612
11.583612
11.583612
11.583613
11.583612
11.583612
11.583612
11.583612
11.583612
11.583612
11.583612
11.583613
11.583613
11.583613
11.583613
11.583612
11.583612
11.583612
11.583612
11.583613
11.583613
11.583613
11.583613
11.583613
11.583613
11.583613
11.583613
11.583613
11.583613
11.583613
11.583613
11.583613
11.583613
11.583613
11.583613
11.583613
11.583613
11.583613
11.583612
11.583613
10.576443
10.576443
10.576443
10.576443
10.576443
10.576443
10.576443
10.576443
10.576442
10.576442
10.576442
10.576442
10.576442
10.576442
10.576442
10.576442
10.576441
10.576441
10.57644
10.57644
10.57644
10.57644
10.57644
10.57644
10.57644
10.57644
10.57644
10.576439
10.576439
10.576439
10.576439
10.576439
10.576439
10.576439
10.576439
10.576439
10.576438
10.576438
10.576438
10.576438
10.576438
10.576438
10.576438
10.576438
10.576438
10.576437
10.576437
10.576437
10.576437
10.576437
10.576437
10.576437
10.576437
10.576438
10.576436
10.576436
10.576436
10.576436
10.576436
10.576436
10.576436
10.576437
10.576437
10.576435
10.576435
10.576435
10.576435
10.576435
10.576435
10.576436
10.576436
10.576436
10.576434
10.576434
10.576435
10.576435
10.576434
10.576435
10.576435
10.576435
10.576436
10.576434
10.576434
10.576434
10.576434
10.576434
10.576434
10.576434
10.576435
10.576435
10.576434
10.576434
10.576434
10.576434
10.576433
10.576434
10.576434
10.576435
10.576435
10.576433
10.576433
10.576433
10.576433
10.576433
10.576433
10.576434
10.576434
10.576435
10.576433
10.576433
10.576433
10.576433
10.576433
10.576433
10.576433
10.576434
10.576435
10.576433
10.576433
10.576433
10.576433
10.576433
10.576433
10.576433
10.576434
10.576435
10.576433
10.576433
10.576433
10.576433
10.576433
10.576433