/*--------------------------------*- C++ -*----------------------------------*\
| =========                 |                                                 |
| \\      /  F ield         | OpenFOAM: The Open Source CFD Toolbox           |
|  \\    /   O peration     | Version:  2406                                  |
|   \\  /    A nd           | Website:  www.openfoam.com                      |
|    \\/     M anipulation  |                                                 |
\*---------------------------------------------------------------------------*/
FoamFile
{
    version     2.0;
    format      ascii;
    arch        "LSB;label=32;scalar=64";
    class       surfaceScalarField;
    location    "1.5";
    object      phi;
}
// * * * * * * * * * * * * * * * * * * * * * * * * * * * * * * * * * * * * * //

dimensions      [0 3 -1 0 0 0 0];

oriented        oriented;

internalField   nonuniform List<scalar> 
101088
(
0.00015771672
-2.371795e-05
1.7696732e-05
2.0561125e-05
0.0003348651
-0.00010143563
7.6154846e-05
8.9187083e-05
0.00050806616
-0.00024248227
0.00018176362
0.0002153778
0.00064467831
-0.00045661703
0.0003388118
0.00040955286
0.0007192198
-0.00072057072
0.00052249776
0.00065335246
0.00073399684
-0.00096891293
0.00067624494
0.00088823716
0.00071890494
-0.0011262671
0.000742314
0.0010440579
0.00070522985
-0.0011567701
0.00070441485
0.0010851165
-0.0010673982
0.00059190146
0.0010121855
0.00070752233
0.00019171341
-2.6266769e-05
2.214345e-05
0.00040192982
-0.00011075262
9.4413352e-05
0.0005984026
-0.00026131294
0.00022349213
0.00073798625
-0.00048546437
0.00041293141
0.00079044019
-0.0007560968
0.00063110513
0.00076357707
-0.0010043421
0.00081110041
0.00069998406
-0.0011549361
0.00088920787
0.00064045595
-0.001173193
0.00085042359
-0.001070943
0.0007277767
0.00060311566
0.00022558805
-2.7847372e-05
2.6713723e-05
0.00046756272
-0.0001158173
0.0001129003
0.00068550531
-0.00027009998
0.00026507813
0.00082828523
-0.00049577809
0.00048540162
0.00086298287
-0.00076232766
0.00073497814
0.00080310951
-0.00099965808
0.00093711877
0.00070104825
-0.0011359161
0.0010234669
0.00060511363
-0.001140221
0.00098138683
-0.0010289888
0.00084852062
0.00053600398
0.00025841731
-2.8381216e-05
3.1306394e-05
0.00053071236
-0.00011651684
0.00013118818
0.00076869148
-0.00026877816
0.00030557549
0.00091416391
-0.00048787619
0.00055479948
0.00093320224
-0.00074117528
0.00083271999
0.00084589355
-0.00095950652
0.0010536555
0.00071344361
-0.0010765776
0.0011456706
0.00058969731
-0.0010666069
0.0010988343
-0.00095115138
0.00095521801
0.0004976204
0.00028921199
-2.7634258e-05
3.5726745e-05
0.00058935275
-0.00011240776
0.00014862178
0.00084533385
-0.00025723829
0.00034383154
0.00099318665
-0.00046287499
0.00061973435
0.00099884862
-0.0006958285
0.00092330811
0.00088876482
-0.00088946484
0.0011606083
0.00073164094
-0.00098426473
0.0012566838
0.00058589112
-0.00096060791
0.0012042709
-0.00084532466
0.0010496514
0.00047604895
0.0003178944
-2.5934793e-05
3.9923602e-05
0.00064422792
-0.00010460569
0.00016503118
0.00091756277
-0.00023761753
0.00037957949
0.0010685853
-0.00042402396
0.00067994699
0.0010628754
-0.00063056059
0.0010067849
0.00093265997
-0.00079481797
0.0012585483
0.00075359654
-0.00086518632
0.0013575687
0.00058884209
-0.000829334
0.0012990567
-0.00071877735
0.0011334058
0.00046438372
0.00034312655
-2.3273167e-05
4.3792287e-05
0.0006919172
-9.3248659e-05
0.00018005695
0.00097932458
-0.00021059462
0.00041215024
0.0011315434
-0.00037312677
0.00073459161
0.0011143513
-0.00054898494
0.0010823061
0.00096568667
-0.00068141608
0.0013468713
0.00076777873
-0.00072734643
0.0014481367
0.00058830432
-0.00068240971
0.0013835436
-0.00058119825
0.0012074068
0.00045376022
0.00036465266
-1.9750558e-05
4.722373e-05
0.0007321575
-7.8765479e-05
0.0001933909
0.0010303661
-0.00017717192
0.00044114154
0.0011813052
-0.00031208721
0.00078351932
0.0011513759
-0.00045441541
0.0011500672
0.00098450005
-0.00055466896
0.0014262133
0.00076991407
-0.00057869865
0.0015293338
0.00057947506
-0.00052961073
0.00145896
-0.00044228621
0.0012730329
0.00043894103
0.00038215169
-1.5484422e-05
5.0141131e-05
0.00076437289
-6.1610083e-05
0.00020478543
0.0010698492
-0.00013827737
0.0004661166
0.001216648
-0.00024248282
0.00082612764
0.0011721046
-0.0003496321
0.0012095778
0.00098689851
-0.00041950809
0.0014961114
0.00075792849
-0.00042701444
0.0016008825
0.00056034247
-0.0003803324
0.0015253135
-0.00031103441
0.0013306147
0.00041766951
0.00039545816
-1.0686782e-05
5.2471515e-05
0.00078846515
-4.2456571e-05
0.00021396809
0.0010980322
-9.5100754e-05
0.00048647589
0.0012385423
-0.00016608108
0.00086135835
0.0011783339
-0.00023733243
0.0012594538
0.0009756573
-0.00028015906
0.0015545881
0.00073515433
-0.00027851224
0.0016606703
0.00053389434
-0.00024159323
0.0015808967
-0.00019382473
0.0013791246
0.00039194272
0.00040420067
-5.466379e-06
5.4159133e-05
0.00080366722
-2.1669273e-05
0.00022060577
0.001114291
-4.8475316e-05
0.00050121261
0.0012478131
-8.4436276e-05
0.00088699342
0.0011737156
-0.00011990709
0.0012960373
0.00095698439
-0.0001398168
0.0015976738
0.00070890634
-0.00013652511
0.0017045672
0.00050687402
-0.00011611103
0.0016221321
-9.1868801e-05
0.0014148096
0.00036748877
0.00040861286
-2.5720274e-11
5.4983481e-05
0.00081130769
-1.2593796e-10
0.00022393427
0.0011221985
-3.374217e-10
0.00050880703
0.0012513898
-7.1072164e-10
0.00090058019
0.0011689748
-1.2853801e-09
0.0013158867
0.00094400976
-1.8599203e-09
0.0016215337
0.00069182078
-2.2449018e-09
0.0017290999
0.000489836
-2.3884316e-09
0.0016450747
-2.2323057e-09
0.0014344746
0.00035235062
0.00040861265
5.4663174e-06
5.4983473e-05
0.00081130743
2.1669011e-05
0.00022393424
0.0011221986
4.8474683e-05
0.00050880695
0.0012513898
8.4434993e-05
0.00090058006
0.0011689749
0.00011990477
0.0013158865
0.00094400985
0.00013981338
0.0016215334
0.00069182085
0.00013652086
0.0017290998
0.00048983596
0.00011610641
0.0016450745
9.1864493e-05
0.0014344744
0.00035235068
0.00040420047
1.068672e-05
5.4159132e-05
0.00080366703
4.2456329e-05
0.00022060576
0.0011142914
9.5100205e-05
0.00050121255
0.0012478133
0.00016608005
0.00088699335
0.001173716
0.00023733062
0.0012960371
0.00095698471
0.00028015629
0.0015976736
0.00070890655
0.00027850845
0.001704567
0.00050687394
0.00024158894
0.0016221317
0.00019382079
0.0014148092
0.00036748916
0.00039545806
1.5484389e-05
5.2471501e-05
0.00078846504
6.1609906e-05
0.00021396803
0.0010980327
0.00013827694
0.00048647573
0.0012385423
0.00024248204
0.00086135814
0.0011783342
0.00034963065
0.0012594535
0.00097565738
0.00041950565
0.0015545876
0.00073515441
0.00042701084
0.0016606698
0.00053389418
0.00038032834
0.0015808961
0.0003110308
0.0013791241
0.00039194357
0.00038215152
1.9750564e-05
5.0141127e-05
0.00076437272
7.8765387e-05
0.00020478541
0.0010698497
0.00017717174
0.00046611654
0.001216648
0.00031208667
0.00082612754
0.0011721047
0.00045441399
0.0012095776
0.00098689833
0.00055466643
0.0014961111
0.00075792838
0.00057869514
0.001600882
0.00056034227
0.00052960692
0.0015253128
0.00044228264
0.0013306142
0.0004176704
0.00036465253
2.3273147e-05
4.7223734e-05
0.00073215728
9.3248541e-05
0.00019339092
0.0010303667
0.00021059431
0.00044114154
0.0011813057
0.00037312589
0.0007835193
0.0011513763
0.00054898326
0.0011500672
0.00098449992
0.00068141365
0.0014262132
0.0007699139
0.00072734347
0.0015293334
0.00057947478
0.00068240639
0.0014589594
0.00058119414
0.0012730325
0.00043894135
0.00034312649
2.5934727e-05
4.3792294e-05
0.00069191687
0.0001046055
0.00018005698
0.0009793251
0.00023761687
0.0004121503
0.0011315444
0.00042402265
0.00073459171
0.0011143521
0.0006305588
0.0010823063
0.00096568687
0.00079481588
0.0013468715
0.00076777848
0.00086518405
0.0014481365
0.00058830354
0.00082933124
0.0013835433
0.00071877271
0.0012074065
0.00045375957
0.00031789434
2.7634225e-05
3.9923618e-05
0.00064422783
0.00011240763
0.00016503124
0.00091756342
0.0002572378
0.00037957963
0.0010685865
0.00046287403
0.00067994721
0.0010628766
0.00069582704
0.0010067852
0.0009326606
0.00088946288
0.0012585486
0.00075359626
0.00098426237
0.0013575688
0.00058884077
0.0009606055
0.0012990566
0.00084532103
0.0011334055
0.00046438203
0.00028921194
2.8381103e-05
3.5726748e-05
0.00058935271
0.00011651647
0.00014862179
0.00084533404
0.00026877741
0.00034383155
0.0009931875
0.00048787495
0.00061973434
0.00099884975
0.00074117359
0.00092330813
0.00088876528
0.00095950424
0.0011606084
0.00073164066
0.0010765752
0.0012566838
0.00058588996
0.0010666053
0.0012042708
0.00095115001
0.0010496511
0.00047604654
0.00025841716
2.7847291e-05
3.1306391e-05
0.000530712
0.00011581701
0.00013118816
0.00076869128
0.00027009939
0.00030557543
0.00091416445
0.00049577708
0.00055479938
0.00093320286
0.00076232615
0.00083271993
0.00084589343
0.00099965587
0.0010536555
0.00071344293
0.001135914
0.0011456705
0.00058969594
0.0011402212
0.0010988341
0.0010289893
0.00095521786
0.00049761767
0.00022558794
2.6266714e-05
2.6713718e-05
0.00046756243
0.00011075241
0.00011290028
0.00068550495
0.00026131252
0.00026507805
0.0008282849
0.00048546367
0.00048540146
0.00086298231
0.00075609589
0.00073497792
0.00080310812
0.0010043408
0.00093711857
0.00070104682
0.0011549342
0.0010234668
0.00060511124
0.0011731923
0.00098138685
0.0010709452
0.00084852066
0.00053600078
0.00019171338
2.3717914e-05
2.214345e-05
0.00040192963
0.0001014355
9.4413344e-05
0.00059840226
0.00024248202
0.0002234921
0.00073798575
0.00045661672
0.00041293133
0.00079043911
0.00072057054
0.00063110503
0.00076357455
0.0009689126
0.00081110043
0.00069998042
0.0011262661
0.00088920798
0.00064045141
0.0011567693
0.00085042375
0.0010673994
0.00072777688
0.00060311153
0.00015771667
1.7696735e-05
2.0561169e-05
0.00033486486
7.6154854e-05
8.9187236e-05
0.00050806568
0.00018176363
0.00021537816
0.00064467708
0.00033881181
0.00040955361
0.00071921706
0.00052249779
0.00065335367
0.00073399275
0.00067624501
0.00088823826
0.00071889981
0.00074231417
0.0010440574
0.00070522568
0.00070441493
0.0010851152
0.0005919015
0.0010121832
0.00070752136
2.8423025e-06
-3.8379909e-06
1.614468e-05
2.5477381e-06
1.307253e-05
-2.0241094e-05
7.1871665e-05
1.4294125e-05
3.4527437e-05
-5.9604762e-05
0.00017597397
4.3939734e-05
7.0800003e-05
-0.00013911418
0.00033536089
0.00010629286
0.00012076705
-0.00026848109
0.00052879468
0.00021221741
0.00017597816
-0.00042748857
0.00069945797
0.00034906446
0.00022911898
-0.00056408476
0.00078233811
0.00047091979
0.00027836578
-0.00063252994
0.00075229487
0.00053540296
-0.0006224064
0.00063583408
0.00053542933
0.00032140992
3.7613789e-06
-4.8701053e-06
1.9414209e-05
1.7198631e-05
-2.5523915e-05
8.6259016e-05
4.4396373e-05
-7.3998269e-05
0.00021068799
8.7230356e-05
-0.00016896969
0.00039995278
0.00014031235
-0.0003179019
0.00062744359
0.00019148084
-0.00049349547
0.00082593892
0.00023219447
-0.00063802651
0.00092243637
0.00026290504
-0.00070488847
0.0008920712
-0.00068550189
0.00076665654
0.00028712027
5.0551172e-06
-5.763505e-06
2.2552088e-05
2.2457077e-05
-3.0075506e-05
0.00010005022
5.6032401e-05
-8.6284336e-05
0.00024378915
0.00010546694
-0.00019382895
0.00046082629
0.00016118967
-0.00035724255
0.00071859583
0.00020777686
-0.00054258266
0.00093961856
0.00023719333
-0.00068839457
0.001044418
0.00025298978
-0.00074976409
0.0010104663
-0.00072225907
0.00087603051
0.00026223654
6.5544083e-06
-6.537924e-06
2.5526432e-05
2.8533891e-05
-3.3926818e-05
0.00011306002
6.9380384e-05
-9.6357569e-05
0.00027480192
0.00012569402
-0.00021260362
0.00051725993
0.00018369948
-0.00038434904
0.00080182144
0.00022569201
-0.00057229545
0.0010413756
0.00024522913
-0.00071345402
0.0011511931
0.00024901328
-0.00076664555
0.0011119314
-0.00073163253
0.00096804792
0.00024555659
8.0500718e-06
-7.0670587e-06
2.820592e-05
3.4467387e-05
-3.6545179e-05
0.00012482316
8.2206786e-05
-0.00010314381
0.00030287848
0.00014502757
-0.00022393984
0.00056824922
0.00020519758
-0.0003977524
0.00087654081
0.00024323415
-0.00058148472
0.0011317611
0.00025449601
-0.00071276363
0.0012447314
0.000248494
-0.00075580621
0.0011994338
-0.00071440081
0.0010459607
0.00023495297
9.5935525e-06
-7.3527356e-06
3.0615691e-05
4.0481606e-05
-3.7814303e-05
0.0001354121
9.4752634e-05
-0.00010597864
0.00032814284
0.00016441248
-0.00022769073
0.00061403817
0.00022693776
-0.00039680736
0.00094331384
0.00026130598
-0.00056918601
0.0012118812
0.0002648465
-0.00068548803
0.0013267524
0.00025002199
-0.00071701496
0.0012750901
-0.00067100013
0.0011121216
0.00022790539
1.0994299e-05
-7.3062251e-06
3.275161e-05
4.583716e-05
-3.7375715e-05
0.00014477557
0.00010560838
-0.00010402832
0.00035042809
0.00018015976
-0.00022198389
0.0006543333
0.00024284598
-0.00037905284
0.0010018657
0.00027266333
-0.00053378766
0.0012816561
0.00026931161
-0.00063155031
0.0013975505
0.00024752556
-0.00065135765
0.0013396724
-0.0006034397
0.0011678795
0.00021949244
1.2201729e-05
-6.8571835e-06
3.4573159e-05
5.0293319e-05
-3.4884411e-05
0.00015280789
0.00011406153
-9.6300935e-05
0.00036964511
0.00018965976
-0.00020332317
0.00068925991
0.00025042588
-0.00034254154
0.0010527895
0.00027470631
-0.00047406987
0.0013422153
0.00026503619
-0.00055113232
0.0014585859
0.00023812677
-0.00056031695
0.001394829
-0.00051406916
0.0012149939
0.00020679531
1.3128982e-05
-5.9211168e-06
3.6076258e-05
5.3471009e-05
-2.9934951e-05
0.00015949406
0.00011945167
-8.1939296e-05
0.00038577396
0.00019450068
-0.00017104784
0.00071880355
0.00025086081
-0.00028547458
0.0010961504
0.00026645274
-0.00038741012
0.0013938597
0.00025037065
-0.00044451369
0.001510346
0.00022036999
-0.00044625496
0.0014412526
-0.00040624133
0.0012543141
0.0001888427
1.3758675e-05
-4.464251e-06
3.7255883e-05
5.5352517e-05
-2.235452e-05
0.0001647938
0.00012183973
-6.0619619e-05
0.00039866874
0.00019464587
-0.00012508361
0.00074258838
0.00024281009
-0.00020538433
0.0011311993
0.00024927665
-0.00027491096
0.0014356223
0.00022776474
-0.00031436774
0.0015520363
0.0001965347
-0.00031255899
0.001478431
-0.00028148705
0.0012856077
0.00016529723
1.4013597e-05
-2.4659349e-06
3.8147144e-05
5.5744614e-05
-1.2188191e-05
0.00016870849
0.00012100416
-3.269985e-05
0.00040803307
0.00019013913
-6.6849939e-05
0.00075962475
0.00023377667
-0.00010895611
0.0011559713
0.00023602709
-0.0001443599
0.0014648722
0.00020757873
-0.00016250421
0.001581152
0.00017304492
-0.00016021078
0.0015043178
-0.00014360837
0.001307278
0.00014269774
1.396553e-05
6.5587155e-12
3.8551999e-05
5.5135595e-05
1.1345177e-11
0.00017057605
0.00011857713
8.4020011e-12
0.00041266553
0.00018402744
-7.6209456e-11
0.00076827979
0.00022219828
-3.124367e-10
0.0011687599
0.0002192955
-4.672222e-10
0.0014800769
0.00018954417
-3.810617e-10
0.0015963475
0.00015654814
-1.1626128e-10
0.0015178601
2.7844119e-10
0.0013186279
0.00012878622
1.3965505e-05
2.465936e-06
3.8551993e-05
5.513544e-05
1.2188175e-05
0.00017057602
0.00011857704
3.2699858e-05
0.00041266546
0.00018402738
6.6849858e-05
0.00076827966
0.00022219835
0.00010895559
0.0011687597
0.00021929561
0.00014435908
0.0014800767
0.00018954424
0.0001625035
0.0015963473
0.00015654813
0.00016021055
0.0015178599
0.00014360891
0.0013186278
0.00012878617
1.4013607e-05
4.4642611e-06
3.8147141e-05
5.5744438e-05
2.2354529e-05
0.00016870848
0.00012100427
6.0619719e-05
0.00040803303
0.0001901392
0.00012508369
0.00075962465
0.00023377699
0.00020538402
0.0011559711
0.00023602741
0.00027491041
0.001464872
0.00020757892
0.00031436712
0.0015811518
0.0001730449
0.00031255872
0.0015043175
0.00028148755
0.0013072776
0.00014269778
1.3758721e-05
5.9211512e-06
3.7255871e-05
5.5352497e-05
2.9935047e-05
0.00016479375
0.00012184016
8.1939435e-05
0.00039866861
0.00019464609
0.00017104777
0.00074258818
0.00024281055
0.00028547416
0.001131199
0.000249277
0.00038740961
0.0014356219
0.00022776495
0.00044451295
0.0015520359
0.00019653471
0.00044625446
0.0014784306
0.00040624169
0.0012856072
0.00016529765
1.3128857e-05
6.857189e-06
3.6076254e-05
5.3470836e-05
3.4884485e-05
0.00015949404
0.00011945211
9.6300944e-05
0.00038577391
0.00019450098
0.00020332281
0.00071880348
0.00025086127
0.00034254102
0.0010961503
0.00026645296
0.00047406928
0.0013938595
0.0002503708
0.00055113138
0.0015103456
0.00022037003
0.0005603161
0.001441252
0.00051406894
0.0012543137
0.00018884354
1.2201512e-05
7.3062549e-06
3.4573164e-05
5.0293073e-05
3.7375889e-05
0.00015280791
0.00011406195
0.00010402843
0.00036964513
0.00018966031
0.00022198356
0.00068925995
0.00025042639
0.00037905235
0.0010527896
0.00027470643
0.00053378699
0.0013422152
0.00026503628
0.00063154935
0.0014585856
0.0002381267
0.00065135652
0.0013948285
0.00060343839
0.0012149936
0.00020679591
1.0994184e-05
7.3527249e-06
3.2751616e-05
4.5837023e-05
3.7814349e-05
0.00014477559
0.00010560893
0.00010597862
0.00035042812
0.0001801604
0.00022769031
0.00065433339
0.00024284655
0.00039680667
0.0010018659
0.0002726635
0.00056918527
0.0012816562
0.00026931163
0.00068548725
0.0013975504
0.00024752516
0.00071701369
0.0013396721
0.00067099801
0.0011678792
0.00021949213
9.5935901e-06
7.0670318e-06
3.0615702e-05
4.0481798e-05
3.654519e-05
0.00013541215
9.4753257e-05
0.00010314386
0.00032814294
0.00016441282
0.00022393959
0.00061403838
0.00022693844
0.00039775203
0.00094331416
0.00026130625
0.0005814843
0.0012118815
0.00026484648
0.00071276291
0.0013267525
0.00025002129
0.00075580479
0.00127509
0.00071439887
0.0011121213
0.00022790436
8.0499574e-06
6.5379177e-06
2.8205924e-05
3.4467015e-05
3.3926811e-05
0.00012482317
8.2206455e-05
9.6357603e-05
0.00030287849
0.00014502764
0.00021260363
0.00056824921
0.00020519798
0.00038434891
0.00087654085
0.00024323427
0.00057229498
0.0011317612
0.00025449591
0.00071345333
0.0012447314
0.00024849316
0.00076664433
0.0011994337
0.00073163124
0.0010459604
0.00023495169
6.5544055e-06
5.763501e-06
2.5526428e-05
2.8533846e-05
3.007553e-05
0.00011306
6.938053e-05
8.6284414e-05
0.00027480186
0.00012569456
0.00019382895
0.00051725981
0.00018369957
0.0003572422
0.00080182137
0.00022569198
0.00054258226
0.0010413755
0.0002452286
0.00068839399
0.0011511931
0.00024901222
0.0007497637
0.0011119312
0.00072225914
0.00096804778
0.00024555466
5.0550682e-06
4.8700828e-06
2.2552082e-05
2.2456808e-05
2.5523874e-05
0.00010005019
5.6031991e-05
7.3998206e-05
0.00024378908
0.00010546672
0.00016896962
0.00046082611
0.00016118959
0.00031790182
0.00071859558
0.00020777644
0.00049349544
0.00093961834
0.00023719287
0.00063802629
0.0010444179
0.00025298859
0.00070488833
0.0010104663
0.00068550292
0.00087603059
0.00026223408
3.7613041e-06
3.8379839e-06
1.9414209e-05
1.7198322e-05
2.0241096e-05
8.625901e-05
4.4395807e-05
5.9604836e-05
0.00021068797
8.7229667e-05
0.00013911447
0.00039995271
0.00014031145
0.00026848154
0.0006274435
0.00019147895
0.00042748895
0.00082593895
0.00023219205
0.00056408487
0.00092243647
0.00026290238
0.00063253046
0.0008920713
0.00062240711
0.0007666567
0.00028711719
2.8422286e-06
1.6144683e-05
2.5477863e-06
1.3072191e-05
7.1871673e-05
1.4294306e-05
3.4526687e-05
0.00017597398
4.3940128e-05
7.0798553e-05
0.00033536089
0.00010629356
0.00012076439
0.00052879469
0.00021221842
0.00017597489
0.00069945799
0.00034906572
0.00022911571
0.00078233823
0.00047092068
0.00027836253
0.00075229497
0.0005354035
0.00063583409
0.00053542914
0.00032140879
4.0065218e-07
-1.3031041e-06
1.6005614e-05
1.0415169e-06
2.4880552e-06
-7.0221756e-06
7.1097237e-05
5.7092831e-06
7.6718252e-06
-2.1401988e-05
0.00017475308
1.7439356e-05
1.7113731e-05
-5.2538023e-05
0.00033571101
4.2746348e-05
3.1776276e-05
-0.00010847918
0.00053392444
8.8687141e-05
5.1980446e-05
-0.00018615353
0.0007109292
0.00015447812
7.732655e-05
-0.00026207517
0.00079704222
0.00022202497
0.00010748825
-0.00030697536
0.00076422436
0.0002648842
-0.00030875373
0.00064173733
0.00027128361
0.00013905496
4.8247502e-07
-1.4605049e-06
1.9089165e-05
3.1326727e-06
-8.0468895e-06
8.463364e-05
9.6503872e-06
-2.4919916e-05
0.00020768836
2.0733381e-05
-6.1592026e-05
0.00039792376
3.593096e-05
-0.00012669417
0.00063046074
5.3555909e-05
-0.00021411239
0.00083627301
7.2333801e-05
-0.0002950328
0.00093661666
9.2815347e-05
-0.00033846321
0.00090307733
-0.00033560922
0.00077053956
0.00011578761
6.9213709e-07
-1.5981758e-06
2.1997686e-05
4.2211267e-06
-8.9057777e-06
9.7380354e-05
1.2511526e-05
-2.7979577e-05
0.00023855872
2.5845661e-05
-6.9702695e-05
0.00045560284
4.2128926e-05
-0.0001426093
0.00071822756
5.7605705e-05
-0.00023694347
0.00094697288
7.0442463e-05
-0.00031913648
0.0010556846
8.2718602e-05
-0.00035832664
0.0010180539
-0.00035008412
0.00087589529
9.7328412e-05
9.9536861e-07
-1.7657647e-06
2.469867e-05
5.7480324e-06
-9.7581088e-06
0.00010915972
1.6237766e-05
-3.0582303e-05
0.00026691477
3.2326049e-05
-7.6591989e-05
0.00050806063
4.9969596e-05
-0.0001552712
0.00079684041
6.3517257e-05
-0.0002531459
0.0010440305
7.1150716e-05
-0.0003330416
0.0011574652
7.6604225e-05
-0.00036589745
0.0011140487
-0.00035197912
0.00096236971
8.4177325e-05
1.3083072e-06
-1.9383192e-06
2.7070258e-05
7.3915176e-06
-1.0554834e-05
0.00011953698
2.0321408e-05
-3.2581262e-05
0.00029194774
3.928481e-05
-8.1637943e-05
0.00055433146
5.8357881e-05
-0.00016357572
0.0008657719
7.0176683e-05
-0.00026136469
0.0011281614
7.3311503e-05
-0.00033577317
0.0012443282
7.3219584e-05
-0.00036094846
0.0011945771
-0.00034191054
0.0010337002
7.5411551e-05
1.7033859e-06
-2.1718344e-06
2.91458e-05
9.41749e-06
-1.1473852e-05
0.00012861696
2.5609466e-05
-3.4457349e-05
0.0003138268
4.7455594e-05
-8.4171631e-05
0.00059472628
6.7955268e-05
-0.0001664064
0.00092564453
7.8018877e-05
-0.00026013958
0.0012005926
7.6880273e-05
-0.00032611877
0.0013182364
7.1875445e-05
-0.00034297397
0.0012621206
-0.000320106
0.0010925135
6.967897e-05
2.0246728e-06
-2.3701632e-06
3.0925402e-05
1.107466e-05
-1.2118577e-05
0.0001363704
2.9910543e-05
-3.5310183e-05
0.00033244468
5.4166958e-05
-8.3080065e-05
0.00062898559
7.5857187e-05
-0.00016243374
0.00097620322
8.3914406e-05
-0.00024787545
0.0012613354
7.8730184e-05
-0.00030305063
0.0013796665
6.9797266e-05
-0.00031205272
0.0013176841
-0.00028742803
0.0011402775
6.4721198e-05
2.2348633e-06
-2.4119739e-06
3.2380315e-05
1.2193623e-05
-1.2000658e-05
0.00014273122
3.2939762e-05
-3.4183602e-05
0.00034777196
6.0355684e-05
-7.8499435e-05
0.00065726333
8.1965785e-05
-0.00014950937
0.0010182551
8.7026077e-05
-0.00022257063
0.0013118507
7.7854099e-05
-0.00026570738
0.0014304147
6.5937504e-05
-0.00026843782
0.0013631309
-0.0002447132
0.0011788102
5.9406442e-05
2.3380819e-06
-2.1942409e-06
3.3520624e-05
1.2808563e-05
-1.0723052e-05
0.00014774615
3.4550183e-05
-3.0097079e-05
0.00035994577
6.2985094e-05
-6.8082037e-05
0.00067995178
8.3259111e-05
-0.00012597894
0.0010523461
8.6385138e-05
-0.00018479672
0.00135296
7.4031697e-05
-0.00021459628
0.0014715885
6.0257542e-05
-0.00021295225
0.0013995415
-0.00019236012
0.0012090811
5.3137563e-05
2.3517646e-06
-1.6522027e-06
3.4362042e-05
1.2991906e-05
-8.0405507e-06
0.00015147127
3.4961636e-05
-2.2446232e-05
0.00036904815
6.2921489e-05
-5.0486796e-05
0.00069703388
8.3161877e-05
-9.3114879e-05
0.0010780951
8.38744e-05
-0.00013437406
0.0013844874
6.8594439e-05
-0.00015038251
0.0015031027
5.4025252e-05
-0.00014697566
0.001427024
-0.00013285371
0.0012310896
4.9036919e-05
2.3990366e-06
-8.7789567e-07
3.4973759e-05
1.3249786e-05
-4.2787182e-06
0.00015409613
3.5476246e-05
-1.1940921e-05
0.00037530139
6.28233e-05
-2.6733161e-05
0.00070852434
7.9272508e-05
-4.8764748e-05
0.0010951722
7.4388662e-05
-6.9854076e-05
0.0014052363
5.9820288e-05
-7.8381233e-05
0.0015237193
4.882069e-05
-7.6037165e-05
0.0014443791
-6.8389766e-05
0.0012449399
4.6694829e-05
2.448744e-06
8.4907184e-12
3.5225365e-05
1.349811e-05
3.0231535e-11
0.00015524814
3.6027293e-05
8.8262253e-11
0.00037819552
6.3501414e-05
1.7236137e-10
0.00071407253
7.9855815e-05
2.7126159e-10
0.0011036407
7.451653e-05
3.9981732e-10
0.0014155621
5.8546423e-05
5.0083363e-10
0.0015339362
4.7286223e-05
4.6054956e-10
0.0014530828
4.0690946e-10
0.001251929
4.5595078e-05
2.4487476e-06
8.7790617e-07
3.522536e-05
1.3497995e-05
4.2787563e-06
0.00015524812
3.6027178e-05
1.1941103e-05
0.00037819546
6.3501302e-05
2.6733582e-05
0.00071407242
7.9855732e-05
4.8765388e-05
0.0011036406
7.4516449e-05
6.9854929e-05
0.0014155619
5.8546333e-05
7.838223e-05
0.0015339361
4.7286096e-05
7.6038043e-05
0.0014530827
6.8390544e-05
0.0012519289
4.55949e-05
2.399078e-06
1.652221e-06
3.4973759e-05
1.3249637e-05
8.0406125e-06
0.00015409613
3.5476184e-05
2.2446502e-05
0.00037530138
6.2823148e-05
5.048738e-05
0.0007085243
7.9272361e-05
9.311569e-05
0.0010951721
7.4388458e-05
0.000134375
0.0014052362
5.9820031e-05
0.00015038346
0.0015237193
4.8820344e-05
0.00014697639
0.001444379
0.00013285434
0.0012449397
4.6694503e-05
2.3518032e-06
2.1942852e-06
3.4362034e-05
1.2991854e-05
1.0723207e-05
0.00015147123
3.4961781e-05
3.0097457e-05
0.00036904806
6.2921329e-05
6.8082606e-05
0.00069703374
8.3161677e-05
0.00012597972
0.0010780949
8.387404e-05
0.00018479767
0.0013844871
6.8593992e-05
0.00021459711
0.0015031024
5.4024697e-05
0.00021295277
0.0014270236
0.00019236045
0.0012310893
4.9036711e-05
2.3379567e-06
2.4120055e-06
3.3520622e-05
1.2808357e-05
1.2000828e-05
0.00014774614
3.4550278e-05
3.4183924e-05
0.00035994574
6.2984939e-05
7.8499803e-05
0.00067995174
8.3258956e-05
0.00014951008
0.001052346
8.6384618e-05
0.00022257169
0.0013529599
7.4031062e-05
0.00026570821
0.0014715882
6.0256768e-05
0.00026843818
0.0013995411
0.00024471303
0.0012090808
5.3137374e-05
2.2346534e-06
2.370224e-06
3.2380319e-05
1.2193326e-05
1.2118878e-05
0.00014273123
3.2939812e-05
3.531066e-05
0.00034777198
6.0355619e-05
8.3080577e-05
0.00065726338
8.1965624e-05
0.00016243459
0.0010182552
8.7025414e-05
0.00024787665
0.0013118506
7.7853313e-05
0.00030305161
0.0014304145
6.5936497e-05
0.00031205299
0.0013631306
0.00028742712
0.00117881
5.9405929e-05
2.0245483e-06
2.1718808e-06
3.0925408e-05
1.1074475e-05
1.1474114e-05
0.00013637042
2.9910764e-05
3.4457823e-05
0.00033244472
5.4166975e-05
8.4172195e-05
0.00062898567
7.5857035e-05
0.00016640725
0.00097620337
8.391371e-05
0.00026014086
0.0012613355
7.8729296e-05
0.00032611998
0.0013796665
6.9795976e-05
0.00034297421
0.001317684
0.00032010466
0.0011402774
6.4719895e-05
1.7034176e-06
1.9383534e-06
2.914581e-05
9.4176386e-06
1.0555061e-05
0.000128617
2.5609786e-05
3.2581809e-05
0.0003138269
4.7455355e-05
8.1638675e-05
0.00059472647
6.7955156e-05
0.00016357691
0.00092564481
7.8018272e-05
0.00026136627
0.001200593
7.6879457e-05
0.0003357745
0.0013182367
7.1874134e-05
0.00036094863
0.0012621206
0.00034190942
0.0010925133
6.9677294e-05
1.3082246e-06
1.7658139e-06
2.7070262e-05
7.3912113e-06
9.7583249e-06
0.00011953699
2.0320998e-05
3.0582893e-05
0.00029194776
3.9284529e-05
7.6593e-05
0.00055433147
5.8357715e-05
0.00015527263
0.00086577194
7.0176201e-05
0.00025314741
0.0011281615
7.3310906e-05
0.0003330429
0.0012443282
7.3218506e-05
0.00036589764
0.001194577
0.00035197848
0.0010337
7.5410101e-05
9.9536049e-07
1.5982367e-06
2.4698667e-05
5.7479488e-06
8.9060459e-06
0.0001091597
1.6237761e-05
2.79802e-05
0.00026691472
3.2326279e-05
6.9703665e-05
0.00050806053
4.996937e-05
0.00014261046
0.00079684033
6.3516945e-05
0.00023694495
0.0010440303
7.115007e-05
0.00031913766
0.0011574651
7.6603095e-05
0.00035832739
0.0011140486
0.00035008458
0.00096236961
8.4175479e-05
6.9210142e-07
1.4605446e-06
2.1997681e-05
4.2209145e-06
8.0470722e-06
9.7380329e-05
1.2511186e-05
2.492033e-05
0.00023855865
2.5845517e-05
6.1592779e-05
0.00045560269
4.2129026e-05
0.00012669532
0.00071822732
5.7605604e-05
0.00021411392
0.00094697265
7.044219e-05
0.00029503426
0.0010556844
8.2717666e-05
0.00033846437
0.0010180539
0.00033561036
0.00087589535
9.7326368e-05
4.8242958e-07
1.3031368e-06
1.9089165e-05
3.1324928e-06
7.0223188e-06
8.4633637e-05
9.6500898e-06
2.1402357e-05
0.00020768834
2.0733156e-05
5.2538805e-05
0.0003979237
3.5930942e-05
0.00010848034
0.00063046065
5.3555543e-05
0.00018615489
0.00083627298
7.2333176e-05
0.00026207652
0.00093661666
9.2814714e-05
0.00030697685
0.00090307735
0.00030875461
0.00077053967
0.00011578662
4.006203e-07
1.6005617e-05
1.0415666e-06
2.4878787e-06
7.1097247e-05
5.7094778e-06
7.6714115e-06
0.00017475309
1.7439794e-05
1.7112921e-05
0.00033571102
4.2747123e-05
3.1774819e-05
0.00053392444
8.8688242e-05
5.1979111e-05
0.00071092918
0.00015447956
7.7325965e-05
0.00079704225
0.00022202639
0.00010748741
0.00076422444
0.00026488559
0.0006417373
0.00027128434
0.00013905536
2.7866957e-08
-8.0680482e-07
1.6247312e-05
5.3723981e-07
1.298314e-07
-4.0092228e-06
7.2208097e-05
2.7964418e-06
8.6506072e-07
-1.1413086e-05
0.00017720683
8.2242319e-06
3.9889948e-06
-2.6490632e-05
0.00033948752
1.9590384e-05
1.2017039e-05
-5.2916341e-05
0.00053875206
4.0060835e-05
2.6244139e-05
-9.0217743e-05
0.00071698602
6.993382e-05
4.4775971e-05
-0.0001281532
0.00080475051
0.00010191313
6.3443484e-05
-0.00015149076
0.00077315332
0.00012389437
-0.00015225034
0.00065032735
0.00012844331
7.8660433e-05
3.2920767e-09
-1.03373e-06
1.9312817e-05
8.5929732e-08
-5.1090222e-06
8.5650876e-05
9.9107305e-07
-1.4398399e-05
0.00020976865
4.783864e-06
-3.2971942e-05
0.00040061234
1.3981448e-05
-6.4804879e-05
0.00063315161
2.8879716e-05
-0.00010818542
0.0008393426
4.6089465e-05
-0.00014983167
0.00094108582
6.1190974e-05
-0.00017260943
0.0009090945
-0.00017000282
0.00077711091
7.2372133e-05
-3.6252455e-09
-1.2151025e-06
2.2182717e-05
6.1929236e-08
-5.9960312e-06
9.8201943e-05
1.0830745e-06
-1.6851483e-05
0.00023999085
5.458171e-06
-3.8395798e-05
0.00045665162
1.5697983e-05
-7.4726093e-05
0.00071790885
3.1176647e-05
-0.00012257644
0.0009458853
4.7343801e-05
-0.00016579864
0.0010554843
5.9813043e-05
-0.00018654314
0.0010195187
-0.00018068799
0.00087876977
6.7623614e-05
5.6768815e-09
-1.3500122e-06
2.4827917e-05
1.242688e-07
-6.6546107e-06
0.00010969975
1.3939405e-06
-1.8672652e-05
0.00026746624
6.4801396e-06
-4.2446789e-05
0.00050702532
1.7792972e-05
-8.2050495e-05
0.00079285247
3.3858664e-05
-0.00013257579
0.0010379643
4.9291834e-05
-0.00017544076
0.0011516745
5.9822022e-05
-0.00019305557
0.0011100311
-0.00018406707
0.00096065687
6.4913933e-05
7.3368837e-09
-1.4141211e-06