/*--------------------------------*- C++ -*----------------------------------*\
  =========                 |
  \\      /  F ield         | OpenFOAM: The Open Source CFD Toolbox
   \\    /   O peration     | Website:  https://openfoam.org
    \\  /    A nd           | Version:  10
     \\/     M anipulation  |
\*---------------------------------------------------------------------------*/
FoamFile
{
    format      ascii;
    class       volScalarField;
    location    "42.5";
    object      T;
}
// * * * * * * * * * * * * * * * * * * * * * * * * * * * * * * * * * * * * * //

dimensions      [0 0 0 1 0 0 0];

internalField   nonuniform List<scalar> 
10000
(
374.989
361.305
356.634
354.593
353.49
352.799
352.32
351.965
351.69
351.469
351.286
351.131
350.998
350.881
350.778
350.685
350.601
350.525
350.454
350.388
350.327
350.27
350.216
350.166
350.117
350.071
350.027
349.985
349.945
349.906
349.869
349.833
349.798
349.764
349.732
349.7
349.669
349.639
349.61
349.582
349.554
349.527
349.501
349.476
349.451
349.426
349.403
349.38
349.357
349.335
349.313
349.292
349.272
349.252
349.232
349.213
349.195
349.177
349.159
349.142
349.125
349.109
349.093
349.078
349.063
349.048
349.034
349.021
349.008
348.995
348.983
348.971
348.959
348.948
348.937
348.927
348.917
348.908
348.899
348.891
348.882
348.875
348.868
348.861
348.854
348.848
348.843
348.837
348.833
348.828
348.824
348.821
348.817
348.815
348.812
348.811
348.809
348.808
348.807
348.807
388.629
374.899
367.274
362.84
360.06
358.183
356.834
355.815
355.016
354.368
353.829
353.372
352.977
352.631
352.323
352.047
351.796
351.567
351.356
351.161
350.978
350.807
350.646
350.494
350.349
350.212
350.08
349.954
349.833
349.717
349.605
349.497
349.393
349.292
349.194
349.099
349.007
348.917
348.83
348.745
348.662
348.581
348.503
348.426
348.352
348.279
348.208
348.138
348.07
348.004
347.94
347.877
347.815
347.755
347.697
347.64
347.584
347.53
347.477
347.426
347.376
347.327
347.28
347.233
347.189
347.145
347.103
347.062
347.023
346.985
346.948
346.912
346.877
346.844
346.812
346.782
346.752
346.724
346.697
346.672
346.647
346.624
346.602
346.582
346.562
346.544
346.527
346.512
346.497
346.484
346.472
346.462
346.452
346.444
346.437
346.432
346.427
346.424
346.422
346.421
393.254
382.391
374.721
369.435
365.728
363.039
361.018
359.447
358.19
357.158
356.291
355.551
354.908
354.342
353.838
353.383
352.971
352.593
352.244
351.921
351.619
351.335
351.068
350.815
350.575
350.347
350.128
349.919
349.719
349.525
349.339
349.16
348.986
348.818
348.655
348.497
348.343
348.194
348.048
347.907
347.769
347.635
347.504
347.377
347.252
347.131
347.013
346.897
346.784
346.674
346.566
346.462
346.359
346.259
346.162
346.067
345.974
345.884
345.796
345.71
345.627
345.546
345.467
345.39
345.315
345.243
345.173
345.105
345.039
344.975
344.913
344.854
344.797
344.741
344.688
344.637
344.588
344.541
344.497
344.454
344.413
344.375
344.338
344.304
344.272
344.242
344.214
344.188
344.164
344.142
344.122
344.104
344.089
344.075
344.063
344.054
344.047
344.041
344.038
344.037
395.251
386.69
379.783
374.453
370.376
367.227
364.752
362.766
361.14
359.782
358.628
357.633
356.763
355.992
355.303
354.679
354.111
353.59
353.108
352.66
352.241
351.848
351.477
351.125
350.791
350.473
350.169
349.877
349.597
349.328
349.068
348.818
348.575
348.34
348.112
347.892
347.677
347.468
347.265
347.068
346.875
346.688
346.505
346.326
346.152
345.983
345.817
345.655
345.497
345.343
345.193
345.046
344.903
344.763
344.627
344.494
344.365
344.238
344.115
343.995
343.878
343.765
343.654
343.547
343.443
343.341
343.243
343.148
343.056
342.967
342.88
342.797
342.717
342.64
342.565
342.494
342.425
342.36
342.297
342.237
342.181
342.127
342.076
342.028
341.983
341.94
341.901
341.865
341.831
341.8
341.773
341.748
341.726
341.707
341.691
341.678
341.667
341.66
341.655
341.654
396.309
389.337
383.268
378.218
374.096
370.743
367.998
365.727
363.822
362.203
360.808
359.592
358.519
357.563
356.702
355.921
355.207
354.549
353.94
353.372
352.84
352.34
351.868
351.42
350.994
350.588
350.199
349.826
349.468
349.123
348.791
348.47
348.159
347.858
347.566
347.283
347.008
346.74
346.48
346.226
345.979
345.738
345.504
345.275
345.052
344.834
344.621
344.413
344.211
344.013
343.82
343.631
343.447
343.268
343.093
342.922
342.756
342.593
342.435
342.281
342.131
341.985
341.843
341.705
341.571
341.441
341.315
341.193
341.074
340.96
340.849
340.742
340.639
340.539
340.444
340.352
340.264
340.18
340.099
340.023
339.95
339.88
339.815
339.753
339.695
339.641
339.59
339.544
339.501
339.461
339.426
339.394
339.366
339.341
339.32
339.303
339.29
339.281
339.275
339.273
396.956
391.08
385.733
381.054
377.048
373.651
370.772
368.321
366.219
364.4
362.81
361.408
360.16
359.039
358.024
357.098
356.248
355.462
354.732
354.05
353.41
352.807
352.236
351.695
351.179
350.687
350.215
349.763
349.328
348.909
348.505
348.115
347.736
347.37
347.015
346.67
346.335
346.008
345.691
345.382
345.081
344.787
344.501
344.222
343.949
343.684
343.424
343.171
342.924
342.682
342.446
342.216
341.992
341.773
341.559
341.351
341.147
340.949
340.756
340.568
340.385
340.207
340.034
339.865
339.702
339.543
339.389
339.239
339.095
338.955
338.819
338.689
338.563
338.441
338.325
338.213
338.105
338.002
337.904
337.81
337.721
337.637
337.557
337.481
337.41
337.344
337.282
337.225
337.173
337.125
337.081
337.042
337.008
336.978
336.953
336.932
336.916
336.904
336.897
336.894
397.391
392.296
387.532
383.218
379.393
376.041
373.118
370.567
368.334
366.369
364.627
363.072
361.675
360.411
359.258
358.201
357.226
356.321
355.478
354.688
353.945
353.244
352.579
351.947
351.344
350.768
350.216
349.686
349.176
348.684
348.21
347.751
347.306
346.875
346.457
346.051
345.657
345.273
344.899
344.535
344.18
343.834
343.496
343.167
342.846
342.533
342.227
341.928
341.636
341.351
341.073
340.802
340.537
340.279
340.026
339.78
339.54
339.307
339.079
338.857
338.641
338.43
338.226
338.027
337.834
337.646
337.464
337.288
337.117
336.952
336.792
336.638
336.489
336.346
336.208
336.076
335.949
335.827
335.711
335.601
335.496
335.396
335.301
335.212
335.129
335.05
334.977
334.91
334.848
334.791
334.74
334.694
334.653
334.618
334.588
334.563
334.544
334.53
334.522
334.519
397.701
393.181
388.88
384.893
381.265
378.004
375.092
372.497
370.184
368.115
366.257
364.581
363.06
361.672
360.399
359.225
358.136
357.122
356.174
355.283
354.442
353.647
352.892
352.173
351.487
350.83
350.199
349.593
349.01
348.447
347.903
347.377
346.867
346.373
345.893
345.426
344.973
344.532
344.102
343.684
343.275
342.878
342.489
342.111
341.741
341.38
341.028
340.684
340.348
340.02
339.7
339.388
339.083
338.785
338.494
338.211
337.935
337.665
337.403
337.147
336.898
336.656
336.42
336.191
335.968
335.752
335.542
335.339
335.142
334.952
334.768
334.59
334.419
334.254
334.095
333.942
333.796
333.656
333.522
333.395
333.273
333.158
333.049
332.947
332.85
332.76
332.676
332.598
332.527
332.461
332.402
332.349
332.302
332.262
332.227
332.199
332.177
332.161
332.151
332.148
397.931
393.848
389.916
386.209
382.771
379.619
376.749
374.147
371.79
369.652
367.709
365.936
364.314
362.821
361.443
360.165
358.974
357.861
356.815
355.829
354.898
354.014
353.173
352.371
351.604
350.868
350.162
349.483
348.828
348.195
347.584
346.992
346.418
345.861
345.32
344.795
344.283
343.786
343.301
342.828
342.368
341.918
341.48
341.052
340.634
340.227
339.829
339.44
339.06
338.689
338.327
337.974
337.629
337.292
336.964
336.643
336.331
336.026
335.729
335.439
335.158
334.883
334.617
334.357
334.105
333.861
333.624
333.394
333.171
332.955
332.747
332.546
332.352
332.165
331.985
331.812
331.647
331.488
331.337
331.192
331.055
330.925
330.802
330.685
330.576
330.474
330.379
330.291
330.21
330.136
330.069
330.009
329.956
329.91
329.871
329.839
329.814
329.796
329.785
329.781
398.108
394.363
390.727
387.258
383.992
380.952
378.141
375.554
373.178
370.996
368.991
367.144
365.439
363.859
362.391
361.021
359.739
358.535
357.4
356.327
355.309
354.342
353.419
352.538
351.693
350.883
350.104
349.353
348.628
347.928
347.251
346.594
345.958
345.34
344.739
344.155
343.587
343.033
342.494
341.968
341.456
340.956
340.467
339.991
339.526
339.072
338.628
338.195
337.772
337.358
336.955
336.561
336.176
335.801
335.434
335.077
334.728
334.388
334.057
333.734
333.42
333.114
332.816
332.527
332.246
331.973
331.708
331.451
331.203
330.962
330.73
330.505
330.289
330.08
329.879
329.687
329.502
329.325
329.156
328.995
328.841
328.696
328.558
328.429
328.307
328.193
328.087
327.988
327.898
327.815
327.74
327.673
327.614
327.563
327.519
327.484
327.456
327.436
327.423
327.419
398.247
394.769
391.373
388.102
384.99
382.056
379.31
376.751
374.373
372.166
370.117
368.214
366.442
364.789
363.243
361.793
360.429
359.143
357.926
356.772
355.675
354.629
353.63
352.673
351.755
350.872
350.022
349.202
348.411
347.645
346.903
346.184
345.486
344.808
344.149
343.508
342.883
342.275
341.682
341.104
340.54
339.989
339.452
338.927
338.415
337.915
337.426
336.949
336.483
336.027
335.583
335.148
334.724
334.31
333.906
333.512
333.127
332.752
332.387
332.031
331.684
331.347
331.019
330.699
330.389
330.088
329.796
329.513
329.239
328.973
328.717
328.469
328.23
328
327.778
327.566
327.362
327.166
326.98
326.802
326.633
326.472
326.32
326.177
326.043
325.917
325.8
325.691
325.591
325.5
325.418
325.344
325.278
325.222
325.174
325.134
325.103
325.081
325.068
325.063
398.358
395.094
391.893
388.79
385.811
382.975
380.293
377.769
375.399
373.18
371.101
369.154
367.329
365.615
364.003
362.483
361.046
359.686
358.395
357.166
355.995
354.875
353.803
352.775
351.786
350.835
349.917
349.031
348.174
347.344
346.54
345.76
345.002
344.265
343.549
342.851
342.172
341.509
340.864
340.234
339.619
339.019
338.433
337.861
337.303
336.757
336.223
335.702
335.194
334.696
334.211
333.736
333.273
332.821
332.38
331.949
331.529
331.119
330.72
330.331
329.952
329.583
329.224
328.876
328.537
328.208
327.888
327.579
327.279
326.989
326.708
326.437
326.176
325.924
325.682
325.45
325.227
325.013
324.809
324.615
324.43
324.254
324.088
323.932
323.784
323.647
323.519
323.4
323.291
323.191
323.101
323.02
322.948
322.886
322.834
322.791
322.757
322.733
322.718
322.713
398.447
395.358
392.317
389.353
386.489
383.741
381.121
378.633
376.279
374.055
371.956
369.976
368.108
366.343
364.674
363.092
361.592
360.165
358.805
357.508
356.268
355.079
353.939
352.843
351.787
350.77
349.787
348.837
347.917
347.026
346.161
345.321
344.505
343.711
342.938
342.185
341.452
340.737
340.039
339.359
338.694
338.045
337.411
336.792
336.188
335.597
335.019
334.455
333.904
333.366
332.84
332.326
331.824
331.334
330.855
330.389
329.933
329.489
329.056
328.634
328.223
327.823
327.434
327.056
326.688
326.331
325.985
325.649
325.324
325.009
324.705
324.411
324.127
323.854
323.592
323.339
323.097
322.866
322.644
322.433
322.233
322.042
321.862
321.692
321.533
321.383
321.244
321.115
320.997
320.889
320.79
320.703
320.625
320.558
320.501
320.454
320.418
320.391
320.375
320.369
398.52
395.573
392.664
389.818
387.052
384.382
381.818
379.367
377.03
374.807
372.695
370.69
368.787
366.98
365.261
363.626
362.068
360.581
359.159
357.799
356.494
355.242
354.037
352.877
351.758
350.677
349.632
348.62
347.64
346.689
345.765
344.867
343.994
343.145
342.317
341.51
340.724
339.957
339.208
338.478
337.764
337.067
336.386
335.721
335.071
334.435
333.814
333.208
332.615
332.035
331.469
330.916
330.376
329.848
329.333
328.83
328.34
327.862
327.395
326.941
326.498
326.067
325.648
325.241
324.844
324.46
324.087
323.725
323.374
323.035
322.707
322.39
322.085
321.79
321.507
321.235
320.974
320.725
320.486
320.259
320.042
319.837
319.643
319.46
319.288
319.127
318.977
318.838
318.71
318.593
318.487
318.393
318.309
318.237
318.175
318.125
318.086
318.057
318.04
318.034
398.58
395.75
392.951
390.203
387.521
384.919
382.406
379.988
377.669
375.451
373.331
371.306
369.375
367.531
365.77
364.087
362.478
360.936
359.458
358.04
356.676
355.363
354.098
352.877
351.697
350.556
349.452
348.381
347.342
346.333
345.352
344.399
343.47
342.566
341.685
340.826
339.987
339.169
338.371
337.591
336.829
336.085
335.357
334.647
333.952
333.272
332.608
331.959
331.325
330.705
330.099
329.507
328.929
328.364
327.813
327.275
326.75
326.237
325.738
325.251
324.777
324.316
323.867
323.43
323.005
322.593
322.193
321.806
321.43
321.067
320.715
320.376
320.048
319.733
319.429
319.138
318.858
318.591
318.335
318.091
317.859
317.639
317.431
317.234
317.05
316.877
316.717
316.568
316.431
316.306
316.192
316.091
316.001
315.923
315.858
315.804
315.761
315.731
315.712
315.706
398.629
395.896
393.188
390.522
387.912
385.368
382.899
380.513
378.212
375.999
373.874
371.834
369.879
368.004
366.206
364.481
362.825
361.234
359.704
358.232
356.813
355.443
354.121
352.843
351.606
350.408
349.246
348.119
347.023
345.959
344.923
343.915
342.933
341.975
341.042
340.131
339.242
338.374
337.527
336.699
335.889
335.098
334.325
333.569
332.83
332.108
331.402
330.711
330.036
329.376
328.731
328.1
327.485
326.883
326.296
325.722
325.163
324.617
324.085
323.566
323.061
322.569
322.09
321.624
321.172
320.732
320.306
319.893
319.492
319.104
318.73
318.368
318.018
317.682
317.358
317.047
316.749
316.464
316.191
315.931
315.683
315.449
315.227
315.017
314.82
314.636
314.465
314.306
314.16
314.026
313.905
313.797
313.702
313.619
313.548
313.491
313.446
313.413
313.393
313.386
398.67
396.016
393.385
390.788
388.237
385.743
383.314
380.955
378.671
376.463
374.334
372.282
370.306
368.404
366.574
364.811
363.113
361.477
359.9
358.377
356.906
355.485
354.109
352.777
351.485
350.232
349.016
347.834
346.684
345.566
344.476
343.415
342.381
341.372
340.388
339.427
338.488
337.572
336.676
335.8
334.945
334.108
333.29
332.49
331.707
330.942
330.194
329.462
328.747
328.047
327.363
326.695
326.042
325.404
324.781
324.173
323.579
323
322.436
321.885
321.349
320.827
320.319
319.824
319.344
318.878
318.425
317.986
317.561
317.149
316.751
316.367
315.996
315.639
315.295
314.965
314.648
314.345
314.055
313.779
313.516
313.267
313.031
312.808
312.599
312.404
312.222
312.053
311.898
311.756
311.627
311.512
311.411
311.323
311.248
311.187
311.139
311.105
311.084
311.076
398.704
396.116
393.548
391.008
388.508
386.056
383.66
381.325
379.055
376.853
374.721
372.658
370.665
368.739
366.879
365.082
363.346
361.669
360.047
358.478
356.959
355.488
354.062
352.678
351.334
350.029
348.76
347.526
346.324
345.154
344.013
342.901
341.816
340.757
339.723
338.713
337.726
336.761
335.818
334.897
333.995
333.113
332.251
331.408
330.582
329.775
328.986
328.213
327.458
326.719
325.997
325.292
324.602
323.928
323.27
322.627
322
321.388
320.791
320.209
319.642
319.09
318.553
318.03
317.522
317.029
316.55
316.086
315.636
315.201
314.78
314.373
313.981
313.603
313.239
312.89
312.555
312.234
311.928
311.635
311.357
311.094
310.844
310.609
310.387
310.18
309.988
309.809
309.645
309.495
309.359
309.237
309.13
309.037
308.958
308.893
308.842
308.806
308.784
308.775
398.731
396.199
393.682
391.19
388.732
386.316
383.947
381.633
379.375
377.178
375.043
372.97
370.961
369.013
367.126
365.298
363.527
361.812
360.149
358.537
356.973
355.455
353.98
352.548
351.155
349.8
348.481
347.196
345.944
344.724
343.533
342.371
341.237
340.129
339.046
337.989
336.954
335.943
334.954
333.987
333.041
332.115
331.209
330.323
329.456
328.607
327.777
326.965
326.17
325.393
324.633
323.89
323.164
322.455
321.762
321.085
320.424
319.78
319.151
318.538
317.941
317.359
316.793
316.242
315.707
315.187
314.683
314.193
313.719
313.26
312.817
312.388
311.974
311.576
311.193
310.824
310.471
310.133
309.809
309.501
309.208
308.93
308.667
308.418
308.185
307.967
307.764
307.575
307.402
307.244
307.101
306.972
306.859
306.761
306.677
306.609
306.555
306.517
306.494
306.485
398.754
396.267
393.793
391.34
388.917
386.53
384.184
381.886
379.638
377.445
375.306
373.225
371.2
369.232
367.32
365.464
363.661
361.909
360.208
358.555
356.949
355.387
353.867
352.388
350.948
349.545
348.178
346.845
345.545
344.276
343.037
341.827
340.645
339.489
338.36
337.255
336.175
335.118
334.084
333.072
332.082
331.113
330.164
329.236
328.327
327.438
326.568
325.716
324.883
324.068
323.271
322.492
321.73
320.985
320.258
319.547
318.853
318.177
317.516
316.873
316.245
315.634
315.04
314.461
313.899
313.353
312.822
312.308
311.81
311.328
310.861
310.411
309.976
309.557
309.154
308.767
308.396
308.04
307.701
307.377
307.068
306.776
306.499
306.238
305.993
305.764
305.55
305.352
305.17
305.003
304.853
304.718
304.599
304.495
304.408
304.336
304.28
304.239
304.215
304.206
398.773
396.322
393.883
391.462
389.067
386.704
384.377
382.092
379.852
377.66
375.518
373.427
371.388
369.401
367.466
365.583
363.749
361.964
360.227
358.536
356.889
355.285
353.723
352.2
350.715
349.266
347.853
346.473
345.126
343.811
342.525
341.268
340.04
338.838
337.663
336.513
335.387
334.286
333.208
332.152
331.119
330.107
329.117
328.147
327.198
326.269
325.359
324.468
323.597
322.745
321.911
321.095
320.298
319.519
318.757
318.014
317.287
316.579
315.887
315.213
314.556
313.916
313.293
312.687
312.098
311.526
310.97
310.431
309.909
309.404
308.915
308.443
307.987
307.548
307.126
306.72
306.331
305.958
305.602
305.262
304.939
304.632
304.342
304.069
303.812
303.571
303.347
303.139
302.948
302.774
302.616
302.475
302.35
302.241
302.149
302.074
302.015
301.973
301.947
301.937
398.788
396.367
393.956
391.561
389.189
386.844
384.532
382.257
380.022
377.829
375.683
373.582
371.53
369.525
367.568
365.659
363.796
361.98
360.209
358.482
356.797
355.153
353.549
351.984
350.456
348.964
347.506
346.082
344.689
343.328
341.997
340.696
339.422
338.175
336.955
335.761
334.592
333.447
332.325
331.227
330.152
329.099
328.067
327.057
326.067
325.099
324.15
323.222
322.313
321.424
320.553
319.702
318.87
318.057
317.262
316.485
315.727
314.986
314.264
313.56
312.873
312.205
311.554
310.921
310.305
309.707
309.126
308.563
308.017
307.489
306.978
306.484
306.008
305.549
305.107
304.683
304.276
303.886
303.514
303.158
302.821
302.5
302.196
301.91
301.641
301.39
301.156
300.939
300.739
300.556
300.391
300.243
300.112
299.999
299.903
299.824
299.763
299.718
299.691
299.681
398.8
396.402
394.013
391.639
389.284
386.954
384.653
382.385
380.152
377.959
375.806
373.696
371.629
369.607
367.629
365.695
363.806
361.959
360.156
358.394
356.673
354.991
353.348
351.742
350.173
348.638
347.138
345.671
344.235
342.83
341.455
340.11
338.792
337.502
336.238
335.001
333.789
332.601
331.438
330.298
329.181
328.087
327.015
325.965
324.936
323.929
322.942
321.976
321.03
320.105
319.199
318.313
317.446
316.599
315.771
314.961
314.171
313.4
312.647
311.913
311.198
310.501
309.822
309.162
308.52
307.896
307.291
306.703
306.134
305.583
305.05
304.535
304.039
303.56
303.099
302.657
302.232
301.825
301.437
301.066
300.713
300.379
300.062
299.764
299.483
299.221
298.976
298.75
298.541
298.351
298.178
298.024
297.888
297.769
297.669
297.587
297.522
297.476
297.448
297.438
398.809
396.429
394.058
391.699
389.357
387.038
384.744
382.48
380.249
378.052
375.893
373.772
371.692
369.652
367.653
365.696
363.78
361.905
360.07
358.275
356.519
354.802
353.121
351.476
349.867
348.292
346.751
345.241
343.764
342.317
340.899
339.511
338.151
336.818
335.512
334.233
332.978
331.749
330.545
329.364
328.206
327.072
325.961
324.872
323.804
322.759
321.735
320.732
319.75
318.788
317.847
316.927
316.026
315.145
314.285
313.443
312.622
311.82
311.037
310.274
309.53
308.805
308.099
307.412
306.744
306.095
305.465
304.854
304.261
303.688
303.133
302.597
302.08
301.582
301.102
300.641
300.199
299.776
299.371
298.985
298.618
298.27
297.94
297.629
297.337
297.064
296.809
296.573
296.356
296.158
295.978
295.818
295.676
295.552
295.448
295.362
295.295
295.247
295.218
295.207
398.816
396.45
394.091
391.743
389.411
387.099
384.81
382.548
380.314
378.113
375.946
373.814
371.719
369.662
367.644
365.664
363.722
361.819
359.955
358.128
356.339
354.586
352.869
351.187
349.54
347.926
346.344
344.795
343.277
341.788
340.33
338.9
337.499
336.125
334.778
333.457
332.162
330.892
329.647
328.426
327.229
326.056
324.905
323.778
322.673
321.59
320.529
319.489
318.472
317.475
316.499
315.545
314.611
313.697
312.804
311.931
311.079
310.246
309.434
308.642
307.869
307.116
306.383
305.67
304.977
304.303
303.648
303.013
302.398
301.802
301.226
300.669
300.132
299.615
299.116
298.637
298.178
297.738
297.318
296.917
296.535
296.173
295.831
295.508
295.204
294.92
294.655
294.41
294.185
293.979
293.792
293.625
293.477
293.349
293.241
293.152
293.082
293.032
293.002
292.99
398.821
396.464
394.114
391.774
389.448
387.14
384.853
382.59
380.353
378.146
375.97
373.826
371.717
369.642
367.604
365.601
363.635
361.705
359.812
357.955
356.133
354.347
352.595
350.877
349.192
347.541
345.921
344.332
342.774
341.247
339.748
338.278
336.836
335.422
334.035
332.674
331.339
330.029
328.745
327.485
326.249
325.037
323.849
322.683
321.541
320.422
319.324
318.249
317.196
316.165
315.155
314.167
313.2
312.254
311.329
310.426
309.542
308.68
307.839
307.017
306.217
305.437
304.677
303.938
303.219
302.52
301.842
301.184
300.546
299.928
299.331
298.753
298.196
297.659
297.142
296.646
296.169
295.713
295.277
294.861
294.465
294.09
293.734
293.399
293.084
292.79
292.515
292.261
292.027
291.813
291.619
291.446
291.293
291.16
291.047
290.955
290.883
290.831
290.799
290.788
398.824
396.473
394.128
391.793
389.47
387.163
384.875
382.609
380.368
378.153
375.967
373.811
371.686
369.594
367.535
365.511
363.521
361.565
359.643
357.756
355.904
354.085
352.299
350.546
348.826
347.138
345.481
343.854
342.258
340.692
339.154
337.645
336.164
334.711
333.284
331.884
330.51
329.162
327.838
326.54
325.266
324.017
322.791
321.589
320.41
319.255
318.122
317.012
315.924
314.859
313.815
312.794
311.795
310.817
309.861
308.926
308.013
307.121
306.251
305.401
304.573
303.766
302.98
302.215
301.471
300.748
300.046
299.365
298.704
298.065
297.446
296.849
296.272
295.716
295.181
294.667
294.173
293.701
293.249
292.819
292.409
292.02
291.652
291.305
290.979
290.673
290.389
290.126
289.883
289.662
289.461
289.282
289.123
288.985
288.869
288.773
288.698
288.645
288.612
288.6
398.825
396.478
394.135
391.801
389.478
387.17
384.879
382.609
380.361
378.137
375.94
373.77
371.63
369.521
367.442
365.396
363.382
361.4
359.451
357.536
355.652
353.802
351.984
350.197
348.442
346.718
345.025
343.362
341.729
340.125
338.549
337.002
335.483
333.991
332.527
331.088
329.676
328.29
326.929
325.593
324.282
322.996
321.733
320.495
319.281
318.09
316.922
315.777
314.655
313.557
312.48
311.427
310.395
309.386
308.399
307.434
306.491
305.57
304.671
303.794
302.939
302.105
301.293
300.503
299.734
298.987
298.261
297.557
296.875
296.214
295.574
294.956
294.36
293.786
293.232
292.701
292.191
291.702
291.235
290.79
290.366
289.964
289.584
289.225
288.887
288.572
288.278
288.005
287.755
287.526
287.318
287.132
286.968
286.826
286.706
286.607
286.529
286.474
286.44
286.428
398.826
396.478
394.135
391.799
389.475
387.163
384.868
382.591
380.334
378.101
375.891
373.708
371.552
369.424
367.326
365.258
363.22
361.213
359.238
357.294
355.381
353.5
351.65
349.83
348.042
346.284
344.555
342.857
341.187
339.546
337.934
336.35
334.794
333.265
331.763
330.287
328.838
327.414
326.017
324.644
323.297
321.974
320.676
319.402
318.152
316.927
315.725
314.546
313.391
312.259
311.15
310.064
309.002
307.962
306.944
305.95
304.977
304.028
303.101
302.196
301.314
300.454
299.616
298.8
298.007
297.236
296.487
295.761
295.057
294.375
293.715
293.077
292.462
291.868
291.297
290.748
290.222
289.718
289.235
288.776
288.338
287.923
287.53
287.159
286.811
286.485
286.182
285.9
285.641
285.405
285.191
284.999
284.829
284.683
284.558
284.456
284.376
284.319
284.284
284.271
398.824
396.474
394.129
391.79
389.461
387.144
384.842
382.557
380.291
378.046
375.824
373.626
371.453
369.307
367.189
365.099
363.038
361.007
359.005
357.033
355.092
353.18
351.299
349.448
347.627
345.835
344.072
342.339
340.634
338.958
337.31
335.69
334.097
332.532
330.993
329.481
327.995
326.536
325.102
323.693
322.31
320.952
319.619
318.31
317.026
315.766
314.53
313.319
312.131
310.966
309.826
308.708
307.615
306.544
305.497
304.473
303.472
302.494
301.539
300.607
299.698
298.812
297.949
297.109
296.292
295.497
294.726
293.977
293.251
292.548
291.868
291.211
290.576
289.965
289.376
288.81
288.267
287.747
287.25
286.776
286.325
285.897
285.492
285.109
284.75
284.414
284.101
283.811
283.544
283.3
283.079
282.881
282.707
282.555
282.427
282.321
282.239
282.18
282.144
282.131
398.822
396.467
394.117
391.773
389.438
387.114
384.803
382.509
380.232
377.975
375.739
373.525
371.336
369.171
367.033
364.921
362.837
360.781
358.754
356.755
354.785
352.845
350.933
349.051
347.197
345.373
343.577
341.81
340.071
338.36
336.677
335.022
333.394
331.793
330.218
328.671
327.15
325.654
324.185
322.742
321.324
319.931
318.563
317.22
315.902
314.609
313.34
312.095
310.875
309.679
308.507
307.359
306.234
305.134
304.057
303.004
301.975
300.969
299.987
299.029
298.094
297.182
296.294
295.429
294.588
293.771
292.977
292.206
291.459
290.735
290.035
289.358
288.705
288.075
287.469
286.886
286.327
285.792
285.28
284.792
284.327
283.886
283.469
283.076
282.706
282.359
282.037
281.738
281.463
281.212
280.984
280.781
280.601
280.445
280.312
280.204
280.119
280.058
280.021
280.007
398.819
396.458
394.101
391.749
389.406
387.074
384.754
382.448
380.16
377.889
375.638
373.409
371.202
369.019
366.86
364.727
362.62
360.54
358.487
356.461
354.464
352.494
350.553
348.64
346.756
344.899
343.071
341.271
339.498
337.754
336.036
334.347
332.684
331.048
329.439
327.857
326.301
324.771
323.267
321.789
320.337
318.91
317.509
316.132
314.781
313.455
312.153
310.877
309.625
308.397
307.194
306.016
304.862
303.732
302.626
301.545
300.487
299.454
298.445
297.46
296.5
295.563
294.65
293.762
292.897
292.057
291.24
290.448
289.68
288.936
288.216
287.52
286.848
286.2
285.577
284.978
284.403
283.852
283.326
282.824
282.346
281.892
281.463
281.058
280.677
280.321
279.989
279.682
279.399
279.141
278.907
278.697
278.512
278.351
278.215
278.104
278.016
277.954
277.915
277.901
398.815
396.446
394.08
391.72
389.367
387.025
384.694
382.377
380.075
377.79
375.524
373.278
371.053
368.851
366.672
364.517
362.387
360.283
358.204
356.153
354.128
352.131
350.16
348.218
346.303
344.415
342.555
340.722
338.917
337.14
335.389
333.666
331.969
330.3
328.657
327.04
325.45
323.886
322.349
320.837
319.351
317.891
316.456
315.047
313.663
312.305
310.972
309.663
308.38
307.122
305.889
304.68
303.497
302.338
301.204
300.094
299.009
297.949
296.914
295.903
294.917
293.955
293.018
292.106
291.218
290.355
289.517
288.703
287.914
287.15
286.411
285.696
285.006
284.341
283.7
283.085
282.494
281.928
281.387
280.871
280.38
279.914
279.473
279.057
278.666
278.3
277.959
277.644
277.353
277.087
276.847
276.631
276.441
276.276
276.136
276.021
275.932
275.867
275.828
275.814
398.81
396.431
394.056
391.685
389.322
386.968
384.625
382.295
379.979
377.679
375.397
373.134
370.891
368.669
366.469
364.293
362.14
360.012
357.909
355.831
353.78
351.755
349.756
347.784
345.839
343.921
342.03
340.166
338.329
336.519
334.736
332.979
331.25
329.547
327.871
326.221
324.598
323.001
321.43
319.885
318.367
316.874
315.407
313.965
312.55
311.159
309.795
308.456
307.142
305.853
304.59
303.352
302.14
300.952
299.79
298.653
297.541
296.455
295.393
294.357
293.346
292.36
291.399
290.463
289.553
288.668
287.808
286.973
286.164
285.379
284.621
283.887
283.179
282.497
281.84
281.208
280.602
280.021
279.466
278.936
278.432
277.954
277.501
277.074
276.673
276.297
275.947
275.623
275.324
275.052
274.805
274.584
274.388
274.219
274.075
273.957
273.865
273.799
273.759
273.744
398.805
396.415
394.028
391.646
389.271
386.904
384.548
382.204
379.873
377.558
375.259
372.978
370.717
368.475
366.255
364.056
361.881
359.729
357.601
355.498
353.42
351.368
349.341
347.341
345.366
343.418
341.497
339.602
337.733
335.892
334.077
332.288
330.527
328.791
327.083
325.401
323.745
322.115
320.512
318.935
317.384
315.859
314.36
312.887
311.44
310.019
308.623
307.254
305.91
304.592
303.3
302.033
300.792
299.576
298.387
297.222
296.084
294.971
293.884
292.822
291.787
290.777
289.792
288.834
287.901
286.994
286.112
285.257
284.427
283.624
282.846
282.094
281.368
280.669
279.995
279.347
278.726
278.131
277.561
277.018
276.502
276.011
275.547
275.109
274.697
274.312
273.953
273.621
273.315
273.035
272.782
272.555
272.355
272.181
272.033
271.913
271.818
271.751
271.709
271.694
398.799
396.397
393.998
391.603
389.215
386.835
384.464
382.105
379.759
377.428
375.112
372.813
370.532
368.27
366.029
363.809
361.611
359.435
357.283
355.155
353.051
350.971
348.917
346.888
344.885
342.908
340.956
339.031
337.132
335.26
333.414
331.594
329.8
328.034
326.293
324.579
322.891
321.23
319.595
317.986
316.403
314.847
313.317
311.813
310.335
308.884
307.458
306.059
304.685
303.338
302.017
300.722
299.453
298.21
296.993
295.802
294.637
293.499
292.387
291.3
290.24
289.206
288.199
287.218
286.263
285.334
284.432
283.556
282.706
281.884
281.087
280.317
279.574
278.857
278.167
277.504
276.867
276.257
275.674
275.118
274.589
274.086
273.611
273.162
272.74
272.346
271.978
271.637
271.324
271.037
270.778
270.545
270.34
270.162
270.011
269.887
269.791
269.721
269.679
269.663
398.792
396.377
393.964
391.556
389.154
386.759
384.374
382
379.637
377.289
374.955
372.638
370.337
368.056
365.793
363.552
361.331
359.132
356.955
354.802
352.672
350.566
348.485
346.428
344.397
342.391
340.41
338.455
336.527
334.624
332.747
330.896
329.072
327.274
325.502
323.757
322.038
320.345
318.679
317.039
315.426
313.839
312.278
310.744
309.236
307.754
306.299
304.87
303.468
302.092
300.743
299.42
298.123
296.853
295.61
294.393
293.202
292.039
290.901
289.791
288.707
287.65
286.619
285.616
284.639
283.689
282.766
281.87
281.001
280.159
279.345
278.557
277.796
277.063
276.357
275.678
275.026
274.402
273.806
273.236
272.695
272.18
271.693
271.234
270.803
270.399
270.022
269.673
269.352
269.059
268.793
268.556
268.346
268.163
268.009
267.882
267.783
267.712
267.669
267.653
398.785
396.356
393.929
391.506
389.089
386.679
384.278
381.888
379.508
377.142
374.791
372.454
370.135
367.833