/*--------------------------------*- C++ -*----------------------------------*\
  =========                 |
  \\      /  F ield         | OpenFOAM: The Open Source CFD Toolbox
   \\    /   O peration     | Website:  https://openfoam.org
    \\  /    A nd           | Version:  10
     \\/     M anipulation  |
\*---------------------------------------------------------------------------*/
FoamFile
{
    format      ascii;
    class       volScalarField;
    location    "3";
    object      ddt0(T);
}
// * * * * * * * * * * * * * * * * * * * * * * * * * * * * * * * * * * * * * //

dimensions      [0 0 -2 0 0 0 0];

internalField   nonuniform List<scalar> 
100
(
-1.02032
-3.05148
-5.05556
-7.01477
-8.91172
-10.7296
-12.4522
-14.0643
-15.5516
-16.9009
-18.1001
-19.1387
-20.0074
-20.6986
-21.206
-21.5251
-21.6533
-21.5892
-21.3335
-20.8884
-20.258
-19.4477
-18.4648
-17.318
-16.0175
-14.5748
-13.0027
-11.3152
-9.52733
-7.65485
-5.71444
-3.7233
-1.69911
0.340161
2.37641
4.39157
6.36775
8.28741
10.1335
11.8897
13.5403
15.0707
16.4674
17.7179
18.8111
19.7374
20.4885
21.0577
21.44
21.632
21.632
21.44
21.0577
20.4885
19.7374
18.8111
17.7179
16.4674
15.0707
13.5403
11.8897
10.1335
8.2874
6.36774
4.39155
2.37639
0.34014
-1.69913
-3.72332
-5.71446
-7.65488
-9.52735
-11.3153
-13.0027
-14.5748
-16.0175
-17.318
-18.4648
-19.4477
-20.258
-20.8884
-21.3335
-21.5892
-21.6533
-21.5251
-21.2059
-20.6985
-20.0074
-19.1387
-18.1001
-16.9008
-15.5516
-14.0643
-12.4522
-10.7295
-8.91169
-7.01474
-5.05554
-3.05147
-1.02031
)
;

boundaryField
{
    xmin
    {
        type            calculated;
        value           uniform 0;
    }
    xmax
    {
        type            calculated;
        value           uniform 0;
    }
    frontAndBack
    {
        type            empty;
    }
}


// ************************************************************************* //
