/*--------------------------------*- C++ -*----------------------------------*\
  =========                 |
  \\      /  F ield         | OpenFOAM: The Open Source CFD Toolbox
   \\    /   O peration     | Website:  https://openfoam.org
    \\  /    A nd           | Version:  10
     \\/     M anipulation  |
\*---------------------------------------------------------------------------*/
FoamFile
{
    format      ascii;
    class       volScalarField;
    location    "3";
    object      T_0;
}
// * * * * * * * * * * * * * * * * * * * * * * * * * * * * * * * * * * * * * //

dimensions      [0 0 -1 0 0 0 0];

internalField   nonuniform List<scalar> 
100
(
10.5948
31.6861
52.4961
72.8401
92.5376
111.414
129.301
146.041
161.484
175.494
187.946
198.731
207.751
214.927
220.196
223.51
224.84
224.174
221.519
216.898
210.351
201.937
191.731
179.823
166.319
151.339
135.015
117.493
98.9279
79.4849
59.3364
38.6611
17.6428
-3.5322
-24.6758
-45.6004
-66.1203
-86.0532
-105.222
-123.458
-140.597
-156.488
-170.991
-183.975
-195.327
-204.945
-212.744
-218.655
-222.624
-224.618
-224.618
-222.624
-218.654
-212.744
-204.945
-195.327
-183.975
-170.991
-156.488
-140.597
-123.457
-105.222
-86.053
-66.1201
-45.6002
-24.6756
-3.53198
17.643
38.6614
59.3366
79.4851
98.9281
117.493
135.015
151.339
166.319
179.823
191.731
201.937
210.351
216.898
221.519
224.174
224.84
223.51
220.196
214.927
207.751
198.731
187.946
175.494
161.484
146.041
129.301
111.414
92.5376
72.84
52.496
31.686
10.5948
)
;

boundaryField
{
    xmin
    {
        type            fixedValue;
        value           uniform 0;
    }
    xmax
    {
        type            fixedValue;
        value           uniform 0;
    }
    frontAndBack
    {
        type            empty;
    }
}


// ************************************************************************* //
