/*--------------------------------*- C++ -*----------------------------------*\
  =========                 |
  \\      /  F ield         | OpenFOAM: The Open Source CFD Toolbox
   \\    /   O peration     | Website:  https://openfoam.org
    \\  /    A nd           | Version:  10
     \\/     M anipulation  |
\*---------------------------------------------------------------------------*/
FoamFile
{
    format      ascii;
    class       volScalarField;
    location    "8.5";
    object      T_0;
}
// * * * * * * * * * * * * * * * * * * * * * * * * * * * * * * * * * * * * * //

dimensions      [0 0 -1 0 0 0 0];

internalField   nonuniform List<scalar> 
100
(
0.0336346
0.0997116
0.162256
0.219053
0.268089
0.307629
0.33627
0.352999
0.357223
0.348792
0.328005
0.295598
0.252719
0.200888
0.14194
0.0779638
0.0112257
-0.0559101
-0.121065
-0.181932
-0.236353
-0.282401
-0.318445
-0.343208
-0.355813
-0.355813
-0.343208
-0.318445
-0.282401
-0.236352
-0.181931
-0.121064
-0.0559092
0.0112266
0.0779646
0.141941
0.200889
0.25272
0.295598
0.328005
0.348792
0.357223
0.352999
0.33627
0.307628
0.268089
0.219052
0.162256
0.0997109
0.0336339
-0.0336346
-0.0997115
-0.162256
-0.219053
-0.268089
-0.307629
-0.33627
-0.352999
-0.357223
-0.348792
-0.328005
-0.295598
-0.252719
-0.200888
-0.14194
-0.0779639
-0.0112258
0.0559099
0.121065
0.181931
0.236353
0.282401
0.318445
0.343208
0.355813
0.355813
0.343208
0.318445
0.282401
0.236352
0.181931
0.121065
0.0559094
-0.0112264
-0.0779645
-0.141941
-0.200888
-0.25272
-0.295598
-0.328005
-0.348792
-0.357223
-0.352999
-0.33627
-0.307628
-0.268089
-0.219052
-0.162256
-0.0997109
-0.0336339
)
;

boundaryField
{
    inlet
    {
        type            cyclic;
    }
    outlet
    {
        type            cyclic;
    }
    bottom
    {
        type            slip;
    }
    top
    {
        type            slip;
    }
    frontAndBack
    {
        type            empty;
    }
}


// ************************************************************************* //
