# Field minima and maxima
# Time          	field           	min             	location(min)   	max             	location(max)   
0.05            	U               	(1.95381440e-02 -3.59698761e-03 -7.68098670e-03)	(1.04166667e-01 -3.62918349e-01 3.39638896e-01)	(2.91141127e-01 2.44037931e-03 5.01670801e-02)	(1.04161933e-01 1.47134430e-02 -4.34581538e-01)
0.05            	p               	0.00000000e+00	(5.00000000e+00 -3.39638897e-01 3.62918348e-01)	4.26629323e+01	(1.04161576e-01 1.62469914e-02 4.95582873e-01)
0.1             	U               	(5.18955639e-02 -6.87112370e-03 -1.42206709e-02)	(1.04166667e-01 -3.39638897e-01 3.62918348e-01)	(6.55651096e-01 5.47321205e-02 1.05429678e-01)	(1.04166668e-01 1.24795253e-01 -3.91870719e-01)
0.1             	p               	0.00000000e+00	(5.00000000e+00 -3.39638897e-01 3.62918348e-01)	4.00352142e+01	(1.04161576e-01 -1.62469780e-02 4.95582873e-01)
0.15            	U               	(6.86503605e-02 -7.91189387e-03 -2.03582130e-02)	(1.04166667e-01 -3.84028414e-01 3.15135882e-01)	(1.03535015e+00 5.44502297e-02 1.61345641e-01)	(1.04166668e-01 9.75474134e-02 -3.98140263e-01)
0.15            	p               	0.00000000e+00	(5.00000000e+00 -3.39638897e-01 3.62918348e-01)	3.70031041e+01	(1.04161576e-01 -1.62469778e-02 -4.95582873e-01)
0.2             	U               	(8.04141053e-02 -7.86456299e-03 -2.30237845e-02)	(1.04166667e-01 -3.84028414e-01 3.15135882e-01)	(1.40918019e+00 8.45426038e-03 2.09154197e-01)	(1.04162120e-01 1.40398328e-02 -4.07786745e-01)
0.2             	p               	0.00000000e+00	(5.00000000e+00 -3.39638897e-01 3.62918348e-01)	3.10159656e+01	(1.04161576e-01 -1.62469778e-02 -4.95582873e-01)
0.25            	U               	(9.06661627e-02 -7.18734355e-03 -2.29016679e-02)	(1.04166667e-01 -3.39638897e-01 3.62918348e-01)	(1.67565033e+00 7.73718871e-03 2.48134145e-01)	(1.04162120e-01 1.40398328e-02 -4.07786745e-01)
0.25            	p               	0.00000000e+00	(5.00000000e+00 -3.39638897e-01 3.62918348e-01)	2.30831789e+01	(1.04161576e-01 -1.62469778e-02 -4.95582873e-01)
0.3             	U               	(9.18991691e-02 -6.03160342e-03 -2.28012290e-02)	(1.04166667e-01 -3.39638897e-01 3.62918348e-01)	(1.83376889e+00 6.26727894e-03 2.72730533e-01)	(1.04162120e-01 1.40398328e-02 -4.07786745e-01)
0.3             	p               	0.00000000e+00	(5.00000000e+00 -3.39638897e-01 3.62918348e-01)	1.35619031e+01	(1.04161576e-01 1.62469915e-02 -4.95582873e-01)
0.35            	U               	(8.64634012e-02 -4.42501866e-03 -2.12182293e-02)	(1.04166667e-01 -3.39638897e-01 3.62918348e-01)	(1.85827575e+00 1.32689727e-02 2.82461937e-01)	(1.04162856e-01 4.20706695e-02 -4.06147494e-01)
0.35            	p               	0.00000000e+00	(5.00000000e+00 -3.39638897e-01 3.62918348e-01)	3.13138728e+00	(1.04161576e-01 1.62469915e-02 -4.95582873e-01)
0.4             	U               	(7.47831533e-02 -2.46836975e-03 -1.82545489e-02)	(1.04166667e-01 -3.39638897e-01 3.62918348e-01)	(1.77017225e+00 6.77539168e-03 2.77660788e-01)	(1.04162856e-01 4.20706695e-02 -4.06147494e-01)
0.4             	p               	-8.32910365e+00	(1.04166667e-01 1.27353431e-02 -1.27353432e-02)	0.00000000e+00	(5.00000000e+00 -3.39638897e-01 3.62918348e-01)
0.45            	U               	(5.76302409e-02 -1.81681428e-04 -1.40087931e-02)	(1.04166667e-01 -3.39638897e-01 3.62918348e-01)	(1.63445984e+00 4.83594316e-03 1.97541734e-01)	(1.04166667e-01 1.26005720e-01 -2.96579349e-01)
0.45            	p               	-1.84226080e+01	(1.04166667e-01 1.27353431e-02 -1.27353432e-02)	0.00000000e+00	(5.00000000e+00 -3.39638897e-01 3.62918348e-01)
0.5             	U               	(2.94717579e-02 -4.43571984e-03 -9.58108606e-03)	(1.04166668e-01 4.74022502e-01 1.11172820e-01)	(9.76161942e-01 4.09759571e-02 1.69663841e-01)	(1.04166667e-01 -2.70968010e-01 -2.85363708e-01)
0.5             	p               	-2.73927739e+01	(1.04166667e-01 1.27353431e-02 -1.27353432e-02)	0.00000000e+00	(5.00000000e+00 -3.39638897e-01 3.62918348e-01)
0.55            	U               	(-5.57248733e-02 -1.06070637e-02 -5.15528908e-03)	(3.12500000e-01 3.29669482e-01 -3.51659222e-01)	(8.20826971e-01 8.94541214e-02 1.25016517e-01)	(1.04166667e-01 -2.34665011e-01 -2.71783183e-01)
0.55            	p               	-3.46967276e+01	(1.04166667e-01 -1.15875681e-02 2.11120465e-01)	0.00000000e+00	(5.00000000e+00 -3.39638897e-01 3.62918348e-01)
0.6             	U               	(-1.60483991e-01 -2.34397955e-02 -1.51620299e-02)	(3.12500000e-01 2.38897378e-01 3.74860003e-01)	(4.96956684e-01 1.48189879e-01 8.01364798e-02)	(1.04166667e-01 -2.28166018e-01 -2.51045719e-01)
0.6             	p               	-3.99632886e+01	(1.04161576e-01 1.62469914e-02 4.95582873e-01)	0.00000000e+00	(5.00000000e+00 -3.39638897e-01 3.62918348e-01)
0.65            	U               	(-5.01489610e-01 -2.24251879e-02 -1.69209566e-02)	(3.12500000e-01 1.58726448e-01 4.08640608e-01)	(1.36551815e-01 2.17042932e-01 2.39011354e-02)	(1.04166667e-01 -2.29581537e-01 -2.29581537e-01)
0.65            	p               	-4.28494876e+01	(1.04161576e-01 1.62469914e-02 4.95582873e-01)	0.00000000e+00	(5.00000000e+00 -3.39638897e-01 3.62918348e-01)
0.7             	U               	(-9.42697451e-01 -1.96305777e-02 -8.03687626e-03)	(3.12500000e-01 3.48575906e-01 1.68399695e-01)	(-5.32440764e-02 9.89045933e-03 1.45666942e-02)	(1.04166667e-01 -3.39638897e-01 3.62918348e-01)
0.7             	p               	-4.30470575e+01	(1.04161576e-01 1.62469915e-02 -4.95582873e-01)	0.00000000e+00	(5.00000000e+00 -3.39638897e-01 3.62918348e-01)
0.75            	U               	(-1.24542178e+00 -1.39775558e-02 -8.82244049e-03)	(3.12500000e-01 3.26297377e-01 1.34683077e-01)	(-6.83203635e-02 1.11157454e-02 1.96199588e-02)	(1.04166667e-01 -3.39638897e-01 3.62918348e-01)
0.75            	p               	-4.05587535e+01	(1.04161576e-01 1.62469914e-02 4.95582873e-01)	0.00000000e+00	(5.00000000e+00 -3.39638897e-01 3.62918348e-01)
0.8             	U               	(-1.56861872e+00 -3.65471666e-03 -6.97207821e-03)	(3.12500000e-01 3.26297377e-01 1.34683077e-01)	(-7.80927626e-02 1.23244664e-02 2.40808888e-02)	(1.04166667e-01 -3.39638897e-01 3.62918348e-01)
0.8             	p               	-3.56158607e+01	(1.04161576e-01 -1.62469778e-02 -4.95582873e-01)	0.00000000e+00	(5.00000000e+00 -3.39638897e-01 3.62918348e-01)
0.85            	U               	(-1.81015744e+00 -2.26439524e-02 -1.01761231e-02)	(3.12500000e-01 -2.56145742e-01 2.68623925e-01)	(-8.11746162e-02 1.43232031e-02 3.26577829e-02)	(1.04166667e-01 -1.74946326e-01 4.64190110e-01)
0.85            	p               	-2.83720564e+01	(1.04161576e-01 1.62469914e-02 4.95582873e-01)	0.00000000e+00	(5.00000000e+00 -3.39638897e-01 3.62918348e-01)
0.9             	U               	(-1.94604800e+00 -4.28309944e-02 -1.77726717e-02)	(3.12500000e-01 -2.56145742e-01 2.68623925e-01)	(-8.20492061e-02 1.77781548e-02 3.54900601e-02)	(1.04166667e-01 -2.62270845e-01 4.21434988e-01)
0.9             	p               	-1.93422570e+01	(1.04166669e-01 -1.44164695e-01 -4.74562071e-01)	0.00000000e+00	(5.00000000e+00 -3.39638897e-01 3.62918348e-01)
0.95            	U               	(-1.96800945e+00 -3.61698267e-01 -3.37930563e-01)	(1.04166667e-01 2.04249521e-01 -3.05819224e-01)	(-6.91057849e-02 1.78882558e-02 3.64124293e-02)	(1.04166667e-01 -2.62270845e-01 4.21434988e-01)
0.95            	p               	-9.12421071e+00	(1.04166667e-01 -2.34124560e-01 -4.37566951e-01)	0.00000000e+00	(5.00000000e+00 -3.39638897e-01 3.62918348e-01)
1               	U               	(-1.91861246e+00 -3.14617031e-01 -3.64911483e-01)	(1.04166667e-01 1.58250731e-01 -3.19924728e-01)	(-1.04028455e-02 2.96790468e-02 1.17538284e-01)	(1.04166668e-01 -1.11172818e-01 4.74022503e-01)
1               	p               	0.00000000e+00	(5.00000000e+00 -3.39638897e-01 3.62918348e-01)	2.02793077e+00	(1.04162120e-01 4.07786746e-01 -1.40398252e-02)
1.05            	U               	(-1.69992294e+00 -2.23361983e-01 -4.01889195e-01)	(1.04166667e-01 1.43426801e-01 -3.56242701e-01)	(5.13791968e-02 3.31874532e-02 2.06494040e-01)	(1.04166666e-01 -7.81573312e-02 4.67644855e-01)
1.05            	p               	0.00000000e+00	(5.00000000e+00 -3.39638897e-01 3.62918348e-01)	1.25552545e+01	(1.04161576e-01 1.62469914e-02 4.95582873e-01)
1.1             	U               	(-1.40468431e+00 -1.67587453e-01 -3.99742331e-01)	(1.04166668e-01 1.18012057e-01 -3.62912134e-01)	(8.70966738e-02 3.18968352e-02 1.74801607e-01)	(1.04166668e-01 -1.08961562e-01 4.61707639e-01)
1.1             	p               	0.00000000e+00	(5.00000000e+00 -3.39638897e-01 3.62918348e-01)	2.24900630e+01	(1.04161576e-01 1.62469914e-02 4.95582873e-01)
1.15            	U               	(-1.06772140e+00 -1.38126262e-01 -3.96103120e-01)	(1.04166668e-01 8.65119179e-02 -3.36681685e-01)	(8.77671608e-02 2.35396123e-02 1.30476114e-01)	(1.04166668e-01 -1.39314894e-01 4.53857465e-01)
1.15            	p               	0.00000000e+00	(5.00000000e+00 -3.39638897e-01 3.62918348e-01)	3.09883992e+01	(1.04161576e-01 1.62469914e-02 4.95582873e-01)
1.2             	U               	(-9.86192896e-01 -1.28662717e-01 -2.90938431e-01)	(1.04166668e-01 1.03557602e-01 -3.01203677e-01)	(2.06688548e-01 5.76168400e-02 1.58744473e-01)	(1.04166667e-01 -1.24868900e-02 8.86818671e-02)
1.2             	p               	0.00000000e+00	(5.00000000e+00 -3.39638897e-01 3.62918348e-01)	3.75187111e+01	(1.04161576e-01 1.62469915e-02 -4.95582873e-01)
1.25            	U               	(-2.23879838e-01 -1.13212472e-01 -2.29095686e-01)	(1.04166667e-01 5.77748084e-02 -2.08990818e-01)	(2.14613736e-01 2.36147369e-02 3.80839833e-01)	(1.04166667e-01 -1.13023895e-02 2.59044836e-01)
1.25            	p               	0.00000000e+00	(5.00000000e+00 -3.39638897e-01 3.62918348e-01)	4.16922660e+01	(1.04161576e-01 -1.62469780e-02 4.95582873e-01)
1.3             	U               	(-2.62236122e-01 -1.16442609e-01 -6.19001322e-02)	(1.04166667e-01 -2.68623925e-01 -2.56145742e-01)	(3.71515285e-01 1.77330195e-02 2.87328409e-01)	(1.04163059e-01 -3.72820682e-02 3.42873878e-01)
1.3             	p               	0.00000000e+00	(5.00000000e+00 -3.39638897e-01 3.62918348e-01)	4.32681304e+01	(1.04161576e-01 -1.62469778e-02 -4.95582873e-01)
1.35            	U               	(4.34648801e-02 -9.07557799e-02 -1.45300355e-02)	(1.04166667e-01 -1.89176731e-01 -2.13649037e-01)	(7.17099475e-01 8.72208410e-03 1.81339110e-01)	(1.04163152e-01 -3.48262392e-02 3.10424030e-01)
1.35            	p               	0.00000000e+00	(5.00000000e+00 -3.39638897e-01 3.62918348e-01)	4.22331156e+01	(1.04161576e-01 1.62469914e-02 4.95582873e-01)
1.4             	U               	(7.50921254e-02 -7.59249423e-03 -1.78426161e-02)	(1.04166667e-01 -3.39638897e-01 3.62918348e-01)	(1.18868931e+00 4.36601544e-02 8.87862670e-02)	(1.04166666e-01 7.32865079e-02 -4.29278969e-01)
1.4             	p               	0.00000000e+00	(5.00000000e+00 -3.39638897e-01 3.62918348e-01)	3.87039560e+01	(1.04161576e-01 1.62469915e-02 -4.95582873e-01)
1.45            	U               	(8.52112895e-02 -7.62041975e-03 -2.22162088e-02)	(1.04166667e-01 -3.84028414e-01 3.15135882e-01)	(1.58046795e+00 7.69370149e-03 1.10472711e-01)	(1.04162120e-01 1.40398328e-02 -4.07786745e-01)
1.45            	p               	0.00000000e+00	(5.00000000e+00 -3.39638897e-01 3.62918348e-01)	3.28097659e+01	(1.04161576e-01 -1.62469780e-02 4.95582873e-01)
1.5             	U               	(8.93091743e-02 -6.83956154e-03 -2.33547547e-02)	(1.04166667e-01 -3.84028414e-01 3.15135882e-01)	(1.65208399e+00 1.96708368e-02 2.07338643e-01)	(1.04162767e-01 4.40871619e-02 -4.32792194e-01)
1.5             	p               	0.00000000e+00	(5.00000000e+00 -3.39638897e-01 3.62918348e-01)	2.48761561e+01	(1.04161576e-01 -1.62469778e-02 -4.95582873e-01)
1.55            	U               	(8.77534621e-02 -5.73495177e-03 -2.31594895e-02)	(1.04166667e-01 -3.84028414e-01 3.15135882e-01)	(1.92094629e+00 5.29977289e-03 2.32118881e-01)	(1.04162120e-01 1.40398328e-02 -4.07786745e-01)
1.55            	p               	0.00000000e+00	(5.00000000e+00 -3.39638897e-01 3.62918348e-01)	1.53946443e+01	(1.04161576e-01 1.62469915e-02 -4.95582873e-01)
1.6             	U               	(8.93967418e-02 -4.27549637e-03 -2.11035862e-02)	(1.04166667e-01 -3.39638897e-01 3.62918348e-01)	(1.92258099e+00 1.09055125e-02 2.58495298e-01)	(1.04162856e-01 4.20706695e-02 -4.06147494e-01)
1.6             	p               	0.00000000e+00	(5.00000000e+00 -3.39638897e-01 3.62918348e-01)	4.94394999e+00	(1.04161576e-01 -1.62469780e-02 4.95582873e-01)
1.65            	U               	(7.79342838e-02 -2.55810591e-03 -1.85128069e-02)	(1.04166667e-01 -3.39638897e-01 3.62918348e-01)	(1.76300736e+00 1.23638394e-02 2.61772310e-01)	(1.04166668e-01 9.75474134e-02 -3.98140263e-01)
1.65            	p               	-6.60711871e+00	(1.04166667e-01 1.27353431e-02 -1.27353432e-02)	0.00000000e+00	(5.00000000e+00 -3.39638897e-01 3.62918348e-01)
1.7             	U               	(6.11025536e-02 -3.57429110e-04 -1.44810303e-02)	(1.04166667e-01 -3.39638897e-01 3.62918348e-01)	(1.45265198e+00 4.04374098e-03 1.78133020e-01)	(1.04166668e-01 2.13242055e-01 -2.75994751e-01)
1.7             	p               	-1.68633304e+01	(1.04166667e-01 1.27353431e-02 -1.27353432e-02)	0.00000000e+00	(5.00000000e+00 -3.39638897e-01 3.62918348e-01)
1.75            	U               	(3.76310631e-02 -4.13777072e-03 -1.04287507e-02)	(1.04166668e-01 4.74022502e-01 1.11172820e-01)	(1.08748618e+00 3.88029001e-02 1.69337890e-01)	(1.04166667e-01 -2.48942223e-01 -2.91697828e-01)
1.75            	p               	-2.60583629e+01	(1.04166667e-01 1.27353431e-02 -1.27353432e-02)	0.00000000e+00	(5.00000000e+00 -3.39638897e-01 3.62918348e-01)
1.8             	U               	(-2.86210075e-02 -1.04212606e-02 -4.96835883e-03)	(3.12500000e-01 3.29669482e-01 -3.51659222e-01)	(7.17207236e-01 8.50062222e-02 1.22706254e-01)	(1.04166667e-01 -2.70968010e-01 -2.85363708e-01)
1.8             	p               	-3.36424309e+01	(1.04166667e-01 1.17727605e-02 -1.87075602e-01)	0.00000000e+00	(5.00000000e+00 -3.39638897e-01 3.62918348e-01)
1.85            	U               	(-1.45788308e-01 -2.02769460e-02 -9.49720803e-03)	(3.12500000e-01 1.92930911e-01 4.17829108e-01)	(5.37243524e-01 1.44894709e-01 7.69236065e-02)	(1.04166667e-01 -2.28166018e-01 -2.51045719e-01)
1.85            	p               	-3.92194637e+01	(1.04161576e-01 1.62469914e-02 4.95582873e-01)	0.00000000e+00	(5.00000000e+00 -3.39638897e-01 3.62918348e-01)
1.9             	U               	(-4.34871903e-01 -6.72016833e-03 -1.30547379e-02)	(3.12500000e-01 4.57381140e-02 4.54599870e-01)	(1.77370465e-01 2.12300963e-01 2.22449735e-02)	(1.04166667e-01 -2.29581537e-01 -2.29581537e-01)
1.9             	p               	-4.24731917e+01	(1.04161576e-01 1.62469914e-02 4.95582873e-01)	0.00000000e+00	(5.00000000e+00 -3.39638897e-01 3.62918348e-01)
1.95            	U               	(-7.46077370e-01 -1.59336059e-02 -1.53171455e-02)	(3.12500000e-01 9.75474141e-02 3.98140265e-01)	(-4.66020551e-02 1.14415370e-01 1.58154902e-02)	(1.04166667e-01 -7.81916215e-02 -2.77658068e-01)
1.95            	p               	-4.30439475e+01	(1.04161576e-01 1.62469915e-02 -4.95582873e-01)	0.00000000e+00	(5.00000000e+00 -3.39638897e-01 3.62918348e-01)
2               	U               	(-1.19694458e+00 -2.05330535e-02 -6.58417570e-03)	(3.12500000e-01 2.53039280e-01 -3.42731516e-01)	(-6.63610735e-02 1.11166829e-02 1.91326354e-02)	(1.04166667e-01 -3.39638897e-01 3.62918348e-01)
2               	p               	-4.09110889e+01	(1.04161576e-01 1.62469914e-02 4.95582873e-01)	0.00000000e+00	(5.00000000e+00 -3.39638897e-01 3.62918348e-01)
2.05            	U               	(-1.53079088e+00 -1.19833856e-02 -7.00731272e-03)	(3.12500000e-01 3.75363643e-01 -1.77888576e-01)	(-7.68809367e-02 1.23518396e-02 2.37061392e-02)	(1.04166667e-01 -3.39638897e-01 3.62918348e-01)
2.05            	p               	-3.62963493e+01	(1.04161576e-01 -1.62469778e-02 -4.95582873e-01)	0.00000000e+00	(5.00000000e+00 -3.39638897e-01 3.62918348e-01)
2.1             	U               	(-1.77804646e+00 -1.92099903e-02 -5.88867248e-03)	(3.12500000e-01 -2.56145742e-01 2.68623925e-01)	(-8.22855032e-02 1.43056651e-02 3.21305133e-02)	(1.04166667e-01 -1.74946326e-01 4.64190110e-01)
2.1             	p               	-2.93352696e+01	(1.04161576e-01 1.62469914e-02 4.95582873e-01)	0.00000000e+00	(5.00000000e+00 -3.39638897e-01 3.62918348e-01)
2.15            	U               	(-1.92879897e+00 -4.10978769e-02 -1.47011626e-02)	(3.12500000e-01 -2.56145742e-01 2.68623925e-01)	(-7.81320125e-02 1.74999903e-02 3.57956085e-02)	(1.04166667e-01 -2.34124561e-01 4.37566951e-01)
2.15            	p               	-2.05166483e+01	(1.04166669e-01 -1.44164695e-01 -4.74562071e-01)	0.00000000e+00	(5.00000000e+00 -3.39638897e-01 3.62918348e-01)
2.2             	U               	(-1.98755344e+00 -3.71889249e-01 -3.47125599e-01)	(1.04166668e-01 2.26737066e-01 -2.98624805e-01)	(-7.05221673e-02 1.82347992e-02 3.66020965e-02)	(1.04166667e-01 -2.62270845e-01 4.21434988e-01)
2.2             	p               	-1.04277336e+01	(1.04166667e-01 -2.34124560e-01 -4.37566951e-01)	0.00000000e+00	(5.00000000e+00 -3.39638897e-01 3.62918348e-01)
2.25            	U               	(-1.90077214e+00 -3.27777348e-01 -3.75933360e-01)	(1.04166667e-01 1.58250731e-01 -3.19924728e-01)	(-1.16314863e-02 2.93526273e-02 1.18272605e-01)	(1.04166668e-01 -1.11172818e-01 4.74022503e-01)
2.25            	p               	-1.00207142e-02	(4.89583333e+00 1.32053689e-01 -1.32053689e-01)	7.24719895e-01	(1.04162120e-01 4.07786746e-01 -1.40398252e-02)
2.3             	U               	(-1.69361217e+00 -2.36444807e-01 -4.13340797e-01)	(1.04166667e-01 1.43426801e-01 -3.56242701e-01)	(6.32087860e-02 3.23891127e-02 2.09875000e-01)	(1.04166666e-01 -7.81573312e-02 4.67644855e-01)
2.3             	p               	0.00000000e+00	(5.00000000e+00 -3.39638897e-01 3.62918348e-01)	1.12722588e+01	(1.04161576e-01 1.62469914e-02 4.95582873e-01)
2.35            	U               	(-1.40513419e+00 -1.80958649e-01 -4.15827243e-01)	(1.04166668e-01 1.18012057e-01 -3.62912134e-01)	(9.93508247e-02 3.14032393e-02 1.79229445e-01)	(1.04166668e-01 -1.08961562e-01 4.61707639e-01)
2.35            	p               	0.00000000e+00	(5.00000000e+00 -3.39638897e-01 3.62918348e-01)	2.13538175e+01	(1.04161576e-01 -1.62469780e-02 4.95582873e-01)
2.4             	U               	(-1.07766730e+00 -1.52718685e-01 -4.23272581e-01)	(1.04166668e-01 8.65119179e-02 -3.36681685e-01)	(9.43310278e-02 2.44720187e-02 1.35752740e-01)	(1.04166668e-01 -1.39314894e-01 4.53857465e-01)
2.4             	p               	0.00000000e+00	(5.00000000e+00 -3.39638897e-01 3.62918348e-01)	3.00762353e+01	(1.04161576e-01 1.62469914e-02 4.95582873e-01)
2.45            	U               	(-8.26682566e-01 -1.34773590e-01 -3.68956822e-01)	(1.04166667e-01 8.08522842e-02 -3.05162209e-01)	(1.14418623e-01 5.85463079e-02 1.76927583e-01)	(1.04166667e-01 -1.24868900e-02 8.86818671e-02)
2.45            	p               	0.00000000e+00	(5.00000000e+00 -3.39638897e-01 3.62918348e-01)	3.68891745e+01	(1.04161576e-01 1.62469915e-02 -4.95582873e-01)
2.5             	U               	(-2.95437721e-01 -1.21508423e-01 -2.63163328e-01)	(1.04166667e-01 5.77748084e-02 -2.08990818e-01)	(1.10535027e-01 2.87037279e-02 4.03134788e-01)	(1.04162957e-01 -3.97567902e-02 3.75573368e-01)
2.5             	p               	0.00000000e+00	(5.00000000e+00 -3.39638897e-01 3.62918348e-01)	4.13813140e+01	(1.04161576e-01 -1.62469778e-02 -4.95582873e-01)
2.55            	U               	(-3.16606229e-01 -1.07766736e-01 -8.05804760e-02)	(1.04166667e-01 -2.68623925e-01 -2.56145742e-01)	(3.45090145e-01 2.37734285e-02 3.30757189e-01)	(1.04163059e-01 -3.72820682e-02 3.42873878e-01)
2.55            	p               	0.00000000e+00	(5.00000000e+00 -3.39638897e-01 3.62918348e-01)	4.32984005e+01	(1.04161576e-01 -1.62469778e-02 -4.95582873e-01)
2.6             	U               	(2.08512158e-02 -1.23181636e-01 -2.79977815e-02)	(1.04166667e-01 -2.28166018e-01 -2.51045719e-01)	(7.40196431e-01 8.22330944e-03 2.25067471e-01)	(1.04166667e-01 -1.13023895e-02 2.59044836e-01)
2.6             	p               	0.00000000e+00	(5.00000000e+00 -3.39638897e-01 3.62918348e-01)	4.25874800e+01	(1.04161576e-01 1.62469914e-02 4.95582873e-01)
2.65            	U               	(7.36774877e-02 -7.50866184e-03 -1.73042768e-02)	(1.04166667e-01 -3.39638897e-01 3.62918348e-01)	(1.14304278e+00 -1.17575174e-03 1.05435056e-01)	(1.04162664e-01 -1.24401978e-02 3.44156757e-01)
2.65            	p               	0.00000000e+00	(5.00000000e+00 -3.39638897e-01 3.62918348e-01)	3.93750731e+01	(1.04161576e-01 1.62469915e-02 -4.95582873e-01)
2.7             	U               	(8.45473147e-02 -7.63186650e-03 -2.18837233e-02)	(1.04166667e-01 -3.84028414e-01 3.15135882e-01)	(1.84914135e+00 1.37857021e-02 1.58206116e-02)	(3.12500000e-01 1.40387217e-02 -4.07775560e-01)
2.7             	p               	0.00000000e+00	(5.00000000e+00 -3.39638897e-01 3.62918348e-01)	3.37707874e+01	(1.04161576e-01 1.62469915e-02 -4.95582873e-01)
2.75            	U               	(8.92888121e-02 -6.92375091e-03 -2.32276758e-02)	(1.04166667e-01 -3.84028414e-01 3.15135882e-01)	(2.01678756e+00 3.36149935e-02 3.52013029e-02)	(3.12500000e-01 3.97566296e-02 -3.75565203e-01)
2.75            	p               	0.00000000e+00	(5.00000000e+00 -3.39638897e-01 3.62918348e-01)	2.60747139e+01	(1.04161576e-01 -1.62469778e-02 -4.95582873e-01)
2.8             	U               	(8.84096934e-02 -5.89317173e-03 -2.32544968e-02)	(1.04166667e-01 -3.84028414e-01 3.15135882e-01)	(1.91938993e+00 5.55327704e-03 2.22871154e-01)	(1.04162120e-01 1.40398328e-02 -4.07786745e-01)
2.8             	p               	0.00000000e+00	(5.00000000e+00 -3.39638897e-01 3.62918348e-01)	1.67628007e+01	(1.04161576e-01 1.62469915e-02 -4.95582873e-01)
2.85            	U               	(8.19797570e-02 -4.48493621e-03 -2.18180966e-02)	(1.04166667e-01 -3.84028414e-01 3.15135882e-01)	(1.94823488e+00 3.76825682e-03 2.52999449e-01)	(1.04162120e-01 1.40398328e-02 -4.07786745e-01)
2.85            	p               	0.00000000e+00	(5.00000000e+00 -3.39638897e-01 3.62918348e-01)	6.40008166e+00	(1.04161576e-01 1.62469914e-02 4.95582873e-01)
2.9             	U               	(7.98492663e-02 -2.83290866e-03 -1.89573143e-02)	(1.04166667e-01 -3.39638897e-01 3.62918348e-01)	(1.91508163e+00 1.12615166e-02 2.41494948e-01)	(1.04166666e-01 6.61034903e-02 -3.72700766e-01)
2.9             	p               	-5.22123455e+00	(3.12500000e-01 1.62453040e-02 4.95562969e-01)	0.00000000e+00	(5.00000000e+00 -3.39638897e-01 3.62918348e-01)
2.95            	U               	(6.36572538e-02 -6.81858932e-04 -1.50981499e-02)	(1.04166667e-01 -3.39638897e-01 3.62918348e-01)	(1.55260253e+00 3.73770783e-03 2.31124815e-01)	(1.04166667e-01 1.68399695e-01 -3.48575906e-01)
2.95            	p               	-1.55215307e+01	(1.04166667e-01 1.27353431e-02 -1.27353432e-02)	0.00000000e+00	(5.00000000e+00 -3.39638897e-01 3.62918348e-01)
3               	U               	(4.30117774e-02 1.73853321e-03 -1.00984874e-02)	(1.04166667e-01 -3.39638897e-01 3.62918348e-01)	(1.12245311e+00 3.31215645e-02 1.73040041e-01)	(1.04166667e-01 -2.48942223e-01 -2.91697828e-01)
3               	p               	-2.48933836e+01	(1.04166667e-01 1.27353431e-02 -1.27353432e-02)	0.00000000e+00	(5.00000000e+00 -3.39638897e-01 3.62918348e-01)
3.05            	U               	(-6.90657211e-03 -1.02056959e-02 -4.66505466e-03)	(3.12500000e-01 3.29669482e-01 -3.51659222e-01)	(7.58527421e-01 7.87354208e-02 1.28373634e-01)	(1.04166667e-01 -2.70968010e-01 -2.85363708e-01)
3.05            	p               	-3.27211151e+01	(1.04166667e-01 1.21578437e-02 1.38370789e-01)	0.00000000e+00	(5.00000000e+00 -3.39638897e-01 3.62918348e-01)
3.1             	U               	(-1.14110714e-01 -2.03478023e-02 -1.01619092e-02)	(1.04166666e-01 4.67644855e-01 -7.81573312e-02)	(5.84198725e-01 1.37552905e-01 8.16685084e-02)	(1.04166667e-01 -2.28166018e-01 -2.51045719e-01)
3.1             	p               	-3.85735977e+01	(1.04161576e-01 1.62469914e-02 4.95582873e-01)	0.00000000e+00	(5.00000000e+00 -3.39638897e-01 3.62918348e-01)
3.15            	U               	(-3.27251876e-01 -1.80291679e-02 -2.38187566e-02)	(3.12500000e-01 1.02194466e-01 4.24020499e-01)	(1.74014158e-01 2.01158194e-01 2.88549650e-02)	(1.04166667e-01 -2.49498360e-01 -2.49498360e-01)
3.15            	p               	-4.21723949e+01	(1.04161576e-01 -1.62469780e-02 4.95582873e-01)	0.00000000e+00	(5.00000000e+00 -3.39638897e-01 3.62918348e-01)
3.2             	U               	(-7.61956011e-01 -1.24260711e-02 -1.17440221e-02)	(3.12500000e-01 4.05442538e-01 -2.20534709e-01)	(-3.70852073e-02 1.34879747e-01 2.29249380e-02)	(1.04166668e-01 -1.03557602e-01 -3.01203677e-01)
3.2             	p               	-4.31062196e+01	(1.04161576e-01 -1.62469780e-02 4.95582873e-01)	0.00000000e+00	(5.00000000e+00 -3.39638897e-01 3.62918348e-01)
3.25            	U               	(-1.15410956e+00 -2.19982678e-02 -6.64781666e-03)	(3.12500000e-01 2.53039280e-01 -3.42731516e-01)	(-6.45056479e-02 1.09585256e-02 1.84853411e-02)	(1.04166667e-01 -3.39638897e-01 3.62918348e-01)
3.25            	p               	-4.13221515e+01	(1.04161576e-01 1.62469914e-02 4.95582873e-01)	0.00000000e+00	(5.00000000e+00 -3.39638897e-01 3.62918348e-01)
3.3             	U               	(-1.19547047e+00 -1.98230240e-03 -1.43540485e-02)	(5.20833333e-01 1.68399695e-01 3.48575906e-01)	(-7.57459167e-02 1.21949441e-02 2.31450704e-02)	(1.04166667e-01 -3.39638897e-01 3.62918348e-01)
3.3             	p               	-3.70331227e+01	(1.04161576e-01 -1.62469778e-02 -4.95582873e-01)	0.00000000e+00	(5.00000000e+00 -3.39638897e-01 3.62918348e-01)
3.35            	U               	(-1.75320100e+00 -1.51848214e-02 -5.81240178e-03)	(3.12500000e-01 -2.68623925e-01 2.56145742e-01)	(-8.20962513e-02 1.34042248e-02 2.70462042e-02)	(1.04166667e-01 -3.39638897e-01 3.62918348e-01)
3.35            	p               	-3.03593697e+01	(1.04161576e-01 1.62469914e-02 4.95582873e-01)	0.00000000e+00	(5.00000000e+00 -3.39638897e-01 3.62918348e-01)
3.4             	U               	(-1.91456075e+00 -3.83330996e-02 -1.26514928e-02)	(3.12500000e-01 -2.56145742e-01 2.68623925e-01)	(-7.98740526e-02 1.74218900e-02 3.54729736e-02)	(1.04166667e-01 -2.34124561e-01 4.37566951e-01)
3.4             	p               	-2.17545735e+01	(1.04166668e-01 -1.12774051e-01 -4.82940049e-01)	0.00000000e+00	(5.00000000e+00 -3.39638897e-01 3.62918348e-01)
3.45            	U               	(-1.96272432e+00 -3.74514807e-01 -3.43779667e-01)	(1.04166668e-01 2.26737066e-01 -2.98624805e-01)	(-7.23668082e-02 1.82644127e-02 3.65704395e-02)	(1.04166667e-01 -2.62270845e-01 4.21434988e-01)
3.45            	p               	-1.17985434e+01	(1.04166666e-01 -2.04984173e-01 -4.51856272e-01)	0.00000000e+00	(5.00000000e+00 -3.39638897e-01 3.62918348e-01)
3.5             	U               	(-1.88877298e+00 -3.31395424e-01 -3.74996462e-01)	(1.04166667e-01 1.58250731e-01 -3.19924728e-01)	(-2.41794577e-02 3.00552713e-02 1.18969462e-01)	(1.04166668e-01 -1.11172818e-01 4.74022503e-01)
3.5             	p               	-1.12608047e+00	(1.04166666e-01 -2.62270845e-01 -4.21434988e-01)	0.00000000e+00	(5.00000000e+00 -3.39638897e-01 3.62918348e-01)
3.55            	U               	(-1.70141106e+00 -2.41069536e-01 -4.15430497e-01)	(1.04166667e-01 1.43426801e-01 -3.56242701e-01)	(4.16716978e-02 3.40772435e-02 2.12138830e-01)	(1.04166666e-01 -7.81573312e-02 4.67644855e-01)
3.55            	p               	0.00000000e+00	(5.00000000e+00 -3.39638897e-01 3.62918348e-01)	9.88574761e+00	(1.04161576e-01 1.62469914e-02 4.95582873e-01)
3.6             	U               	(-1.42568678e+00 -1.86237608e-01 -4.21251298e-01)	(1.04166668e-01 1.18012057e-01 -3.62912134e-01)	(8.37587055e-02 3.39464193e-02 1.83627562e-01)	(1.04166668e-01 -1.08961562e-01 4.61707639e-01)
3.6             	p               	0.00000000e+00	(5.00000000e+00 -3.39638897e-01 3.62918348e-01)	2.01018106e+01	(1.04161576e-01 1.62469914e-02 4.95582873e-01)
3.65            	U               	(-1.10594912e+00 -1.58498470e-01 -4.31908752e-01)	(1.04166668e-01 8.65119179e-02 -3.36681685e-01)	(8.15812610e-02 2.76837373e-02 1.41679553e-01)	(1.04166668e-01 -1.39314894e-01 4.53857465e-01)
3.65            	p               	0.00000000e+00	(5.00000000e+00 -3.39638897e-01 3.62918348e-01)	2.90387472e+01	(1.04161576e-01 1.62469914e-02 4.95582873e-01)
3.7             	U               	(-8.66139269e-01 -1.41838754e-01 -3.80504917e-01)	(1.04166667e-01 8.08522842e-02 -3.05162209e-01)	(7.85685149e-02 5.99060231e-02 1.82257662e-01)	(1.04166667e-01 -1.24868900e-02 8.86818671e-02)
3.7             	p               	0.00000000e+00	(5.00000000e+00 -3.39638897e-01 3.62918348e-01)	3.61318685e+01	(1.04161576e-01 1.62469915e-02 -4.95582873e-01)
3.75            	U               	(-3.31802824e-01 -1.18103530e-01 -3.08021715e-01)	(1.04166667e-01 5.69667966e-02 -2.32696208e-01)	(2.58823455e-01 1.16339390e-02 3.59751404e-01)	(1.04162856e-01 -4.20706632e-02 4.06147495e-01)
3.75            	p               	0.00000000e+00	(5.00000000e+00 -3.39638897e-01 3.62918348e-01)	4.09488722e+01	(1.04161576e-01 1.62469915e-02 -4.95582873e-01)
3.8             	U               	(-3.72465694e-01 -1.00322587e-01 -9.24422727e-02)	(1.04166667e-01 -2.68623925e-01 -2.56145742e-01)	(6.61165683e-01 -1.60888224e-03 2.91923248e-01)	(1.04162120e-01 -1.40398253e-02 4.07786745e-01)
3.8             	p               	0.00000000e+00	(5.00000000e+00 -3.39638897e-01 3.62918348e-01)	4.32153278e+01	(1.04161576e-01 -1.62469778e-02 -4.95582873e-01)
3.85            	U               	(2.43603685e-03 -1.56589030e-01 -1.71143002e-02)	(1.04166668e-01 -2.71783183e-01 -2.34665011e-01)	(6.56695480e-01 9.81538487e-03 2.28618872e-01)	(1.04163059e-01 -3.72820682e-02 3.42873878e-01)
3.85            	p               	0.00000000e+00	(5.00000000e+00 -3.39638897e-01 3.62918348e-01)	4.28363573e+01	(1.04161576e-01 1.62469914e-02 4.95582873e-01)