/*--------------------------------*- C++ -*----------------------------------*\
| =========                 |                                                 |
| \\      /  F ield         | OpenFOAM: The Open Source CFD Toolbox           |
|  \\    /   O peration     | Version:  2406                                  |
|   \\  /    A nd           | Website:  www.openfoam.com                      |
|    \\/     M anipulation  |                                                 |
\*---------------------------------------------------------------------------*/
FoamFile
{
    version     2.0;
    format      ascii;
    arch        "LSB;label=32;scalar=64";
    class       volScalarField;
    location    "50";
    object      p;
}
// * * * * * * * * * * * * * * * * * * * * * * * * * * * * * * * * * * * * * //

dimensions      [0 2 -2 0 0 0 0];

internalField   nonuniform List<scalar> 
1176
(
0.79699976
0.79702264
0.7970463
0.79705396
0.79702244
0.79692774
0.79677051
0.79658434
0.79640514
0.79623799
0.79608337
0.79598776
0.79598776
0.79608337
0.796238
0.79640516
0.79658438
0.79677056
0.79692782
0.79702255
0.79705413
0.79704652
0.79702289
0.79700004
0.77385133
0.77380438
0.77375662
0.77373972
0.77380222
0.77400458
0.7743699
0.7748343
0.77526516
0.77555126
0.77567066
0.77570492
0.77570492
0.77567066
0.77555126
0.77526514
0.77483425
0.7743698
0.77400443
0.77380203
0.7737395
0.77375637
0.77380412
0.77385108
0.75676658
0.75678859
0.75680838
0.75680648
0.75674741
0.75658624
0.75631447
0.75598652
0.75568031
0.75546752
0.75535672
0.7553079
0.75530791
0.75535673
0.75546754
0.75568034
0.75598655
0.7563145
0.75658626
0.75674743
0.75680649
0.7568084
0.75678861
0.75676659
0.74009469
0.74010381
0.74011587
0.74013227
0.74015482
0.74017239
0.74014015
0.74000674
0.73977463
0.73950206
0.73927786
0.73915736
0.73915736
0.73927786
0.73950207
0.73977464
0.74000675
0.74014016
0.7401724
0.74015483
0.74013229
0.74011589
0.74010384
0.74009471
0.72367564
0.72367959
0.72368458
0.72369065
0.72370035
0.72372062
0.72375681
0.72379832
0.72381999
0.72379611
0.723734
0.72368136
0.72368136
0.723734
0.72379611
0.72381999
0.72379832
0.7237568
0.72372062
0.72370035
0.72369065
0.72368459
0.7236796
0.72367565
0.70721398
0.7072164
0.70721964
0.70722369
0.7072286
0.70723543
0.7072496
0.70728091
0.7073309
0.70738815
0.70743085
0.70744751
0.70744751
0.70743085
0.70738814
0.70733089
0.70728091
0.7072496
0.70723544
0.70722861
0.70722371
0.70721966
0.70721642
0.70721401
0.69080817
0.69081031
0.69081312
0.69081655
0.69082045
0.69082396
0.69082603
0.6908282
0.69083675
0.69085398
0.69087188
0.6908836
0.6908836
0.69087188
0.69085398
0.69083675
0.6908282
0.69082603
0.69082397
0.69082046
0.69081657
0.69081315
0.69081034
0.6908082
0.67442831
0.67443007
0.67443239
0.67443531
0.67443899
0.67444336
0.67444781
0.67445097
0.6744522
0.67445382
0.67445087
0.67444835
0.67444835
0.67445086
0.67445382
0.6744522
0.67445096
0.67444781
0.67444337
0.67443901
0.67443534
0.67443242
0.67443009
0.67442833
0.65807402
0.65807548
0.65807741
0.65807982
0.65808284
0.65808662
0.65809167
0.65809871
0.6581074
0.65811743
0.6581252
0.65812878
0.65812878
0.65812519
0.65811742
0.65810739
0.65809871
0.65809167
0.65808663
0.65808285
0.65807984
0.65807743
0.6580755
0.65807405
0.64173633
0.64173753
0.64173914
0.64174118
0.64174374
0.64174692
0.64175108
0.64175747
0.64176763
0.64178077
0.6417951
0.6418044
0.6418044
0.6417951
0.64178076
0.64176763
0.64175747
0.64175109
0.64174693
0.64174376
0.6417412
0.64173917
0.64173756
0.64173636
0.62541195
0.62541298
0.62541435
0.6254161
0.62541831
0.62542104
0.62542443
0.62542928
0.62543714
0.6254478
0.62546037
0.6254695
0.6254695
0.62546036
0.6254478
0.62543714
0.62542928
0.62542444
0.62542105
0.62541833
0.62541612
0.62541437
0.625413
0.62541197
0.60909848
0.60909937
0.60910057
0.60910209
0.60910403
0.60910643
0.60910939
0.6091134
0.60911962
0.60912828
0.60913885
0.6091463
0.6091463
0.60913885
0.60912828
0.60911962
0.6091134
0.6091094
0.60910644
0.60910405
0.60910211
0.60910059
0.60909939
0.6090985
0.59279428
0.59279507
0.59279613
0.59279747
0.59279919
0.59280132
0.59280396
0.5928075
0.5928129
0.59282065
0.59283034
0.59283702
0.59283702
0.59283034
0.59282064
0.59281289
0.59280749
0.59280396
0.59280133
0.59279921
0.59279749
0.59279614
0.59279509
0.5927943
0.57649806
0.57649876
0.5764997
0.57650091
0.57650244
0.57650435
0.5765067
0.57650983
0.5765146
0.57652158
0.57653024
0.57653633
0.57653633
0.57653024
0.57652157
0.5765146
0.57650983
0.5765067
0.57650436
0.57650246
0.57650092
0.57649972
0.57649878
0.57649808
0.56020879
0.56020942
0.56021027
0.56021135
0.56021273
0.56021445
0.56021655
0.56021931
0.56022347
0.5602296
0.56023713
0.56024253
0.56024253
0.56023713
0.5602296
0.56022347
0.56021931
0.56021655
0.56021445
0.56021274
0.56021136
0.56021028
0.56020944
0.56020881
0.54392567
0.54392624
0.54392701
0.54392799
0.54392924
0.5439308
0.54393269
0.54393514
0.54393878
0.54394416
0.54395069
0.54395549
0.54395549
0.54395069
0.54394415
0.54393878
0.54393514
0.54393269
0.5439308
0.54392925
0.543928
0.54392702
0.54392625
0.54392568
0.52764805
0.52764857
0.52764926
0.52765015
0.5276513
0.52765271
0.52765443
0.52765664
0.52765986
0.52766462
0.52767034
0.52767464
0.52767464
0.52767034
0.52766462
0.52765985
0.52765663
0.52765443
0.52765272
0.5276513
0.52765016
0.52764927
0.52764857
0.52764805
0.51137537
0.51137584
0.51137648
0.51137729
0.51137834
0.51137964
0.51138121
0.5113832
0.51138607
0.51139032
0.51139538
0.51139924
0.51139924
0.51139538
0.51139032
0.51138607
0.5113832
0.51138121
0.51137964
0.51137834
0.5113773
0.51137648
0.51137585
0.51137537
0.49510717
0.49510761
0.49510819
0.49510894
0.4951099
0.4951111
0.49511254
0.49511434
0.49511692
0.49512073
0.49512522
0.49512871
0.49512871
0.49512522
0.49512072
0.49511692
0.49511434
0.49511254
0.4951111
0.4951099
0.49510894
0.49510819
0.49510761
0.49510717
0.47884306
0.47884346
0.478844
0.47884469
0.47884558
0.47884668
0.478848
0.47884965
0.47885197
0.4788554
0.47885943
0.47886259
0.47886259
0.47885943
0.4788554
0.47885197
0.47884965
0.478848
0.47884668
0.47884558
0.47884469
0.478844
0.47884346
0.47884306
0.46258269
0.46258306
0.46258356
0.4625842
0.46258502
0.46258604
0.46258726
0.46258877
0.46259087
0.46259397
0.46259762
0.46260049
0.46260049
0.46259762
0.46259397
0.46259087
0.46258877
0.46258726
0.46258604
0.46258502
0.46258419
0.46258355
0.46258306
0.46258269
0.44632576
0.4463261
0.44632656
0.44632716
0.44632792
0.44632886
0.44632999
0.44633138
0.4463333
0.44633611
0.44633943
0.44634204
0.44634204
0.44633943
0.44633611
0.4463333
0.44633138
0.44632999
0.44632886
0.44632791
0.44632715
0.44632655
0.44632609
0.44632575
0.43007199
0.43007231
0.43007274
0.43007329
0.430074
0.43007488
0.43007593
0.43007721
0.43007896
0.43008153
0.43008456
0.43008695
0.43008695
0.43008457
0.43008153
0.43007896
0.43007721
0.43007593
0.43007487
0.43007399
0.43007328
0.43007273
0.4300723
0.43007198
0.41382116
0.41382146
0.41382185
0.41382237
0.41382303
0.41382385
0.41382482
0.41382601
0.41382762
0.41382997
0.41383276
0.41383494
0.41383494
0.41383276
0.41382997
0.41382762
0.41382601
0.41382482
0.41382384
0.41382302
0.41382236
0.41382185
0.41382145
0.41382115
0.39757304
0.39757332
0.39757369
0.39757417
0.39757479
0.39757555
0.39757646
0.39757756
0.39757904
0.39758121
0.39758378
0.39758578
0.39758578
0.39758378
0.39758121
0.39757904
0.39757756
0.39757646
0.39757555
0.39757478
0.39757416
0.39757368
0.39757331
0.39757303
0.38132745
0.38132771
0.38132806
0.3813285
0.38132908
0.38132979
0.38133064
0.38133167
0.38133304
0.38133503
0.38133741
0.38133926
0.38133926
0.38133741
0.38133503
0.38133304
0.38133167
0.38133064
0.38132979
0.38132907
0.3813285
0.38132805
0.3813277
0.38132744
0.36508421
0.36508445
0.36508477
0.36508519
0.36508573
0.3650864
0.3650872
0.36508815
0.36508942
0.36509126
0.36509347
0.36509518
0.36509518
0.36509347
0.36509126
0.36508942
0.36508815
0.3650872
0.3650864
0.36508573
0.36508519
0.36508477
0.36508445
0.3650842
0.34884316
0.34884338
0.34884369
0.34884408
0.34884459
0.34884521
0.34884596
0.34884685
0.34884803
0.34884973
0.34885178
0.34885336
0.34885336
0.34885178
0.34884973
0.34884803
0.34884685
0.34884596
0.34884521
0.34884459
0.34884408
0.34884369
0.34884338
0.34884316
0.33260415
0.33260436
0.33260465
0.33260502
0.33260549
0.33260608
0.33260678
0.33260761
0.33260871
0.33261029
0.33261221
0.33261367
0.33261367
0.33261221
0.33261029
0.33260871
0.33260761
0.33260678
0.33260608
0.3326055
0.33260502
0.33260466
0.33260437
0.33260416
0.31636706
0.31636726
0.31636753
0.31636788
0.31636832
0.31636887
0.31636953
0.31637031
0.31637133
0.3163728
0.31637459
0.31637595
0.31637595
0.31637459
0.3163728
0.31637133
0.31637031
0.31636953
0.31636888
0.31636833
0.31636789
0.31636754
0.31636728
0.31636708
0.30013176
0.30013195
0.3001322
0.30013253
0.30013295
0.30013347
0.30013408
0.30013482
0.30013577
0.30013714
0.30013881
0.30014008
0.30014008
0.30013881
0.30013714
0.30013576
0.30013481
0.30013408
0.30013347
0.30013296
0.30013255
0.30013223
0.30013198
0.30013179
0.28389815
0.28389832
0.28389856
0.28389887
0.28389926
0.28389975
0.28390033
0.28390102
0.28390191
0.28390319
0.28390475
0.28390593
0.28390593
0.28390475
0.28390318
0.2839019
0.28390101
0.28390033
0.28389976
0.28389928
0.2838989
0.28389859
0.28389836
0.28389818
0.26766611
0.26766627
0.2676665
0.26766678
0.26766715
0.26766761
0.26766816
0.26766881
0.26766964
0.26767084
0.2676723
0.26767341
0.26767341
0.2676723
0.26767083
0.26766963
0.2676688
0.26766816
0.26766763
0.26766718
0.26766682
0.26766654
0.26766632
0.26766616
0.25143555
0.2514357
0.25143591
0.25143618
0.25143653
0.25143697
0.25143748
0.25143809
0.25143887
0.25143999
0.25144136
0.2514424
0.25144239
0.25144136
0.25143998
0.25143886
0.25143808
0.25143748
0.25143699
0.25143657
0.25143624
0.25143597
0.25143577
0.25143561
0.23520638
0.23520653
0.23520673
0.23520698
0.23520731
0.23520772
0.2352082
0.23520877
0.23520951
0.23521056
0.23521185
0.23521282
0.23521282
0.23521184
0.23521054
0.23520949
0.23520876
0.23520821
0.23520775
0.23520736
0.23520705
0.2352068
0.23520661
0.23520646
0.21897852
0.21897866
0.21897885
0.21897909
0.2189794
0.21897978
0.21898024
0.21898078
0.21898147
0.21898245
0.21898366
0.21898457
0.21898457
0.21898365
0.21898243
0.21898145
0.21898076
0.21898025
0.21897982
0.21897946
0.21897917
0.21897894
0.21897876
0.21897862
0.2027519
0.20275203
0.2027522
0.20275243
0.20275272
0.20275309
0.20275352
0.20275403
0.20275467
0.2027556
0.20275674
0.2027576
0.20275759
0.20275673
0.20275558
0.20275465
0.20275401
0.20275353
0.20275313
0.2027528
0.20275253
0.20275232
0.20275215
0.20275202
0.18652644
0.18652656
0.18652673
0.18652694
0.18652722
0.18652756
0.18652797
0.18652844
0.18652905
0.18652992
0.18653099
0.18653179
0.18653179
0.18653098
0.18652989
0.18652902
0.18652842
0.18652797
0.18652761
0.18652731
0.18652706
0.18652686
0.1865267
0.18652658
0.17030207
0.17030218
0.17030234
0.17030254
0.1703028
0.17030313
0.17030351
0.17030396
0.17030453
0.17030535
0.17030637
0.17030712
0.17030712
0.17030635
0.17030532
0.17030449
0.17030393
0.17030352
0.17030319
0.17030291
0.17030268
0.17030249
0.17030235
0.17030223
0.15407873
0.15407884
0.15407899
0.15407918
0.15407943
0.15407974
0.1540801
0.15408052
0.15408106
0.15408182
0.15408277
0.15408347
0.15408347
0.15408275
0.15408178
0.15408102
0.15408049
0.15408011
0.15407981
0.15407956
0.15407935
0.15407917
0.15407904
0.15407893
0.13785637
0.13785647
0.13785661
0.13785679
0.13785703
0.13785731
0.13785766
0.13785806
0.13785856
0.13785928
0.13786018
0.13786084
0.13786084
0.13786016
0.13785924
0.13785851
0.13785802
0.13785767
0.1378574
0.13785717
0.13785698
0.13785682
0.13785669
0.13785659
0.12163494
0.12163504
0.12163517
0.12163534
0.12163556
0.12163583
0.12163615
0.12163653
0.121637
0.12163766
0.12163849
0.12163909
0.12163909
0.12163846
0.12163762
0.12163694
0.12163649
0.12163617
0.12163593
0.12163573
0.12163556
0.1216354
0.12163529
0.12163519
0.10541435
0.10541445
0.10541457
0.10541473
0.10541494
0.1054152
0.1054155
0.10541586
0.1054163
0.10541692
0.10541769
0.10541826
0.10541825
0.10541767
0.10541687
0.10541623
0.10541581
0.10541553
0.10541531
0.10541513
0.10541498
0.10541484
0.10541473
0.10541464
0.089194638
0.089194726
0.089194846
0.089194999
0.089195196
0.089195439
0.089195726
0.089196056
0.08919646
0.089197007
0.089197672
0.089198149
0.089198143
0.089197644
0.089196947
0.089196384
0.089196006
0.089195748
0.089195558
0.089195405
0.08919527
0.089195138
0.089195035
0.089194952
0.072975632
0.072975715
0.072975827
0.072975972
0.07297616
0.072976394
0.072976669
0.072976983
0.072977361
0.072977863
0.07297846
0.072978869
0.072978862
0.072978429
0.072977796
0.072977276
0.072976927
0.072976692
0.072976522
0.072976386
0.072976265
0.072976141
0.072976045
0.072975968
0.056757512
0.056757592
0.056757701
0.056757839
0.056758015
0.05675823
0.056758482
0.056758765
0.056759087
0.056759469
0.05675986
0.056760087
0.05676008
0.056759828
0.056759397
0.056758994
0.056758701
0.056758503
0.056758363
0.05675825
0.056758143
0.056758025
0.056757933
0.056757856
0.040539725
0.040539796
0.040539894
0.040540025
0.0405402
0.040540424
0.040540688
0.040540978
0.040541304
0.040541717
0.040542199
0.040542521
0.040542513
0.040542167
0.040541643
0.040541206
0.040540909
0.040540704
0.040540551
0.040540427
0.040540317
0.040540204
0.040540118
0.040540049
0.024323457
0.02432354
0.024323648
0.024323776
0.024323923
0.024324084
0.024324255
0.024324436
0.024324602
0.024324685
0.024324611
0.024324394
0.024324388
0.024324581
0.024324614
0.024324509
0.024324373
0.024324273
0.024324202
0.024324125
0.024324026
0.024323905
0.0243238
0.024323714
0.0081053657
0.0081054359
0.0081055288
0.0081056502
0.0081058108
0.0081060098
0.0081062295
0.0081064675
0.0081068448
0.0081076828
0.0081091686
0.0081105455
0.0081105431
0.0081091527
0.0081076402
0.0081067853
0.008106427
0.0081062442
0.0081060926
0.0081059492
0.0081058187
0.0081056995
0.0081056051
0.0081055295
)
;

boundaryField
{
    INLET
    {
        type            zeroGradient;
    }
    OUTLET
    {
        type            fixedValue;
        value           uniform 0;
    }
    WALL
    {
        type            zeroGradient;
    }
    frontAndBackPlanes
    {
        type            empty;
    }
}


// ************************************************************************* //
