/*--------------------------------*- C++ -*----------------------------------*\
| =========                 |                                                 |
| \\      /  F ield         | OpenFOAM: The Open Source CFD Toolbox           |
|  \\    /   O peration     | Version:  2406                                  |
|   \\  /    A nd           | Website:  www.openfoam.com                      |
|    \\/     M anipulation  |                                                 |
\*---------------------------------------------------------------------------*/
FoamFile
{
    version     2.0;
    format      ascii;
    arch        "LSB;label=32;scalar=64";
    class       surfaceScalarField;
    location    "50";
    object      phi;
}
// * * * * * * * * * * * * * * * * * * * * * * * * * * * * * * * * * * * * * //

dimensions      [0 3 -1 0 0 0 0];

oriented        oriented;

internalField   nonuniform List<scalar> 
2279
(
2.3617528e-08
1.0148926e-05
2.0509774e-07
4.982375e-05
6.9331778e-07
0.00014252872
1.5784718e-06
0.00034353082
2.678848e-06
0.00075378089
3.3472916e-06
0.0015415573
3.0435201e-06
0.0029497096
2.1516839e-06
0.005249171
1.431803e-06
0.008582269
9.8959022e-07
0.012685995
5.1266378e-07
0.016666385
-7.0145852e-12
0.01918202
-5.1268075e-07
0.01918202
-9.8962019e-07
0.016666385
-1.4318641e-06
0.012685995
-2.1517806e-06
0.0085822691
-3.0436615e-06
0.0052491711
-3.3474811e-06
0.0029497098
-2.6790718e-06
0.0015415575
-1.5786931e-06
0.00075378099
-6.9350205e-07
0.00034353087
-2.0521719e-07
0.00014252874
-2.3672364e-08
4.9823755e-05
1.0148928e-05
-9.524845e-08
1.0244175e-05
-5.3794004e-07
5.0266441e-05
-1.6230011e-06
0.00014361378
-3.5389524e-06
0.00034544677
-5.9201866e-06
0.00075616213
-7.4055026e-06
0.0015430426
-6.5847276e-06
0.0029488888
-3.9361603e-06
0.0052465224
-1.3883902e-06
0.0085797213
-6.5121403e-08
0.012684671
2.4240227e-07
0.016666078
-7.0618505e-12
0.019182263
-2.4241228e-07
0.019182263
6.5130482e-08
0.016666078
1.3884483e-06
0.012684671
3.9362946e-06
0.0085797212
6.5849435e-06
0.0052465223
7.4057596e-06
0.0029488887
5.9204204e-06
0.0015430425
3.5391135e-06
0.00075616206
1.6230877e-06
0.00034544674
5.3797501e-07
0.00014361376
9.5254596e-08
5.0266434e-05
1.0244173e-05
5.0139854e-08
1.0194035e-05
2.6334501e-07
5.0053236e-05
7.4910721e-07
0.00014312802
1.5314584e-06
0.00034466442
2.3366557e-06
0.00075535693
2.5476619e-06
0.0015428316
1.8390961e-06
0.0029495974
9.7567445e-07
0.0052473858
6.7695707e-07
0.00858002
6.7178252e-07
0.012684677
4.8415501e-07
0.016666266
-1.686205e-11
0.019182747
-4.8419247e-07
0.019182747
-6.7182821e-07
0.016666266
-6.7700557e-07
0.012684677
-9.7573055e-07
0.00858002
-1.8391552e-06
0.0052473859
-2.547708e-06
0.0029495974
-2.3366807e-06
0.0015428316
-1.5314666e-06
0.00075535694
-7.4910472e-07
0.00034466442
-2.6333946e-07
0.00014312802
-5.0135309e-08
5.0053236e-05
1.0194035e-05
1.9586723e-08
1.0174448e-05
1.1184927e-07
4.9960974e-05
3.6128434e-07
0.00014287858
9.0504792e-07
0.00034412066
1.8716603e-06
0.00075439032
3.0948242e-06
0.0015416085
3.898725e-06
0.0029487935
3.7285563e-06
0.005247556
2.9242121e-06
0.0085808243
1.9733764e-06
0.012685627
1.0127735e-06
0.016667226
6.0015354e-12
0.01918376
-1.0127592e-06
0.01918376
-1.9733569e-06
0.016667226
-2.9241928e-06
0.012685627
-3.7285447e-06
0.0085808243
-3.8987257e-06
0.005247556
-3.0948381e-06
0.0029487935
-1.8716833e-06
0.0015416085
-9.0506852e-07
0.00075439032
-3.6129691e-07
0.00034412066
-1.1185458e-07
0.00014287858
-1.9587839e-08
4.9960973e-05
1.0174448e-05
8.0838988e-09
1.0166364e-05
4.714139e-08
4.9921916e-05
1.5494678e-07
0.00014277078
3.9846306e-07
0.00034387714
8.7979466e-07
0.00075390898
1.7015166e-06
0.0015407867
2.7512759e-06
0.0029477437
3.4623626e-06
0.0052468449
3.4708633e-06
0.0085808158
2.8006883e-06
0.012686298
1.5505171e-06
0.016668476
2.8133748e-12
0.01918531
-1.5505116e-06
0.01918531
-2.8006828e-06
0.016668476
-3.4708565e-06
0.012686298
-3.462358e-06
0.0085808158
-2.751271e-06
0.0052468449
-1.7015119e-06
0.0029477437
-8.7979129e-07
0.0015407867
-3.984591e-07
0.00075390898
-1.5494061e-07
0.00034387714
-4.713535e-08
0.00014277078
-8.0801265e-09
4.9921916e-05
1.0166364e-05
4.9358306e-09
1.0161429e-05
2.8698764e-08
4.9898153e-05
9.5121303e-08
0.00014270436
2.4921416e-07
0.00034372305
5.6360914e-07
0.00075359459
1.1213746e-06
0.001540229
1.9184572e-06
0.0029469467
2.6588205e-06
0.0052461046
2.893059e-06
0.0085805816
2.478767e-06
0.012686712
1.4344276e-06
0.016669521
3.5183279e-12
0.019186745
-1.4344202e-06
0.019186745
-2.4787595e-06
0.016669521
-2.8930548e-06
0.012686712
-2.6588224e-06
0.0085805816
-1.9184682e-06
0.0052461046
-1.1213939e-06
0.0029469467
-5.6362868e-07
0.001540229
-2.4922521e-07
0.00075359459
-9.5122391e-08
0.00034372305
-2.8695237e-08
0.00014270436
-4.9323033e-09
4.9898153e-05
1.0161429e-05
4.4123171e-09
1.0157016e-05
2.5525585e-08
4.987704e-05
8.3829971e-08
0.00014264605
2.168939e-07
0.00034358998
4.8450065e-07
0.00075332698
9.5635993e-07
0.0015397571
1.6413722e-06
0.0029462616
2.3245806e-06
0.0052454214
2.5939513e-06
0.0085803122
2.2393613e-06
0.012687066
1.306673e-06
0.016670453
1.8292181e-12
0.019188051
-1.3066686e-06
0.019188051
-2.2393564e-06
0.016670453
-2.5939493e-06
0.012687066
-2.3245841e-06
0.0085803122
-1.6413855e-06
0.0052454214
-9.5638134e-07
0.0029462616
-4.8452167e-07
0.0015397571
-2.1690638e-07
0.00075332698
-8.3832507e-08
0.00034358999
-2.5523119e-08
0.00014264605
-4.4093395e-09
4.987704e-05
1.0157016e-05
3.6254847e-09
1.0153391e-05
2.1036475e-08
4.9859629e-05
6.9437928e-08
0.00014259765
1.8114117e-07
0.00034347828
4.0971377e-07
0.00075309841
8.2390273e-07
0.0015393429
1.4539905e-06
0.0029456316
2.1430729e-06
0.0052447323
2.4674701e-06
0.0085799878
2.1883905e-06
0.012687346
1.2866407e-06
0.016671355
4.3350932e-13
0.019189338
-1.2866392e-06
0.019189338
-2.1883883e-06
0.016671355
-2.4674696e-06
0.012687346
-2.1430769e-06
0.0085799878
-1.4540032e-06
0.0052447323
-8.2392273e-07
0.0029456316
-4.0973307e-07
0.0015393429
-1.8115231e-07
0.00075309841
-6.9439735e-08
0.00034347828
-2.103374e-08
0.00014259765
-3.6224784e-09
4.9859629e-05
1.0153391e-05
2.9830571e-09
1.0150408e-05
1.7346849e-08
4.9845265e-05
5.7377066e-08
0.00014255762
1.5007353e-07
0.00034338558
3.4097064e-07
0.00075290751
6.9193084e-07
0.001538992
1.2441071e-06
0.0029450794
1.9041836e-06
0.0052440722
2.3015976e-06
0.0085795904
2.097505e-06
0.01268755
1.252008e-06
0.016672201
-4.3688459e-13
0.01919059
-1.252008e-06
0.01919059
-2.0975037e-06
0.016672201
-2.3015972e-06
0.01268755
-1.9041877e-06
0.0085795904
-1.2441202e-06
0.0052440722
-6.9195115e-07
0.0029450794
-3.409901e-07
0.001538992
-1.5008477e-07
0.00075290751
-5.7379012e-08
0.00034338559
-1.7344266e-08
0.00014255762
-2.9801535e-09
4.9845265e-05
1.0150408e-05
2.4653384e-09
1.0147942e-05
1.4362958e-08
4.9833367e-05
4.762629e-08
0.00014252436
1.2502851e-07
0.00034330818
2.8558874e-07
0.00075274695
5.8417902e-07
0.0015386934
1.0641835e-06
0.0029445994
1.6641563e-06
0.0052434722
2.0898723e-06
0.0085791647
1.952892e-06
0.012687687
1.1802427e-06
0.016672973
-2.2328679e-13
0.01919177
-1.1802423e-06
0.01919177
-1.9528903e-06
0.016672973
-2.0898712e-06
0.012687687
-1.66416e-06
0.0085791647
-1.0641961e-06
0.0052434722
-5.8419866e-07
0.0029445994
-2.8560758e-07
0.0015386934
-1.2503942e-07
0.00075274695
-4.7628244e-08
0.00034330818
-1.4360535e-08
0.00014252436
-2.4625803e-09
4.9833367e-05
1.0147942e-05
2.1023629e-09
1.014584e-05
1.2257926e-08
4.9823212e-05
4.0688149e-08
0.00014249593
1.0699022e-07
0.00034324188
2.4507863e-07
0.00075260886
5.0385317e-07
0.0015384346
9.2623472e-07
0.002944177
1.4715107e-06
0.0052429269
1.8909071e-06
0.0085787453
1.8050209e-06
0.012687772
1.1036888e-06
0.016673675
2.6816202e-13
0.019192874
-1.1036876e-06
0.019192874
-1.8050185e-06
0.016673675
-1.8909052e-06
0.012687772
-1.4715135e-06
0.0085787453
-9.2624625e-07
0.0052429269
-5.0387162e-07
0.002944177
-2.4509639e-07
0.0015384346
-1.0700045e-07
0.00075260886
-4.0689908e-08
0.00034324188
-1.2255575e-08
0.00014249593
-2.09973e-09
4.9823212e-05
1.014584e-05
1.8281543e-09
1.0144011e-05
1.0665384e-08
4.9814374e-05
3.5430252e-08
0.00014247116
9.3283159e-08
0.00034318403
2.1413959e-07
0.00075248801
4.4192822e-07
0.0015382068
8.1811421e-07
0.0029438008
1.316381e-06
0.0052424287
1.7244936e-06
0.0085783372
1.678042e-06
0.012687819
1.037804e-06
0.016674315
7.0823432e-13
0.019193912
-1.0378019e-06
0.019193912
-1.6780387e-06
0.016674315
-1.7244906e-06
0.012687819
-1.3163826e-06
0.0085783372
-8.1812446e-07
0.0052424287
-4.4194526e-07
0.0029438008
-2.1415608e-07
0.0015382068
-9.3292601e-08
0.00075248801
-3.5431794e-08
0.00034318403
-1.0663136e-08
0.00014247116
-1.8256801e-09
4.9814374e-05
1.0144011e-05
1.6104126e-09
1.0142401e-05
9.3995698e-09
4.9806585e-05
3.1244405e-08
0.00014244932
8.2340641e-08
0.00034313293
1.893213e-07
0.00075238103
3.9182403e-07
0.0015380043
7.2924273e-07
0.0029434634
1.1851467e-06
0.0052419728
1.5781758e-06
0.0085779441
1.5623392e-06
0.012687835
9.7669808e-07
0.0166749
9.3569352e-13
0.019194888
-9.7669546e-07
0.019194888
-1.5623351e-06
0.0166749
-1.5781717e-06
0.012687835
-1.1851471e-06
0.0085779441
-7.292515e-07
0.0052419728
-3.9183932e-07
0.0029434634
-1.8933616e-07
0.0015380043
-8.2349082e-08
0.00075238103
-3.1245697e-08
0.00034313293
-9.3974753e-09
0.00014244932
-1.6081531e-09
4.9806585e-05
1.0142401e-05
1.432239e-09
1.0140969e-05
8.3629335e-09
4.9799654e-05
2.7812639e-08
0.00014242987
7.3353106e-08
0.00034308739
1.6886957e-07
0.00075228551
3.5026933e-07
0.0015378229
6.5458474e-07
0.0029431591
1.0720609e-06
0.0052415553
1.4464346e-06
0.0085775698
1.4548765e-06
0.012687826
9.1880956e-07
0.016675437
9.4980799e-13
0.019195807
-9.1880679e-07
0.019195807
-1.4548718e-06
0.016675437
-1.4464297e-06
0.012687826
-1.0720603e-06
0.0085775698
-6.5459198e-07
0.0052415553
-3.5028257e-07
0.0029431591
-1.6888247e-07
0.0015378229
-7.336034e-08
0.00075228551
-2.7813656e-08
0.00034308739
-8.3610598e-09
0.00014242987
-1.4302621e-09
4.9799655e-05
1.0140969e-05
1.2849278e-09
1.0139684e-05
7.5050026e-09
4.9793434e-05
2.4968892e-08
0.0001424124
6.5891499e-08
0.00034304647
1.5183895e-07
0.00075219956
3.1548687e-07
0.0015376593
5.9149863e-07
0.0029428831
9.7478898e-07
0.005241172
1.3297061e-06
0.0085772149
1.3567876e-06
0.012687799
8.6525211e-07
0.016675928
8.5157725e-13
0.019196672
-8.6524945e-07
0.019196672
-1.3567829e-06
0.016675928
-1.329701e-06
0.012687799
-9.7478777e-07
0.0085772149
-5.9150433e-07
0.005241172
-3.1549779e-07
0.0029428831
-1.5184955e-07
0.0015376593
-6.5897341e-08
0.00075219956
-2.4969636e-08
0.00034304647
-7.5034333e-09
0.0001424124
-1.283309e-09
4.9793434e-05
1.0139684e-05
1.1614123e-09
1.0138522e-05
6.785126e-09
4.9787811e-05
2.2580504e-08
0.00014239661
5.9615772e-08
0.00034300943
1.3748198e-07
0.0007521217
2.8604814e-07
0.0015375107
5.3771298e-07
0.0029426314
8.9070802e-07
0.005240819
1.2263991e-06
0.0085768792
1.2674902e-06
0.012687758
8.1592677e-07
0.01667638
7.0044766e-13
0.019197488
-8.1592441e-07
0.019197488
-1.2674858e-06
0.01667638
-1.2263943e-06
0.012687758
-8.9070644e-07
0.0085768792
-5.3771708e-07
0.005240819
-2.8605642e-07
0.0029426314
-1.3748996e-07
0.0015375107
-5.9620057e-08
0.0007521217
-2.2580984e-08
0.00034300944
-6.7839398e-09
0.00014239661
-1.1602199e-09
4.9787811e-05
1.0138522e-05
1.0560707e-09
1.0137466e-05
6.1708949e-09
4.9782696e-05
2.0541368e-08
0.00014238224
5.4252432e-08
0.00034297572
1.2519153e-07
0.00075205076
2.6076923e-07
0.0015373751
4.9125335e-07
0.0029424009
8.1722677e-07
0.005240493
1.1341847e-06
0.0085765622
1.1857909e-06
0.012687707
7.7021472e-07
0.016676795
5.2567626e-13
0.019198259
-7.702128e-07
0.019198259
-1.1857872e-06
0.016676795
-1.1341805e-06
0.012687707
-8.1722499e-07
0.0085765622
-4.9125575e-07
0.005240493
-2.6077461e-07
0.0029424009
-1.2519664e-07
0.0015373751
-5.4255048e-08
0.00075205076
-2.0541598e-08
0.00034297572
-6.1701513e-09
0.00014238224
-1.0553527e-09
4.9782696e-05
1.0137466e-05
9.6506756e-10
1.0136501e-05
5.6400695e-09
4.9778021e-05
1.8778255e-08
0.0001423691
4.9611468e-08
0.00034294489
1.1454222e-07
0.00075198583
2.388119e-07
0.0015372509
4.5070514e-07
0.002942189
7.5248386e-07
0.0052401913
1.0515004e-06
0.0085762632
1.1108316e-06
0.012687647
7.2768841e-07
0.016677178
3.4866048e-13
0.019198986
-7.2768701e-07
0.019198986
-1.1108287e-06
0.016677178
-1.051497e-06
0.012687647
-7.5248192e-07
0.0085762632
-4.5070576e-07
0.0052401913
-2.3881424e-07
0.002942189
-1.1454435e-07
0.0015372509
-4.9612389e-08
0.00075198583
-1.877826e-08
0.00034294489
-5.6397999e-09
0.0001423691
-9.6484276e-10
4.9778021e-05
1.0136501e-05
8.8572316e-10
1.0135615e-05
5.1770865e-09
4.9773729e-05
1.7239784e-08
0.00014235704
4.5559015e-08
0.00034291657
1.0523259e-07
0.00075192616
2.1957706e-07
0.0015371365
4.1504291e-07
0.0029419936
6.9508961e-07
0.0052399112
9.7709422e-07
0.0085759812
1.041867e-06
0.012687582
6.8800462e-07
0.016677532
1.8682881e-13
0.019199674
-6.8800376e-07
0.019199674
-1.041865e-06
0.016677532
-9.7709169e-07
0.012687582
-6.9508755e-07
0.0085759812
-4.1504177e-07
0.0052399112
-2.195764e-07
0.0029419936
-1.0523183e-07
0.0015371365
-4.5558323e-08
0.00075192616
-1.7239602e-08
0.00034291657
-5.1772879e-09
0.00014235704
-8.8597628e-10
4.9773729e-05
1.0135615e-05
8.1594173e-10
1.0134799e-05
4.7697843e-09
4.9769775e-05
1.5885833e-08
0.00014234592
4.1990555e-08
0.00034289047
9.7026977e-08
0.00075187112
2.0259385e-07
0.0015370309
3.8344908e-07
0.0029418127
6.4389556e-07
0.0052396508
9.0984228e-07
0.0085757152
9.7823522e-07
0.012687514
6.5086571e-07
0.01667786
4.386547e-14
0.019200325
-6.5086535e-07
0.019200325
-9.782342e-07
0.01667786
-9.0984063e-07
0.012687514
-6.4389345e-07
0.0085757152
-3.8344635e-07
0.0052396508
-2.0259043e-07
0.0029418127
-9.7023598e-08
0.0015370309
-4.1988441e-08
0.00075187112
-1.5885509e-08
0.00034289047
-4.7704185e-09
0.00014234592
-8.1662299e-10
4.9769776e-05
1.0134799e-05
7.5407349e-10
1.0134045e-05
4.4085769e-09
4.9766121e-05
1.468474e-08
0.00014233564
3.8823475e-08
0.00034286633
8.9738542e-08
0.00075182021
1.8748698e-07
0.0015369332
3.5526522e-07
0.0029416449
5.979578e-07
0.0052394081
8.4878754e-07
0.0085754644
9.1936578e-07
0.012687443
6.1600981e-07
0.016678163
-7.6887644e-14
0.019200941
-6.1600991e-07
0.019200941
-9.193656e-07
0.016678163
-8.4878672e-07
0.012687443
-5.9795573e-07
0.0085754644
-3.5526118e-07
0.0052394081
-1.8748128e-07
0.0029416449
-8.9733015e-08
0.0015369332
-3.8820232e-08
0.00075182021
-1.4684331e-08
0.00034286633
-4.4095735e-09
0.00014233564
-7.5510173e-10
4.9766121e-05
1.0134045e-05
6.9883047e-10
1.0133346e-05
4.0859702e-09
4.9762734e-05
1.3611713e-08
0.00014232612
3.5992939e-08
0.00034284395
8.3220168e-08
0.00075177298
1.7395932e-07
0.0015368425
3.2996476e-07
0.0029414889
5.565065e-07
0.0052391815
7.9311957e-07
0.0085752278
8.6476717e-07
0.012687372
5.8323092e-07
0.016678444
-1.7313141e-13
0.019201524
-5.832314e-07
0.019201524
-8.647677e-07
0.016678444
-7.9311951e-07
0.012687372
-5.5650456e-07
0.0085752278
-3.299598e-07
0.0052391815
-1.7395196e-07
0.0029414889
-8.3213127e-08
0.0015368425
-3.5988947e-08
0.00075177298
-1.3611283e-08
0.00034284395
-4.0872327e-09
0.00014232612
-7.0009829e-10
4.9762734e-05
1.0133346e-05
6.4919696e-10
1.0132697e-05
3.7960511e-09
4.9759587e-05
1.2647174e-08
0.00014231727
3.3447673e-08
0.00034282315
7.7355251e-08
0.00075172907
1.6177448e-07
0.001536758
3.071261e-07
0.0029413436
5.1891843e-07
0.0052389697
7.4217154e-07
0.0085750045
8.1401284e-07
0.0126873
5.5234192e-07
0.016678706
-2.4778606e-13
0.019202077
-5.5234269e-07
0.019202077
-8.1401394e-07
0.016678706
-7.421721e-07
0.0126873
-5.1891671e-07
0.0085750045
-3.0712069e-07
0.0052389697
-1.6176624e-07
0.0029413436
-7.7347463e-08
0.001536758
-3.3443389e-08
0.00075172907
-1.2646797e-08
0.00034282315
-3.7974636e-09
0.00014231727
-6.505766e-10
4.9759587e-05
1.0132697e-05
6.0435859e-10
1.0132092e-05
3.5340795e-09
4.9756657e-05
1.1775419e-08
0.00014230903
3.1146514e-08
0.00034280378
7.2050006e-08
0.00075168817
1.507417e-07
0.0015366793
2.864068e-07
0.0029412079
4.8468039e-07
0.0052387715
6.9537939e-07
0.0085747938
7.6674281e-07
0.012687229
5.2320407e-07
0.01667895
-2.8932973e-13
0.0192026
-5.2320501e-07
0.0192026
-7.6674428e-07
0.01667895
-6.9538043e-07
0.012687229
-4.84679e-07
0.0085747938
-2.8640148e-07
0.0052387715
-1.5073346e-07
0.0029412079
-7.2042348e-08
0.0015366793
-3.1142455e-08
0.00075168817
-1.1775181e-08
0.00034280378
-3.5355129e-09
0.00014230903
-6.057074e-10
4.9756657e-05
1.0132092e-05
5.6365575e-10
1.0131528e-05
3.2962178e-09
4.9753924e-05
1.0983733e-08
0.00014230134
2.9056108e-08
0.0003427857
6.7228358e-08
0.00075165
1.4070592e-07
0.0015366059
2.6752743e-07
0.0029410811
4.533709e-07
0.0052385856
6.5227421e-07
0.0085745949
7.2263519e-07
0.012687158
4.9567379e-07
0.016679177
-2.9117283e-13
0.019203096
-4.9567476e-07
0.019203096
-7.2263679e-07
0.016679177
-6.5227552e-07
0.012687158
-4.5336992e-07
0.0085745949
-2.6752275e-07
0.0052385856
-1.4069864e-07
0.0029410811
-6.7221792e-08
0.0015366059
-2.9052844e-08
0.00075165
-1.0983733e-08
0.0003427857
-3.2975351e-09
0.00014230134
-5.6482042e-10
4.9753924e-05
1.0131528e-05
5.2654778e-10
1.0131002e-05
3.079322e-09
4.9751372e-05
1.0261695e-08
0.00014229416
2.7149104e-08
0.00034276882
6.2827831e-08
0.00075161432
1.3153945e-07
0.0015365372
2.5025663e-07
0.0029409624
4.2463639e-07
0.0052384112
6.1245186e-07
0.0085744071
6.8142216e-07
0.012687089
4.6965716e-07
0.016679388
-2.2514464e-13
0.019203565
-4.6965796e-07
0.019203565
-6.814236e-07
0.016679388
-6.1245317e-07
0.012687089
-4.2463589e-07
0.0085744071
-2.5025321e-07
0.0052384112
-1.3153418e-07
0.0029409624
-6.2823392e-08
0.0015365372
-2.7147246e-08
0.00075161432
-1.0262042e-08
0.00034276882
-3.0803813e-09
0.00014229416
-5.2736715e-10
4.9751371e-05
1.0131002e-05
4.9258858e-10
1.0130509e-05
2.8807988e-09
4.9748983e-05
9.600712e-09
0.00014228744
2.5402937e-08
0.00034275301
5.8796864e-08
0.00075158092
1.2313683e-07
0.0015364728
2.3440298e-07
0.0029408511
3.9818392e-07
0.0052382475
5.7557584e-07
0.0085742297
6.4285157e-07
0.012687022
4.4503284e-07
0.016679586
-6.6419388e-14
0.01920401
-4.4503324e-07
0.01920401
-6.4285252e-07
0.016679586
-5.7557686e-07
0.012687022
-3.9818394e-07
0.0085742297
-2.3440147e-07
0.0052382475
-1.2313467e-07
0.0029408511
-5.8795649e-08
0.0015364728
-2.5403137e-08
0.00075158092
-9.6015267e-09
0.00034275301
-2.8814546e-09
0.00014228744
-4.9289503e-10
4.9748983e-05
1.0130509e-05
4.6140524e-10
1.0130048e-05
2.6984814e-09
4.9746746e-05
8.9935979e-09
0.00014228114
2.3798726e-08
0.00034273821
5.5092251e-08
0.00075154963
1.1540945e-07
0.0015364125
2.1980475e-07
0.0029407467
3.7376214e-07
0.0052380935
5.4134867e-07
0.0085740621
6.0672324e-07
0.012686957
4.2174133e-07
0.016679771
2.1186436e-13
0.019204432
-4.2174103e-07
0.019204432
-6.0672329e-07
0.016679771
-5.4134907e-07
0.012686957
-3.7376272e-07
0.0085740621
-2.198058e-07
0.0052380935
-1.1541156e-07
0.0029407467
-5.5095412e-08
0.0015364125
-2.3801671e-08
0.00075154963
-8.9950113e-09
0.00034273821
-2.6985849e-09
0.00014228114
-4.6102502e-10
4.9746746e-05
1.0130048e-05
4.3268424e-10
1.0129615e-05
2.5305464e-09
4.9744649e-05
8.4343085e-09
0.00014227524
2.2320598e-08
0.00034272432
5.1677688e-08
0.00075152027
1.0828289e-07
0.0015363559
2.0632619e-07
0.0029406486
3.5116102e-07
0.0052379487
5.0952224e-07
0.0085739038
5.7282939e-07
0.012686893
3.9966809e-07
0.016679944
6.3004396e-13
0.019204832
-3.9966675e-07
0.019204832
-5.7282812e-07
0.016679944
-5.0952164e-07
0.012686893
-3.511622e-07
0.0085739038
-2.063305e-07
0.0052379487
-1.0829047e-07
0.0029406486
-5.1686432e-08
0.0015363559
-2.2327009e-08
0.00075152027
-8.4364605e-09
0.00034272432
-2.5299443e-09
0.00014227524
-4.3143689e-10
4.9744648e-05
1.0129615e-05
4.061595e-10
1.0129209e-05
2.3754481e-09
4.9742679e-05
7.9177152e-09
0.0001422697
2.0955058e-08
0.00034271129
4.8522224e-08
0.0007514927
1.0169345e-07
0.0015363027
1.9385029e-07
0.0029405565
3.3019601e-07
0.0052378123
4.7987153e-07
0.0085737541
5.4102342e-07
0.012686832
3.7878532e-07
0.016680107
1.2050041e-12
0.01920521
-3.7878259e-07
0.01920521
-5.4102037e-07
0.016680107
-4.7986954e-07
0.012686832
-3.3019782e-07
0.0085737541
-1.9385857e-07
0.0052378123
-1.0170776e-07
0.0029405565
-4.853781e-08
0.0015363027
-2.0965687e-08
0.0007514927
-7.9207531e-09
0.00034271128
-2.373981e-09
0.00014226969
-4.0385682e-10
4.9742679e-05
1.0129209e-05
3.8160287e-10
1.0128828e-05
2.2318567e-09
4.9740829e-05
7.4394081e-09
0.00014226449
1.969053e-08
0.00034269903
4.5599398e-08
0.0007514668
9.5586841e-08
0.0015362527
1.8227765e-07
0.0029404698
3.1071193e-07
0.0052376839
4.522081e-07
0.0085736126
5.1112211e-07
0.012686773
3.589718e-07
0.016680259
1.9522482e-12
0.019205569
-3.589673e-07
0.019205569
-5.111168e-07
0.016680259
-4.5220431e-07
0.012686773
-3.107144e-07
0.0085736126
-1.8229066e-07
0.0052376839
-9.5609206e-08
0.0029404698
-4.5623142e-08
0.0015362527
-1.9706167e-08
0.00075146679
-7.443488e-09
0.00034269903
-2.229359e-09
0.00014226449
-3.7804811e-10
4.9740828e-05
1.0128827e-05
3.5881989e-10
1.0128469e-05
2.0986435e-09
4.9739089e-05
6.9956389e-09
0.00014225959
1.8517123e-08
0.00034268751
4.2886437e-08
0.00075144243
8.9915997e-08
0.0015362057
1.7152128e-07
0.0029403882
2.9256983e-07
0.0052375628
4.2635914e-07
0.0085734788
4.8302769e-07
0.012686717
3.4023541e-07
0.016680402
2.7475692e-12
0.01920591
-3.4022881e-07
0.01920591
-4.8301964e-07
0.016680402
-4.2635312e-07
0.012686717
-2.9257299e-07
0.0085734788
-1.7153979e-07
0.0052375628
-8.9947781e-08
0.0029403882
-4.2919715e-08
0.0015362057
-1.8538592e-08
0.00075144242
-7.0009215e-09
0.00034268751
-2.0949393e-09
0.00014225959
-3.538058e-10
4.9739088e-05
1.0128469e-05
3.3763823e-10
1.0128131e-05
1.9747998e-09
4.9737452e-05
6.5830611e-09
0.00014225498
1.7426076e-08
0.00034267667
4.0363385e-08
0.00075141949
8.4640039e-08
0.0015361614
1.6150611e-07
0.0029403113
2.7565132e-07
0.0052374487
4.0217552e-07
0.0085733523
4.5656289e-07
0.012686662
3.2243359e-07
0.016680536
3.7659842e-12
0.019206232
-3.224245e-07
0.019206232
-4.5655159e-07
0.016680536
-4.0216685e-07
0.012686662
-2.7565519e-07
0.0085733523
-1.6153092e-07
0.0052374487
-8.4682674e-08
0.0029403113
-4.0407633e-08
0.0015361614
-1.7454238e-08
0.00075141948
-6.5897108e-09
0.00034267667
-1.9697017e-09
0.00014225498
-3.3094581e-10
4.9737451e-05
1.0128131e-05
3.1791485e-10
1.0127813e-05
1.8594998e-09
4.9735911e-05
6.19893e-09
0.00014225064
1.6410095e-08
0.00034266646
3.8013286e-08
0.00075139789
7.9723616e-08
0.0015361197
1.5216644e-07
0.0029402389
2.5985088e-07
0.005237341
3.7952658e-07
0.0085732326
4.3168298e-07
0.01268661
3.0562086e-07
0.016680662
4.9221988e-12
0.019206538
-3.0560894e-07
0.019206538
-4.3166796e-07
0.016680662
-3.7951482e-07
0.01268661
-2.5985552e-07
0.0085732326
-1.5219841e-07
0.005237341
-7.9778612e-08
0.0029402389
-3.8070024e-08
0.0015361197
-1.6445864e-08
0.00075139788
-6.2071281e-09
0.00034266646
-1.8528159e-09
0.00014225064
-3.0931599e-10
4.973591e-05
1.0127813e-05
2.9951247e-10
1.0127514e-05
1.7519314e-09
4.9734458e-05
5.8405523e-09
0.00014224655
1.5462193e-08
0.00034265684
3.5820417e-08
0.00075137753
7.5134789e-08
0.0015360804
1.4344337e-07
0.0029401706
2.4507365e-07
0.0052372394
3.5828459e-07
0.0085731194
4.0819428e-07
0.01268656
2.8961382e-07
0.01668078
6.1478317e-12
0.019206827
-2.895988e-07
0.019206827
-4.081751e-07
0.01668078
-3.5826932e-07
0.01268656
-2.4507911e-07
0.0085731194
-1.4348341e-07
0.0052372394
-7.520372e-08
0.0029401706
-3.5891222e-08
0.0015360804
-1.5506508e-08
0.00075137752
-5.8504721e-09
0.00034265683
-1.7434496e-09
0.00014224655
-2.887633e-10
4.9734457e-05
1.0127514e-05
2.8233108e-10
1.0127232e-05
1.6515306e-09
4.9733089e-05
5.5060473e-09
0.0001422427
1.4577254e-08
0.00034264777
3.3772514e-08
0.00075135833
7.084739e-08
0.0015360433
1.3528812e-07
0.0029401061
2.3124268e-07
0.0052371434
3.3836145e-07
0.0085730123
3.8612129e-07
0.012686512
2.7453379e-07
0.016680892
7.4161703e-12
0.019207102
-2.7451548e-07
0.019207102
-3.8609754e-07
0.016680892
-3.3834227e-07
0.012686512
-2.3124906e-07
0.0085730123
-1.353372e-07
0.0052371434
-7.0931923e-08
0.0029401061
-3.385904e-08
0.0015360433
-1.4631092e-08
0.00075135833
-5.5178623e-09
0.00034264776
-1.6410236e-09
0.0001422427
-2.6917441e-10
4.9733088e-05
1.0127231e-05
2.6624929e-10
1.0126965e-05
1.5575608e-09
4.9731798e-05
5.1929783e-09
0.00014223906
1.3749105e-08
0.00034263921
3.1856165e-08
0.00075134023
6.6834866e-08
0.0015360084
1.2765132e-07
0.0029400453
2.18274e-07
0.0052370528
3.1962917e-07
0.0085729109
3.6522158e-07
0.012686467
2.6012837e-07
0.016680997
8.7013991e-12
0.019207362
-2.6010663e-07
0.019207362
-3.6519292e-07
0.016680997
-3.1960574e-07
0.012686467
-2.1828145e-07
0.0085729109
-1.2771048e-07
0.0052370528
-6.6936787e-08
0.0029400453
-3.1960195e-08
0.0015360083
-1.3813545e-08
0.00075134022
-5.2069202e-09
0.00034263921
-1.5448243e-09
0.00014223906
-2.5043181e-10
4.9731796e-05
1.0126965e-05
2.5121687e-10
1.0126714e-05
1.4697745e-09
4.9730579e-05
4.9005038e-09
0.00014223563
1.2975129e-08
0.00034263114
3.0064095e-08
0.00075132314
6.3080185e-08
0.0015359753
1.205012e-07
0.0029399879
2.0612323e-07
0.0052369672
3.0205802e-07
0.008572815
3.4562386e-07
0.012686423
2.4661943e-07
0.016681096
9.9241093e-12
0.019207609
-2.4659424e-07
0.019207609
-3.4559002e-07
0.016681096
-3.0203004e-07
0.012686423
-2.0613194e-07
0.008572815
-1.2057153e-07
0.0052369672
-6.3201279e-08
0.0029399879
-3.018737e-08
0.0015359753
-1.3051169e-08
0.00075132313
-4.9167159e-09
0.00034263113
-1.4545388e-09
0.00014223563
-2.3245358e-10
4.9730578e-05
1.0126714e-05
2.3709982e-10
1.0126477e-05
1.3873208e-09
4.9729429e-05
4.6258246e-09
0.0001422324
1.2248565e-08
0.00034262351
2.8382678e-08
0.00075130701
5.9558069e-08
0.0015359442
1.1379019e-07
0.0029399337
1.947e-07
0.0052368863
2.8548505e-07
0.0085727242
3.2698545e-07
0.012686382
2.3364315e-07
0.016681189
1.1064354e-11
0.019207842
-2.3361457e-07
0.019207842
-3.2694628e-07
0.016681189
-2.8545232e-07
0.012686382
-1.9471025e-07
0.0085727242
-1.1387285e-07
0.0052368863
-5.9700213e-08
0.0029399337
-2.8527003e-08
0.0015359441
-1.2337237e-08
0.00075130699
-4.6444647e-09
0.00034262351
-1.3693263e-09
0.00014223239
-2.1511364e-10
4.9729427e-05
1.0126477e-05
2.2393881e-10
1.0126253e-05
1.3105455e-09
4.9728342e-05
4.3700306e-09
0.00014222934
1.1571253e-08
0.00034261631
2.6812909e-08
0.00075129176
5.6265386e-08
0.0015359147
1.0751212e-07
0.0029398824
1.8401337e-07
0.0052368098
2.6998417e-07
0.0085726382
3.0960734e-07
0.012686342
2.215777e-07
0.016681277
1.1978506e-11
0.019208064
-2.2154603e-07
0.019208064
-3.0956281e-07
0.016681277
-2.6994657e-07
0.012686342
-1.8402546e-07
0.0085726383
-1.076083e-07
0.0052368098
-5.6430454e-08
0.0029398824
-2.6980103e-08
0.0015359147
-1.1673622e-08
0.00075129175
-4.3912985e-09
0.00034261631
-1.2895646e-09
0.00014222933
-1.9846077e-10
4.9728341e-05
1.0126252e-05
2.1151415e-10
1.0126041e-05
1.2379992e-09
4.9727316e-05
4.1284038e-09
0.00014222645
1.0932404e-08
0.00034260951
2.5335104e-08
0.00075127736
5.3169516e-08
0.0015358869
1.0160622e-07
0.002939834
1.7393331e-07
0.0052367374
2.5529319e-07
0.0085725569
2.9296337e-07
0.012686304
2.098852e-07
0.01668136
1.2650707e-11
0.019208274
-2.0985081e-07
0.019208274
-2.9291358e-07
0.01668136
-2.5525073e-07
0.012686304
-1.7394758e-07
0.0085725569
-1.0171692e-07
0.0052367374
-5.3358985e-08
0.002939834
-2.5526464e-08
0.0015358868
-1.104906e-08
0.00075127735
-4.1521901e-09
0.0003426095
-1.2136653e-09
0.00014222644
-1.8224754e-10
4.9727314e-05
1.0126041e-05
2.0010671e-10
1.0125841e-05
1.1715842e-09
4.9726344e-05
3.9070506e-09
0.00014222371
1.0345226e-08
0.00034260307
2.3970643e-08
0.00075126374
5.0299685e-08
0.0015358606
9.6122717e-08
0.0029397882
1.6458304e-07
0.005236669
2.416964e-07
0.0085724798
2.7765618e-07
0.012686268
1.9919475e-07
0.016681439
1.283424e-11
0.019208473
-1.9915834e-07
0.019208473
-2.7760136e-07
0.016681439
-2.416491e-07
0.012686268
-1.6459987e-07
0.0085724798
-9.6248963e-08
0.005236669
-5.0515025e-08
0.0029397881
-2.4187443e-08
0.0015358605
-1.0476794e-08
0.00075126372
-3.9333798e-09
0.00034260307
-1.1436857e-09
0.00014222371
-1.6686055e-10
4.9726342e-05
1.0125841e-05
1.8911319e-10
1.0125652e-05
1.107376e-09
4.9725426e-05
3.6933805e-09
0.00014222113
9.7816401e-09
0.00034259698
2.2670828e-08
0.00075125085
4.7582547e-08
0.0015358356
9.0938248e-08
0.0029397448
1.5570952e-07
0.0052366042
2.2870614e-07
0.0085724068
2.62853e-07
0.012686234
1.8871282e-07
0.016681513
1.2522156e-11
0.019208662
-1.886752e-07
0.019208662
-2.6279364e-07
0.016681513
-2.286542e-07
0.012686234
-1.5572923e-07
0.0085724068
-9.1080792e-08
0.0052366042
-4.7824707e-08
0.0029397448
-2.2913766e-08
0.0015358356
-9.9283611e-09
0.00075125084
-3.7221916e-09
0.00034259698
-1.0757924e-09
0.00014222112
-1.5181555e-10
4.9725424e-05
1.0125651e-05
1.7966914e-10
1.0125472e-05
1.0526258e-09
4.9724553e-05
3.5104483e-09
0.00014221867
9.292771e-09
0.0003425912
2.1523571e-08
0.00075123862
4.5147419e-08
0.001535812
8.6258858e-08
0.0029397037
1.477108e-07
0.0052365428
2.1705477e-07
0.0085723374
2.4970546e-07
0.012686202
1.7948994e-07
0.016681583
1.1563276e-11
0.019208841
-1.794523e-07
0.019208841
-2.4964218e-07
0.016681583
-2.1699808e-07
0.012686202
-1.4773285e-07
0.0085723374
-8.6416899e-08
0.0052365428
-4.5414938e-08
0.0029397037
-2.1790293e-08
0.001535812
-9.4520288e-09
0.00075123861
-3.5398062e-09
0.0003425912
-1.0164097e-09
0.00014221867
-1.3808207e-10
4.9724551e-05
1.0125471e-05
1.6848709e-10
1.0125303e-05
9.8759443e-10
4.9723734e-05
3.2970004e-09
0.00014221636
8.7434349e-09
0.00034258576
2.0297003e-08
0.00075122707
4.2667976e-08
0.0015357897
8.1648073e-08
0.0029396647
1.3992968e-07
0.0052364845
2.0572e-07
0.0085722716
2.3675817e-07
0.012686171
1.703105e-07
0.01668165
1.0075311e-11
0.019209011
-1.7027415e-07
0.019209011
-2.3669232e-07
0.01668165
-2.0565893e-07
0.012686171
-1.3995294e-07
0.0085722716
-8.1818985e-08
0.0052364845
-4.295648e-08
0.0029396647
-2.0581822e-08
0.0015357896
-8.9101314e-09
0.00075122706
-3.3241593e-09
0.00034258576
-9.4606865e-10
0.00014221636
-1.2287244e-10
4.9723733e-05
1.0125303e-05
1.6361935e-10
1.0125139e-05
9.5958884e-10
4.9722938e-05
3.1978145e-09