/*--------------------------------*- C++ -*----------------------------------*\
| =========                 |                                                 |
| \\      /  F ield         | OpenFOAM: The Open Source CFD Toolbox           |
|  \\    /   O peration     | Version:  2406                                  |
|   \\  /    A nd           | Website:  www.openfoam.com                      |
|    \\/     M anipulation  |                                                 |
\*---------------------------------------------------------------------------*/
FoamFile
{
    version     2.0;
    format      ascii;
    arch        "LSB;label=32;scalar=64";
    class       volVectorField;
    location    "50";
    object      U;
}
// * * * * * * * * * * * * * * * * * * * * * * * * * * * * * * * * * * * * * //

dimensions      [0 1 -1 0 0 0 0];

internalField   nonuniform List<vector> 
1176
(
(0.019493789 7.0786335e-07 0)
(0.066677318 8.1696651e-06 0)
(0.13357994 3.9503171e-05 0)
(0.22724701 0.00010873577 0)
(0.35591522 0.00021176028 0)
(0.52772023 0.00030396288 0)
(0.74780387 0.0003181802 0)
(1.0136216 0.00024904586 0)
(1.3093323 0.00016666988 0)
(1.6017081 0.00011264662 0)
(1.8421723 7.0213764e-05 0)
(1.9793239 2.3940215e-05 0)
(1.9793239 -2.3941669e-05 0)
(1.8421723 -7.0216004e-05 0)
(1.6017081 -0.00011265111 0)
(1.3093323 -0.00016667799 0)
(1.0136216 -0.00024905871 0)
(0.7478039 -0.00031819908 0)
(0.52772027 -0.00030398712 0)
(0.35591525 -0.00021178474 0)
(0.22724702 -0.00010875708 0)
(0.13357995 -3.9510912e-05 0)
(0.06667732 -8.1838179e-06 0)
(0.01949379 -7.0660583e-07 0)
(0.020187017 -3.7419184e-06 0)
(0.068813532 -2.4638634e-05 0)
(0.13732107 -9.6548551e-05 0)
(0.23247391 -0.0002483946 0)
(0.36204617 -0.00047268782 0)
(0.53373556 -0.00067421186 0)
(0.75267407 -0.00069486948 0)
(1.0170176 -0.00049687376 0)
(1.3116385 -0.00023345933 0)
(1.6034438 -4.982468e-05 0)
(1.8436588 1.9764322e-05 0)
(1.9807026 1.3427148e-05 0)
(1.9807026 -1.3428284e-05 0)
(1.8436588 -1.976435e-05 0)
(1.6034438 4.9827734e-05 0)
(1.3116385 0.00023346862 0)
(1.0170176 0.00049689155 0)
(0.75267407 0.00069489393 0)
(0.53373557 0.00067423731 0)
(0.36204617 0.00047270742 0)
(0.2324739 0.00024840627 0)
(0.13732107 9.6552636e-05 0)
(0.068813527 2.4641536e-05 0)
(0.020187015 3.7417414e-06 0)
(0.020018442 2.0918366e-06 0)
(0.068327405 1.2720778e-05 0)
(0.13655404 4.6877259e-05 0)
(0.23159544 0.00011389739 0)
(0.36138708 0.00019769268 0)
(0.53366969 0.00023903235 0)
(0.75344344 0.0002055981 0)
(1.0184881 0.00011361107 0)
(1.3134639 7.4313399e-05 0)
(1.6053464 7.953248e-05 0)
(1.8455118 7.0515784e-05 0)
(1.9825245 2.7824365e-05 0)
(1.9825245 -2.7827659e-05 0)
(1.8455118 -7.0519632e-05 0)
(1.6053464 -7.9536781e-05 0)
(1.3134639 -7.4318171e-05 0)
(1.0184881 -0.00011361628 0)
(0.75344343 -0.00020560467 0)
(0.53366968 -0.00023903546 0)
(0.36138708 -0.00019769395 0)
(0.23159544 -0.00011389734 0)
(0.13655404 -4.687719e-05 0)
(0.068327404 -1.2719884e-05 0)
(0.020018441 -2.0919281e-06 0)
(0.019966547 7.0076449e-07 0)
(0.068159231 4.6870511e-06 0)
(0.13624021 1.9355444e-05 0)
(0.2311194 5.6456178e-05 0)
(0.36078093 0.00013444567 0)
(0.53306293 0.0002582932 0)
(0.75295637 0.00035344744 0)
(1.0181104 0.00036912003 0)
(1.313184 0.00030758876 0)
(1.6051633 0.00022777248 0)
(1.8453995 0.0001455596 0)
(1.9824491 4.9997589e-05 0)
(1.9824491 -4.9996495e-05 0)
(1.8453995 -0.00014555805 0)
(1.6051633 -0.00022777005 0)
(1.313184 -0.00030758733 0)
(1.0181104 -0.00036911994 0)
(0.75295637 -0.00035344751 0)
(0.53306293 -0.00025829551 0)
(0.36078092 -0.00013444795 0)
(0.23111939 -5.6457703e-05 0)
(0.1362402 -1.9356344e-05 0)
(0.06815923 -4.6871727e-06 0)
(0.019966547 -7.0081572e-07 0)
(0.019942203 2.9076922e-07 0)
(0.068078703 1.987199e-06 0)
(0.13608628 8.2361149e-06 0)
(0.23087699 2.3699317e-05 0)
(0.36044744 5.6881615e-05 0)
(0.53266448 0.00012306884 0)
(0.75256878 0.00022681815 0)
(1.017808 0.00032272218 0)
(1.3129044 0.00034572463 0)
(1.604912 0.00030729984 0)
(1.8452029 0.00021095325 0)
(1.9822898 7.4614733e-05 0)
(1.9822898 -7.4614223e-05 0)
(1.8452029 -0.0002109527 0)
(1.604912 -0.00030729925 0)
(1.3129044 -0.00034572381 0)
(1.017808 -0.00032272198 0)
(0.75256878 -0.00022681739 0)
(0.53266448 -0.00012306824 0)
(0.36044744 -5.6881033e-05 0)
(0.23087699 -2.3698584e-05 0)
(0.13608628 -8.2362299e-06 0)
(0.068078702 -1.9860345e-06 0)
(0.019942203 -2.9094292e-07 0)
(0.019933132 1.7181583e-07 0)
(0.068047755 1.1940683e-06 0)
(0.13602488 5.0651944e-06 0)
(0.23077535 1.4968844e-05 0)
(0.36029898 3.6219518e-05 0)
(0.5324792 7.6944192e-05 0)
(0.75239427 0.00014713764 0)
(1.0177222 0.00023749019 0)
(1.3129292 0.00028525591 0)
(1.6049746 0.0002744149 0)
(1.8452865 0.00019644629 0)
(1.9823834 7.1177212e-05 0)
(1.9823834 -7.1176577e-05 0)
(1.8452865 -0.00019644558 0)
(1.6049746 -0.00027441434 0)
(1.3129292 -0.00028525567 0)
(1.0177222 -0.0002374909 0)
(0.75239427 -0.00014713904 0)
(0.5324792 -7.6945917e-05 0)
(0.36029898 -3.6220819e-05 0)
(0.23077535 -1.4969163e-05 0)
(0.13602488 -5.0656721e-06 0)
(0.068047755 -1.1930797e-06 0)
(0.019933132 -1.7198655e-07 0)
(0.0199234 1.558765e-07 0)
(0.068015506 1.0700676e-06 0)
(0.13596286 4.4934594e-06 0)
(0.23067607 1.3195443e-05 0)
(0.36015773 3.1857088e-05 0)
(0.53230178 6.6958155e-05 0)
(0.75221429 0.00012411874 0)
(1.0176105 0.00019917034 0)
(1.3129358 0.00025490827 0)
(1.6050904 0.00024595159 0)
(1.8454579 0.00018127894 0)
(1.9825798 6.6548637e-05 0)
(1.9825798 -6.6548245e-05 0)
(1.8454579 -0.00018127848 0)
(1.6050904 -0.00024595129 0)
(1.3129358 -0.00025490837 0)
(1.0176105 -0.00019917112 0)
(0.75221429 -0.00012412034 0)
(0.53230178 -6.6960086e-05 0)
(0.36015773 -3.1858572e-05 0)
(0.23067607 -1.3195927e-05 0)
(0.13596286 -4.4939967e-06 0)
(0.068015507 -1.069207e-06 0)
(0.0199234 -1.560338e-07 0)
(0.019915697 1.2758769e-07 0)
(0.067989792 8.7800413e-07 0)
(0.13591293 3.6959939e-06 0)
(0.23059503 1.0901578e-05 0)
(0.36003987 2.6613298e-05 0)
(0.53214753 5.7237015e-05 0)
(0.75204133 0.0001091103 0)
(1.0174723 0.00017936603 0)
(1.3128926 0.00023802451 0)
(1.6051414 0.0002374673 0)
(1.8455877 0.00017750662 0)
(1.9827514 6.5539395e-05 0)
(1.9827514 -6.5539271e-05 0)
(1.8455877 -0.00017750643 0)
(1.6051414 -0.00023746725 0)
(1.3128926 -0.00023802474 0)
(1.0174723 -0.0001793668 0)
(0.75204133 -0.0001091118 0)
(0.53214753 -5.7238777e-05 0)
(0.36003987 -2.6614624e-05 0)
(0.23059503 -1.0901965e-05 0)
(0.13591293 -3.6964869e-06 0)
(0.067989792 -8.7713455e-07 0)
(0.019915697 -1.2774346e-07 0)
(0.019909217 1.0466069e-07 0)
(0.067968141 7.2311711e-07 0)
(0.13587084 3.0520973e-06 0)
(0.23052654 9.0118034e-06 0)
(0.35993984 2.1999833e-05 0)
(0.53201542 4.7473345e-05 0)
(0.75188901 9.2013896e-05 0)
(1.0173341 0.00015618164 0)
(1.3128278 0.00021699647 0)
(1.6051595 0.00022709599 0)
(1.8456699 0.00017232609 0)
(1.982868 6.4147611e-05 0)
(1.982868 -6.4147638e-05 0)
(1.8456699 -0.00017232604 0)
(1.6051595 -0.00022709598 0)
(1.3128278 -0.00021699671 0)
(1.0173341 -0.00015618243 0)
(0.75188901 -9.2015436e-05 0)
(0.53201542 -4.7475139e-05 0)
(0.35993984 -2.2001176e-05 0)
(0.23052654 -9.0122077e-06 0)
(0.13587084 -3.052582e-06 0)
(0.067968141 -7.2228218e-07 0)
(0.019909217 -1.0481102e-07 0)
(0.019903971 8.6130204e-08 0)
(0.067950552 5.9693976e-07 0)
(0.13583649 2.5273751e-06 0)
(0.2304703 7.4915957e-06 0)
(0.35985692 1.837628e-05 0)
(0.53190436 3.9835651e-05 0)
(0.75175836 7.7712076e-05 0)
(1.0172122 0.00013432421 0)
(1.3127613 0.0001932335 0)
(1.6051772 0.00021058327 0)
(1.8457533 0.00016272955 0)
(1.9829863 6.1084197e-05 0)
(1.9829863 -6.1084172e-05 0)
(1.8457533 -0.00016272948 0)
(1.6051772 -0.00021058323 0)
(1.3127613 -0.00019323367 0)
(1.0172122 -0.00013432495 0)
(0.75175836 -7.7713564e-05 0)
(0.53190436 -3.9837392e-05 0)
(0.35985692 -1.8377585e-05 0)
(0.2304703 -7.4919951e-06 0)
(0.13583649 -2.5278421e-06 0)
(0.067950552 -5.9614727e-07 0)
(0.019903971 -8.6273586e-08 0)
(0.019899543 7.3360469e-08 0)
(0.067935688 5.0893906e-07 0)
(0.13580742 2.15689e-06 0)
(0.23042259 6.402758e-06 0)
(0.35978626 1.5747602e-05 0)
(0.5318089 3.4277844e-05 0)
(0.75164409 6.7204615e-05 0)
(1.017102 0.00011722991 0)
(1.3126976 0.00017262456 0)
(1.6051928 0.00019308894 0)
(1.8458371 0.00015219858 0)
(1.9831061 5.7544801e-05 0)
(1.9831061 -5.7544676e-05 0)
(1.8458371 -0.00015219844 0)
(1.6051928 -0.00019308882 0)
(1.3126976 -0.00017262464 0)
(1.017102 -0.00011723056 0)
(0.75164409 -6.7205999e-05 0)
(0.53180889 -3.4279481e-05 0)
(0.35978626 -1.5748828e-05 0)
(0.23042259 -6.4031271e-06 0)
(0.13580742 -2.1573253e-06 0)
(0.067935688 -5.081858e-07 0)
(0.019899543 -7.3496112e-08 0)
(0.019895721 6.3730881e-08 0)
(0.06792285 4.4249955e-07 0)
(0.13578228 1.8767433e-06 0)
(0.23038125 5.576533e-06 0)
(0.35972483 1.3738719e-05 0)
(0.53172535 2.9998075e-05 0)
(0.75154264 5.9111648e-05 0)
(1.0170011 0.00010388826 0)
(1.3126344 0.00015540284 0)
(1.6052015 0.00017849527 0)
(1.8459125 0.00014271555 0)
(1.9832185 5.4330677e-05 0)
(1.9832185 -5.4330469e-05 0)
(1.8459125 -0.00014271534 0)
(1.6052015 -0.00017849504 0)
(1.3126344 -0.00015540279 0)
(1.0170011 -0.0001038888 0)
(0.75154264 -5.9112907e-05 0)
(0.53172535 -2.999959e-05 0)
(0.35972483 -1.3739853e-05 0)
(0.23038125 -5.5768683e-06 0)
(0.13578228 -1.8771392e-06 0)
(0.06792285 -4.4179749e-07 0)
(0.019895721 -6.385632e-08 0)
(0.019892371 5.6093795e-08 0)
(0.067911586 3.897567e-07 0)
(0.13576021 1.6541321e-06 0)
(0.2303449 4.918777e-06 0)
(0.35967069 1.2132064e-05 0)
(0.53165136 2.6542538e-05 0)
(0.7514519 5.2498914e-05 0)
(1.0169086 9.2875838e-05 0)
(1.3125728 0.00014061501 0)
(1.605205 0.00016529626 0)
(1.8459798 0.00013398935 0)
(1.9833221 5.1387545e-05 0)
(1.9833221 -5.1387296e-05 0)
(1.8459798 -0.00013398907 0)
(1.605205 -0.00016529592 0)
(1.3125728 -0.00014061484 0)
(1.0169086 -9.2876245e-05 0)
(0.7514519 -5.2500024e-05 0)
(0.53165136 -2.6543901e-05 0)
(0.35967069 -1.2133082e-05 0)
(0.2303449 -4.9190715e-06 0)
(0.13576021 -1.6544785e-06 0)
(0.067911586 -3.8912303e-07 0)
(0.019892371 -5.62058e-08 0)
(0.019889403 4.9852773e-08 0)
(0.067901607 3.4659578e-07 0)
(0.13574064 1.471772e-06 0)
(0.23031264 4.3794035e-06 0)
(0.35962253 1.0812368e-05 0)
(0.53158531 2.369152e-05 0)
(0.75137029 4.69843e-05 0)
(1.016824 8.3546482e-05 0)
(1.3125139 0.00012773762 0)
(1.6052051 0.0001529336 0)
(1.8460415 0.00012582046 0)
(1.9834196 4.8616601e-05 0)
(1.9834196 -4.8616353e-05 0)
(1.8460415 -0.00012582016 0)
(1.6052051 -0.00015293318 0)
(1.3125139 -0.00012773736 0)
(1.016824 -8.3546772e-05 0)
(0.75137029 -4.6985244e-05 0)
(0.53158531 -2.3692702e-05 0)
(0.35962253 -1.0813247e-05 0)
(0.23031264 -4.3796515e-06 0)
(0.13574064 -1.4720585e-06 0)
(0.067901607 -3.4605072e-07 0)
(0.019889403 -4.9947755e-08 0)
(0.019886752 4.4702792e-08 0)
(0.067892685 3.1092123e-07 0)
(0.13572313 1.3208258e-06 0)
(0.23028375 3.9322191e-06 0)
(0.35957935 9.7159381e-06 0)
(0.53152592 2.1315707e-05 0)
(0.75129648 4.2360429e-05 0)
(1.0167465 7.5620089e-05 0)
(1.3124581 0.00011654253 0)
(1.6052027 0.00014169887 0)
(1.8460982 0.0001182711 0)
(1.9835117 4.6031655e-05 0)
(1.9835117 -4.6031431e-05 0)
(1.8460982 -0.00011827079 0)
(1.6052027 -0.00014169843 0)
(1.3124581 -0.00011654222 0)
(1.0167465 -7.562028e-05 0)
(0.75129648 -4.2361195e-05 0)
(0.53152592 -2.1316682e-05 0)
(0.35957935 -9.7166572e-06 0)
(0.23028375 -3.9324171e-06 0)
(0.13572313 -1.3210436e-06 0)
(0.067892685 -3.1048615e-07 0)
(0.019886752 -4.4777195e-08 0)
(0.019884362 4.0390406e-08 0)
(0.067884644 2.8101617e-07 0)
(0.13570735 1.1941633e-06 0)
(0.23025769 3.5564975e-06 0)
(0.35954035 8.7929484e-06 0)
(0.53147216 1.9310142e-05 0)
(0.75122934 3.8440328e-05 0)
(1.0166753 6.8839136e-05 0)
(1.3124053 0.00010678372 0)
(1.6051983 0.00013155243 0)
(1.8461504 0.0001113281 0)
(1.9835985 4.363122e-05 0)
(1.9835985 -4.363103e-05 0)
(1.8461504 -0.00011132781 0)
(1.6051983 -0.00013155202 0)
(1.3124053 -0.00010678341 0)
(1.0166753 -6.8839238e-05 0)
(0.75122934 -3.8440897e-05 0)
(0.53147216 -1.9310882e-05 0)
(0.35954035 -8.7934867e-06 0)
(0.23025769 -3.5566426e-06 0)
(0.13570735 -1.1943063e-06 0)
(0.067884644 -2.8070913e-07 0)
(0.019884362 -4.044138e-08 0)
(0.019882195 3.6715409e-08 0)
(0.067877348 2.5551495e-07 0)
(0.13569303 1.0860852e-06 0)
(0.23023403 3.2356369e-06 0)
(0.3595049 8.0036296e-06 0)
(0.5314232 1.7591027e-05 0)
(0.75116796 3.5067368e-05 0)
(1.0166096 6.2964307e-05 0)
(1.3123553 9.8203365e-05 0)
(1.6051923 0.00012233373 0)
(1.8461982 0.00010491322 0)
(1.9836803 4.1390507e-05 0)
(1.9836803 -4.1390356e-05 0)
(1.8461982 -0.00010491297 0)
(1.6051923 -0.00012233338 0)
(1.3123553 -9.8203078e-05 0)
(1.0166096 -6.2964322e-05 0)
(0.75116796 -3.5067724e-05 0)
(0.5314232 -1.7591509e-05 0)
(0.3595049 -8.0039719e-06 0)
(0.23023403 -3.2357274e-06 0)
(0.13569303 -1.086151e-06 0)
(0.067877349 -2.5534728e-07 0)
(0.019882195 -3.6741354e-08 0)
(0.019880219 3.3542677e-08 0)
(0.067870695 2.3348683e-07 0)
(0.13567996 9.9267853e-07 0)
(0.23021243 2.9581567e-06 0)
(0.35947252 7.3203324e-06 0)
(0.53137842 1.6100214e-05 0)
(0.75111164 3.2133115e-05 0)
(1.0165488 5.7823513e-05 0)
(1.3123082 9.0602583e-05 0)
(1.6051852 0.0001139535 0)
(1.8462423 9.8956012e-05 0)
(1.9837576 3.9288975e-05 0)
(1.9837576 -3.9288866e-05 0)
(1.8462423 -9.8955822e-05 0)
(1.6051852 -0.00011395322 0)
(1.3123082 -9.0602329e-05 0)
(1.0165488 -5.7823439e-05 0)
(0.75111164 -3.2133246e-05 0)
(0.53137842 -1.6100426e-05 0)
(0.35947252 -7.3204732e-06 0)
(0.23021243 -2.9581932e-06 0)
(0.13567996 -9.9266953e-07 0)
(0.067870696 -2.3346097e-07 0)
(0.01988022 -3.3543576e-08 0)
(0.019878409 3.0778119e-08 0)
(0.0678646 2.1428259e-07 0)
(0.13566798 9.1120656e-07 0)
(0.23019263 2.7159888e-06 0)
(0.35944282 6.7234572e-06 0)
(0.53133728 1.4796074e-05 0)
(0.75105976 2.9559766e-05 0)
(1.0164925 5.3292616e-05 0)
(1.3122638 8.3831643e-05 0)
(1.6051772 0.00010632409 0)
(1.846283 9.3403254e-05 0)
(1.9838307 3.7312425e-05 0)
(1.9838307 -3.7312353e-05 0)
(1.846283 -9.3403129e-05 0)
(1.6051772 -0.0001063239 0)
(1.3122638 -8.3831428e-05 0)
(1.0164925 -5.3292456e-05 0)
(0.75105976 -2.9559677e-05 0)
(0.53133728 -1.4796022e-05 0)
(0.35944282 -6.7234035e-06 0)
(0.23019263 -2.7159748e-06 0)
(0.13566798 -9.1112996e-07 0)
(0.0678646 -2.1439111e-07 0)
(0.019878409 -3.0755668e-08 0)
(0.019876745 2.834792e-08 0)
(0.067858993 1.973943e-07 0)
(0.13565697 8.3953059e-07 0)
(0.23017441 2.5028334e-06 0)
(0.35941547 6.1976816e-06 0)
(0.53129936 1.3645852e-05 0)
(0.75101183 2.7285374e-05 0)
(1.0164401 4.9271777e-05 0)
(1.3122219 7.776774e-05 0)
(1.6051688 9.9356143e-05 0)
(1.8463207 8.8213558e-05 0)
(1.9838998 3.544948e-05 0)
(1.9838998 -3.5449443e-05 0)
(1.8463207 -8.8213496e-05 0)
(1.6051688 -9.9356028e-05 0)
(1.3122219 -7.7767565e-05 0)
(1.0164401 -4.9271542e-05 0)
(0.75101183 -2.7285084e-05 0)
(0.53129936 -1.364556e-05 0)
(0.35941547 -6.1974536e-06 0)
(0.23017441 -2.5027757e-06 0)
(0.13565697 -8.3939821e-07 0)
(0.067858993 -1.9762012e-07 0)
(0.019876745 -2.8305473e-08 0)
(0.019875208 2.6194004e-08 0)
(0.067853818 1.8242212e-07 0)
(0.1356468 7.7596408e-07 0)
(0.23015758 2.313719e-06 0)
(0.3593902 5.7309057e-06 0)
(0.5312643 1.2623619e-05 0)
(0.75096742 2.5260406e-05 0)
(1.0163914 4.5679585e-05 0)
(1.3121824 7.2308082e-05 0)
(1.6051599 9.2973386e-05 0)
(1.8463555 8.3350315e-05 0)
(1.9839652 3.3689486e-05 0)
(1.9839652 -3.3689481e-05 0)
(1.8463555 -8.335031e-05 0)
(1.6051599 -9.2973346e-05 0)
(1.3121824 -7.2307948e-05 0)
(1.0163914 -4.5679291e-05 0)
(0.75096742 -2.525995e-05 0)
(0.5312643 -1.2623127e-05 0)
(0.3593902 -5.7305361e-06 0)
(0.23015758 -2.3136274e-06 0)
(0.1356468 -7.7579181e-07 0)
(0.067853818 -1.8273949e-07 0)
(0.019875209 -2.6136384e-08 0)
(0.019873786 2.4271124e-08 0)
(0.067849027 1.69054e-07 0)
(0.13563738 7.1918831e-07 0)
(0.230142 2.1447506e-06 0)
(0.35936679 5.313626e-06 0)
(0.53123178 1.1708948e-05 0)
(0.75092616 2.3445637e-05 0)
(1.016346 4.2450583e-05 0)
(1.3121452 6.7367635e-05 0)
(1.6051509 8.7107544e-05 0)
(1.8463878 7.8785182e-05 0)
(1.9840271 3.2023864e-05 0)
(1.9840271 -3.2023885e-05 0)
(1.8463878 -7.8785226e-05 0)
(1.6051509 -8.7107568e-05 0)
(1.3121452 -6.7367541e-05 0)
(1.016346 -4.2450255e-05 0)
(0.75092616 -2.3445063e-05 0)
(0.53123178 -1.1708313e-05 0)
(0.35936679 -5.3131583e-06 0)
(0.230142 -2.1446377e-06 0)
(0.13563738 -7.1899547e-07 0)
(0.067849027 -1.6943006e-07 0)
(0.019873787 -2.4204369e-08 0)
(0.019872467 2.2543669e-08 0)
(0.067844581 1.5704394e-07 0)
(0.13562864 6.6816283e-07 0)
(0.23012754 1.9928507e-06 0)
(0.35934505 4.9383191e-06 0)
(0.53120156 1.088563e-05 0)
(0.75088776 2.1809842e-05 0)
(1.0163035 3.9532251e-05 0)
(1.31211 6.2876529e-05 0)
(1.6051418 8.1702111e-05 0)
(1.8464178 7.4491926e-05 0)
(1.9840857 3.0444468e-05 0)
(1.9840857 -3.0444512e-05 0)
(1.8464178 -7.4492007e-05 0)
(1.6051418 -8.1702187e-05 0)
(1.31211 -6.2876475e-05 0)
(1.0163035 -3.9531915e-05 0)
(0.75088776 -2.1809208e-05 0)
(0.53120156 -1.088492e-05 0)
(0.35934505 -4.9378062e-06 0)
(0.23012754 -1.9927317e-06 0)
(0.13562864 -6.6797156e-07 0)
(0.067844581 -1.5744032e-07 0)
(0.019872467 -2.2474774e-08 0)
(0.01987124 2.0983163e-08 0)
(0.067840446 1.4619475e-07 0)
(0.13562051 6.2205382e-07 0)
(0.23011408 1.855551e-06 0)
(0.35932481 4.5989404e-06 0)
(0.53117342 1.0140602e-05 0)
(0.75085195 2.0327764e-05 0)
(1.0162638 3.6881891e-05 0)
(1.3120768 5.8777047e-05 0)
(1.6051327 7.6706811e-05 0)
(1.8464458 7.045143e-05 0)
(1.9841412 2.8945255e-05 0)
(1.9841412 -2.8945315e-05 0)
(1.8464458 -7.0451535e-05 0)
(1.6051327 -7.6706922e-05 0)
(1.3120768 -5.877703e-05 0)
(1.0162638 -3.6881576e-05 0)
(0.75085195 -2.0327135e-05 0)
(0.53117342 -1.0139896e-05 0)
(0.35932481 -4.5984425e-06 0)
(0.23011408 -1.8554434e-06 0)
(0.13562051 -6.2188866e-07 0)
(0.067840446 -1.4656902e-07 0)
(0.01987124 -2.0919848e-08 0)
(0.019870096 1.9566607e-08 0)
(0.067836592 1.3634667e-07 0)
(0.13561293 5.8018634e-07 0)
(0.23010153 1.7308522e-06 0)
(0.35930594 4.2905908e-06 0)
(0.53114716 9.4632652e-06 0)
(0.75081849 1.8978844e-05 0)
(1.0162266 3.446451e-05 0)
(1.3120455 5.5021056e-05 0)
(1.6051237 7.2080854e-05 0)
(1.8464718 6.6642921e-05 0)
(1.9841938 2.7519793e-05 0)
(1.9841938 -2.751986e-05 0)
(1.8464718 -6.6643032e-05 0)
(1.6051237 -7.208098e-05 0)
(1.3120455 -5.5021069e-05 0)
(1.0162266 -3.4464246e-05 0)
(0.75081849 -1.8978292e-05 0)
(0.53114716 -9.4626494e-06 0)
(0.35930594 -4.2901745e-06 0)
(0.23010153 -1.7307757e-06 0)
(0.13561293 -5.8007381e-07 0)
(0.067836592 -1.3665345e-07 0)
(0.019870096 -1.9517142e-08 0)
(0.019869029 1.8275209e-08 0)
(0.067832994 1.2736877e-07 0)
(0.13560586 5.4200769e-07 0)
(0.23008981 1.6171159e-06 0)
(0.35928831 4.0092504e-06 0)
(0.53112262 8.8449027e-06 0)
(0.75078719 1.7746132e-05 0)
(1.0161917 3.2251166e-05 0)
(1.3120159 5.1568357e-05 0)
(1.6051149 6.77864e-05 0)
(1.846496 6.3053178e-05 0)
(1.9842436 2.6164052e-05 0)
(1.9842436 -2.6164112e-05 0)
(1.846496 -6.3053274e-05 0)
(1.6051149 -6.7786516e-05 0)
(1.3120159 -5.156839e-05 0)
(1.0161917 -3.2250984e-05 0)
(0.75078719 -1.7745733e-05 0)
(0.53112262 -8.8444706e-06 0)
(0.35928831 -4.0089875e-06 0)
(0.23008981 -1.6170923e-06 0)
(0.13560586 -5.4197605e-07 0)
(0.067832994 -1.2756046e-07 0)
(0.019869029 -1.8248297e-08 0)
(0.019868031 1.7093497e-08 0)
(0.067829631 1.1915299e-07 0)
(0.13559924 5.0706197e-07 0)
(0.23007886 1.5129903e-06 0)
(0.35927183 3.7516027e-06 0)
(0.53109965 8.2783226e-06 0)
(0.75075787 1.6615618e-05 0)
(1.0161589 3.0217772e-05 0)
(1.311988 4.8384918e-05 0)
(1.6051063 6.3793837e-05 0)
(1.8465187 5.9664008e-05 0)
(1.9842909 2.4872676e-05 0)
(1.9842909 -2.4872709e-05 0)
(1.8465187 -5.9664062e-05 0)
(1.6051063 -6.3793914e-05 0)
(1.311988 -4.838496e-05 0)
(1.0161589 -3.0217703e-05 0)
(0.75075787 -1.6615452e-05 0)
(0.53109966 -8.2781733e-06 0)
(0.35927183 -3.7515696e-06 0)
(0.23007886 -1.5130432e-06 0)
(0.13559924 -5.0714108e-07 0)
(0.06782963 -1.1918006e-07 0)
(0.019868031 -1.7098216e-08 0)
(0.019867097 1.6008555e-08 0)
(0.067826482 1.1160904e-07 0)
(0.13559305 4.7496842e-07 0)
(0.2300686 1.4173455e-06 0)
(0.35925639 3.5148703e-06 0)
(0.53107814 7.7574862e-06 0)
(0.75073038 1.5575513e-05 0)
(1.0161281 2.8344073e-05 0)
(1.3119617 4.5442089e-05 0)
(1.6050979 6.0073652e-05 0)
(1.8465398 5.6466967e-05 0)
(1.9843356 2.364335e-05 0)
(1.9843356 -2.3643331e-05 0)
(1.8465398 -5.646695e-05 0)
(1.6050979 -6.0073658e-05 0)
(1.3119617 -4.5442125e-05 0)
(1.0161281 -2.834415e-05 0)
(0.75073038 -1.5575666e-05 0)
(0.53107814 -7.7577238e-06 0)
(0.35925639 -3.5151475e-06 0)
(0.2300686 -1.4175001e-06 0)
(0.13559305 -4.7518966e-07 0)
(0.067826481 -1.1142011e-07 0)
(0.019867096 -1.6054341e-08 0)
(0.019866221 1.5009529e-08 0)
(0.067823531 1.0466093e-07 0)
(0.13558724 4.454065e-07 0)
(0.23005898 1.3292307e-06 0)
(0.35924191 3.2967196e-06 0)
(0.53105796 7.2773267e-06 0)
(0.75070457 1.4615914e-05 0)
(1.0160992 2.6612885e-05 0)
(1.3119367 4.2715032e-05 0)
(1.6050897 5.6604177e-05 0)
(1.8465596 5.3444481e-05 0)
(1.984378 2.2471097e-05 0)
(1.984378 -2.2470997e-05 0)
(1.8465596 -5.3444357e-05 0)
(1.6050897 -5.6604074e-05 0)
(1.3119367 -4.2715044e-05 0)
(1.0160992 -2.6613141e-05 0)
(0.75070457 -1.4616473e-05 0)
(0.53105795 -7.2780605e-06 0)
(0.35924191 -3.2973917e-06 0)
(0.23005898 -1.3295136e-06 0)
(0.13558724 -4.4580277e-07 0)
(0.06782353 -1.0420252e-07 0)
(0.019866221 -1.5106186e-08 0)
(0.0198654 1.4087202e-08 0)
(0.067820761 9.8244311e-08 0)
(0.1355818 4.1810459e-07 0)
(0.23004995 1.2478389e-06 0)
(0.35922832 3.0951628e-06 0)
(0.531039 6.8335093e-06 0)
(0.75068032 1.3728329e-05 0)
(1.0160719 2.5009578e-05 0)
(1.3119132 4.0182854e-05 0)
(1.6050818 5.3361481e-05 0)
(1.8465781 5.0592736e-05 0)
(1.9844182 2.1355166e-05 0)
(1.9844182 -2.1354953e-05 0)
(1.8465781 -5.0592468e-05 0)
(1.6050818 -5.3361232e-05 0)
(1.3119132 -4.0182826e-05 0)
(1.0160719 -2.5010046e-05 0)
(0.75068032 -1.3729386e-05 0)
(0.531039 -6.8348533e-06 0)
(0.35922832 -3.0963181e-06 0)
(0.23004995 -1.2482782e-06 0)
(0.13558179 -4.1871035e-07 0)
(0.067820761 -9.7460552e-08 0)
(0.019865399 -1.4244935e-08 0)
(0.019864628 1.3233665e-08 0)
(0.067818161 9.230381e-08 0)
(0.13557668 3.9282877e-07 0)
(0.23004148 1.1724766e-06 0)
(0.35921555 2.9084996e-06 0)
(0.5310212 6.4223435e-06 0)
(0.75065752 1.2905523e-05 0)
(1.0160463 2.3521451e-05 0)
(1.3118909 3.7826742e-05 0)
(1.6050743 5.0329743e-05 0)
(1.8465955 4.7892992e-05 0)
(1.9844563 2.0290245e-05 0)
(1.9844563 -2.0289885e-05 0)
(1.8465955 -4.7892541e-05 0)
(1.6050743 -5.0329305e-05 0)
(1.3118909 -3.7826654e-05 0)
(1.0160463 -2.3522167e-05 0)
(0.75065752 -1.2907175e-05 0)
(0.53102119 -6.4244165e-06 0)
(0.35921555 -2.9102305e-06 0)
(0.23004148 -1.1731018e-06 0)
(0.13557668 -3.9368021e-07 0)
(0.06781816 -9.1136141e-08 0)
(0.019864628 -1.3463101e-08 0)
(0.019863903 1.244217e-08 0)
(0.067815716 8.6792512e-08 0)
(0.13557187 3.6938083e-07 0)
(0.23003351 1.1025536e-06 0)
(0.35920355 2.7352695e-06 0)
(0.53100445 6.040629e-06 0)
(0.75063606 1.214121e-05 0)
(1.0160221 2.21377e-05 0)
(1.3118699 3.5631311e-05 0)
(1.6050669 4.7488918e-05 0)
(1.8466118 4.5346763e-05 0)
(1.9844924 1.9277292e-05 0)
(1.9844924 -1.9276749e-05 0)
(1.8466118 -4.5346094e-05 0)
(1.6050669 -4.7488251e-05 0)
(1.3118699 -3.5631144e-05 0)
(1.0160221 -2.2138701e-05 0)
(0.75063606 -1.2143556e-05 0)
(0.53100444 -6.0435551e-06 0)
(0.35920355 -2.7376724e-06 0)
(0.23003351 -1.1033951e-06 0)
(0.13557187 -3.7051579e-07 0)
(0.067815715 -8.5179097e-08 0)
(0.019863903 -1.2754389e-08 0)
(0.019863221 1.1706731e-08 0)
(0.067813416 8.166843e-08 0)
(0.13556735 3.475829e-07 0)
(0.23002601 1.0375438e-06 0)
(0.35919225 2.5741891e-06 0)
(0.53098868 5.6855909e-06 0)
(0.75061585 1.1429935e-05 0)
(1.0159993 2.0848578e-05 0)
(1.31185 3.3581608e-05 0)
(1.6050599 4.4827483e-05 0)
(1.8466272 4.2932142e-05 0)
(1.9845266 1.8309873e-05 0)
(1.9845266 -1.8309119e-05 0)
(1.8466272 -4.2931215e-05 0)
(1.6050599 -4.4826544e-05 0)
(1.31185 -3.3581343e-05 0)
(1.0159993 -2.0849902e-05 0)
(0.75061585 -1.1433078e-05 0)
(0.53098868 -5.6894997e-06 0)
(0.35919225 -2.5773646e-06 0)
(0.23002601 -1.0386334e-06 0)
(0.13556734 -3.4904086e-07 0)
(0.067813415 -7.9543807e-08 0)
(0.01986322 -1.2113238e-08 0)
(0.019862579 1.102238e-08 0)
(0.067811252 7.689735e-08 0)
(0.13556309 3.2729048e-07 0)
(0.23001895 9.7701435e-07 0)
(0.35918162 2.4241751e-06 0)
(0.53097384 5.3548294e-06 0)
(0.75059681 1.0766968e-05 0)
(1.0159778 1.9646072e-05 0)
(1.3118312 3.1666557e-05 0)
(1.6050532 4.2328455e-05 0)
(1.8466415 4.0657548e-05 0)
(1.984559 1.7391165e-05 0)
(1.984559 -1.7390177e-05 0)
(1.8466415 -4.0656325e-05 0)
(1.6050532 -4.2327203e-05 0)
(1.3118312 -3.1666175e-05 0)
(1.0159778 -1.964776e-05 0)
(0.75059681 -1.077102e-05 0)
(0.53097383 -5.3598576e-06 0)
(0.35918162 -2.42823e-06 0)
(0.23001895 -9.7838617e-07 0)
(0.13556309 -3.2911334e-07 0)
(0.067811251 -7.4192805e-08 0)
(0.019862578 -1.153501e-08 0)
(0.019861974 1.0384343e-08 0)
(0.067809213 7.2445404e-08 0)
(0.13555907 3.0835964e-07 0)
(0.2300123 9.2054287e-07 0)
(0.3591716 2.2842119e-06 0)
(0.53095985 5.046178e-06 0)
(0.75057886 1.0148044e-05 0)
(1.0159575 1.8522311e-05 0)
(1.3118134 2.9873344e-05 0)
(1.6050467 3.9983063e-05 0)
(1.8466551 3.8495263e-05 0)
(1.9845898 1.6512607e-05 0)
(1.9845898 -1.6511363e-05 0)
(1.8466551 -3.8493713e-05 0)
(1.6050467 -3.998146e-05 0)
(1.3118134 -2.9872827e-05 0)
(1.0159575 -1.8524406e-05 0)
(0.75057886 -1.0153118e-05 0)
(0.53095984 -5.0524675e-06 0)
(0.3591716 -2.289256e-06 0)
(0.2300123 -9.2223111e-07 0)
(0.13555907 -3.105904e-07 0)
(0.067809211 -6.9087106e-08 0)
(0.019861973 -1.10152e-08 0)
(0.019861404 9.7891604e-09 0)
(0.067807292 6.8289367e-08 0)
(0.13555529 2.906928e-07 0)
(0.23000603 8.678308e-07 0)
(0.35916216 2.1535255e-06 0)
(0.53094666 4.7578661e-06 0)
(0.75056194 9.5696524e-06 0)
(1.0159384 1.7471606e-05 0)
(1.3117965 2.819492e-05 0)
(1.6050405 3.7777622e-05 0)
(1.8466677 3.646332e-05 0)
(1.9846188 1.5680615e-05 0)
(1.9846188 -1.5679101e-05 0)
(1.8466677 -3.6461417e-05 0)
(1.6050405 -3.7775633e-05 0)
(1.3117965 -2.8194254e-05 0)
(1.0159384 -1.7474157e-05 0)
(0.75056193 -9.5758714e-06 0)
(0.53094665 -4.7655664e-06 0)
(0.35916215 -2.1596735e-06 0)
(0.23000603 -8.6987079e-07 0)
(0.13555529 -2.9337538e-07 0)
(0.06780729 -6.4198878e-08 0)
(0.019861404 -1.05501e-08 0)
(0.019860867 9.2326055e-09 0)
(0.067805479 6.4398334e-08 0)
(0.13555173 2.7415796e-07 0)
(0.23000012 8.1849857e-07 0)
(0.35915325 2.0312373e-06 0)
(0.53093422 4.4880896e-06 0)
(0.75054596 9.0282489e-06 0)
(1.0159203 1.6487016e-05 0)
(1.3117806 2.6618812e-05 0)
(1.6050346 3.5703892e-05 0)
(1.8466798 3.4524454e-05 0)
(1.9846465 1.4883034e-05 0)
(1.9846465 -1.4881241e-05 0)
(1.8466798 -3.4522178e-05 0)
(1.6050346 -3.5701486e-05 0)
(1.3117806 -2.6617987e-05 0)
(1.0159203 -1.6490079e-05 0)
(0.75054596 -9.0357449e-06 0)
(0.53093421 -4.4973627e-06 0)
(0.35915325 -2.0386155e-06 0)
(0.23000012 -8.2093364e-07 0)
(0.13555173 -2.7734032e-07 0)
(0.067805477 -5.9495192e-08 0)
(0.019860866 -1.0134364e-08 0)
(0.01986036 8.7129821e-09 0)
(0.067803771 6.0762532e-08 0)
(0.13554837 2.5871542e-07 0)
(0.22999455 7.7240747e-07 0)
(0.35914485 1.9169145e-06 0)
(0.53092248 4.2357147e-06 0)
(0.75053089 8.5215288e-06 0)
(1.0159032 1.5565354e-05 0)
(1.3117655 2.5142925e-05 0)
(1.605029 3.3753515e-05 0)
(1.846691 3.2710683e-05 0)
(1.9846726 1.4131269e-05 0)
(1.9846726 -1.4129201e-05 0)
(1.846691 -3.2708026e-05 0)
(1.605029 -3.3750669e-05 0)
(1.3117655 -2.5141935e-05 0)
(1.0159032 -1.5568986e-05 0)
(0.75053088 -8.5304342e-06 0)
(0.53092247 -4.2467182e-06 0)
(0.35914484 -1.9256412e-06 0)
(0.22999454 -7.7527252e-07 0)
(0.13554836 -2.6244089e-07 0)
(0.067803768 -5.4953292e-08 0)
(0.019860359 -9.7637704e-09 0)
(0.019859881 8.2255956e-09 0)
(0.067802156 5.7345786e-08 0)
(0.13554519 2.4420967e-07 0)
(0.22998928 7.2912667e-07 0)
(0.35913691 1.8096336e-06 0)
(0.53091139 3.9990025e-06 0)
(0.75051664 8.0461404e-06 0)
(1.0158871 1.4699414e-05 0)
(1.3117512 2.3752517e-05 0)
(1.6050236 3.1914766e-05 0)
(1.8467017 3.0969741e-05 0)
(1.9846975 1.3407362e-05 0)
(1.9846975 -1.340503e-05 0)
(1.8467017 -3.0966701e-05 0)
(1.6050236 -3.1911468e-05 0)
(1.3117512 -2.3751366e-05 0)
(1.0158871 -1.4703682e-05 0)
(0.75051663 -8.0565968e-06 0)
(0.53091138 -4.0119022e-06 0)
(0.35913691 -1.8198319e-06 0)
(0.22998928 -7.324625e-07 0)
(0.13554519 -2.4851806e-07 0)
(0.067802154 -5.0526953e-08 0)
(0.01985988 -9.4245968e-09 0)
(0.01985943 7.7720184e-09 0)
(0.067800634 5.4163874e-08 0)
(0.13554219 2.3071087e-07 0)
(0.22998431 6.8881202e-07 0)
(0.35912943 1.7095513e-06 0)
(0.53090093 3.7778242e-06 0)
(0.7505032 7.6015825e-06 0)
(1.0158719 1.3889889e-05 0)
(1.3117377 2.2453643e-05 0)
(1.6050185 3.0190085e-05 0)
(1.8467117 2.935462e-05 0)
(1.9847208 1.2730631e-05 0)
(1.9847208 -1.272807e-05 0)
(1.8467117 -2.9351217e-05 0)
(1.6050185 -3.0186332e-05 0)
(1.3117377 -2.245234e-05 0)
(1.0158719 -1.3894863e-05 0)
(0.7505032 -7.613732e-06 0)
(0.53090092 -3.7927878e-06 0)
(0.35912942 -1.7213484e-06 0)
(0.22998431 -6.9264738e-07 0)
(0.13554219 -2.3565622e-07 0)
(0.067800632 -4.630281e-08 0)
(0.019859429 -9.1618603e-09 0)
(0.019859003 7.3444378e-09 0)
(0.067799193 5.1154137e-08 0)
(0.13553936 2.1794956e-07 0)
(0.22997961 6.5074626e-07 0)
(0.35912234 1.6152596e-06 0)
(0.53089102 3.5698419e-06 0)
(0.75049047 7.1836308e-06 0)
(1.0158574 1.3127042e-05 0)
(1.3117249 2.1224518e-05 0)
(1.6050136 2.8556739e-05 0)
(1.8467212 2.7790242e-05 0)
(1.9847433 1.2074017e-05 0)
(1.9847433 -1.2071265e-05 0)
(1.8467212 -2.7786503e-05 0)
(1.6050136 -2.8552539e-05 0)
(1.3117249 -2.122308e-05 0)
(1.0158574 -1.3132782e-05 0)
(0.75049046 -7.197586e-06 0)
(0.53089101 -3.5869889e-06 0)
(0.35912233 -1.6287312e-06 0)
(0.22997961 -6.5508269e-07 0)
(0.13553935 -2.2355466e-07 0)
(0.06779919 -4.2176013e-08 0)
(0.019859001 -8.940524e-09 0)
(0.0198586 6.9532131e-09 0)
(0.067797836 4.8400053e-08 0)
(0.13553669 2.0628427e-07 0)
(0.22997518 6.1584837e-07 0)
(0.35911566 1.5284082e-06 0)
(0.5308817 3.3773645e-06 0)
(0.75047849 6.7958797e-06 0)
(1.0158438 1.2419814e-05 0)
(1.3117128 2.0087516e-05 0)
(1.605009 2.7040211e-05 0)
(1.84673 2.636201e-05 0)
(1.9847642 1.146972e-05 0)
(1.9847642 -1.1466857e-05 0)
(1.84673 -2.6357987e-05 0)
(1.605009 -2.7035583e-05 0)
(1.3117128 -2.0085964e-05 0)
(1.0158438 -1.2426388e-05 0)
(0.75047848 -6.8117584e-06 0)
(0.53088169 -3.39682e-06 0)