/*--------------------------------*- C++ -*----------------------------------*\
  =========                 |
  \\      /  F ield         | OpenFOAM: The Open Source CFD Toolbox
   \\    /   O peration     | Website:  https://openfoam.org
    \\  /    A nd           | Version:  10
     \\/     M anipulation  |
\*---------------------------------------------------------------------------*/
FoamFile
{
    format      ascii;
    class       volScalarField;
    location    "10";
    object      T;
}
// * * * * * * * * * * * * * * * * * * * * * * * * * * * * * * * * * * * * * //

dimensions      [0 0 0 1 0 0 0];

internalField   nonuniform List<scalar> 
10000
(
374.957
361.189
356.438
354.317
353.135
352.364
351.806
351.373
351.02
350.722
350.463
350.233
350.026
349.836
349.66
349.496
349.342
349.196
349.058
348.927
348.801
348.68
348.565
348.453
348.346
348.243
348.144
348.048
347.955
347.865
347.779
347.696
347.615
347.538
347.463
347.39
347.321
347.254
347.189
347.127
347.067
347.009
346.954
346.9
346.849
346.8
346.753
346.708
346.665
346.624
346.584
346.547
346.511
346.477
346.444
346.413
346.383
346.355
346.329
346.303
346.279
346.257
346.235
346.215
346.196
346.178
346.161
346.145
346.13
346.115
346.102
346.09
346.078
346.067
346.057
346.048
346.039
346.031
346.023
346.016
346.01
346.004
345.998
345.994
345.989
345.985
345.981
345.978
345.975
345.973
345.971
345.969
345.968
345.967
345.966
345.965
345.965
345.965
345.966
345.967
388.514
374.538
366.671
361.999
358.98
356.864
355.279
354.026
352.993
352.115
351.348
350.665
350.047
349.48
348.956
348.466
348.006
347.57
347.157
346.763
346.386
346.025
345.678
345.345
345.024
344.715
344.417
344.129
343.852
343.583
343.325
343.075
342.833
342.601
342.376
342.159
341.95
341.749
341.555
341.368
341.188
341.015
340.849
340.69
340.536
340.389
340.248
340.113
339.984
339.861
339.742
339.63
339.522
339.419
339.321
339.228
339.14
339.055
338.975
338.9
338.828
338.76
338.695
338.634
338.577
338.523
338.471
338.423
338.378
338.336
338.296
338.258
338.223
338.191
338.16
338.132
338.106
338.081
338.059
338.038
338.019
338.001
337.985
337.97
337.957
337.945
337.934
337.924
337.916
337.908
337.902
337.897
337.892
337.889
337.887
337.885
337.884
337.885
337.886
337.888
393.059
381.789
373.718
368.034
363.928
360.844
358.429
356.468
354.822
353.406
352.159
351.043
350.028
349.095
348.23
347.42
346.658
345.936
345.25
344.596
343.971
343.371
342.795
342.241
341.707
341.193
340.697
340.218
339.756
339.31
338.879
338.463
338.061
337.674
337.3
336.939
336.591
336.256
335.933
335.621
335.322
335.034
334.757
334.492
334.237
333.992
333.757
333.532
333.317
333.111
332.914
332.727
332.547
332.376
332.213
332.058
331.91
331.77
331.637
331.511
331.391
331.277
331.17
331.069
330.973
330.883
330.797
330.717
330.642
330.571
330.505
330.443
330.384
330.33
330.279
330.232
330.188
330.148
330.11
330.075
330.043
330.014
329.987
329.962
329.94
329.92
329.902
329.886
329.872
329.859
329.849
329.84
329.833
329.827
329.823
329.821
329.82
329.82
329.822
329.825
394.975
385.848
378.381
372.493
367.86
364.158
361.132
358.599
356.431
354.535
352.85
351.329
349.939
348.655
347.46
346.339
345.282
344.28
343.327
342.417
341.546
340.71
339.907
339.134
338.389
337.671
336.979
336.31
335.665
335.041
334.439
333.858
333.297
332.755
332.232
331.728
331.242
330.773
330.321
329.886
329.468
329.065
328.678
328.307
327.95
327.607
327.279
326.965
326.664
326.376
326.101
325.838
325.587
325.348
325.12
324.903
324.697
324.501
324.314
324.138
323.97
323.812
323.661
323.52
323.386
323.259
323.14
323.028
322.923
322.824
322.731
322.644
322.562
322.486
322.415
322.349
322.288
322.231
322.178
322.13
322.085
322.044
322.006
321.972
321.941
321.913
321.887
321.865
321.845
321.828
321.813
321.801
321.791
321.783
321.777
321.774
321.772
321.773
321.775
321.78
395.954
388.256
381.468
375.701
370.865
366.801
363.35
360.376
357.775
355.466
353.388
351.497
349.757
348.142
346.633
345.213
343.871
342.596
341.381
340.22
339.107
338.039
337.012
336.023
335.07
334.15
333.263
332.406
331.579
330.78
330.008
329.262
328.542
327.848
327.177
326.53
325.906
325.304
324.724
324.166
323.629
323.112
322.616
322.139
321.681
321.241
320.82
320.416
320.03
319.66
319.307
318.97
318.648
318.341
318.048
317.769
317.504
317.252
317.013
316.786
316.571
316.368
316.175
315.993
315.821
315.658
315.505
315.361
315.226
315.099
314.98
314.868
314.763
314.666
314.575
314.49
314.411
314.338
314.27
314.208
314.15
314.097
314.049
314.005
313.965
313.929
313.897
313.868
313.842
313.82
313.801
313.785
313.773
313.762
313.755
313.751
313.749
313.749
313.753
313.758
396.522
389.762
383.537
377.984
373.106
368.841
365.1
361.793
358.841
356.18
353.757
351.531
349.468
347.544
345.737
344.032
342.415
340.877
339.408
338.002
336.653
335.357
334.11
332.908
331.749
330.631
329.551
328.508
327.501
326.527
325.587
324.679
323.801
322.954
322.137
321.348
320.587
319.853
319.147
318.466
317.811
317.181
316.575
315.993
315.434
314.898
314.384
313.892
313.421
312.97
312.539
312.127
311.734
311.359
311.002
310.662
310.339
310.032
309.74
309.463
309.201
308.952
308.717
308.494
308.285
308.086
307.9
307.724
307.559
307.404
307.258
307.122
306.994
306.875
306.764
306.661
306.564
306.475
306.393
306.316
306.246
306.182
306.123
306.069
306.02
305.976
305.936
305.901
305.87
305.843
305.82
305.801
305.785
305.773
305.764
305.758
305.756
305.757
305.761
305.768
396.877
390.74
384.942
379.596
374.743
370.369
366.428
362.867
359.632
356.673
353.949
351.422
349.065
346.853
344.766
342.79
340.911
339.119
337.404
335.76
334.181
332.662
331.199
329.789
328.428
327.113
325.844
324.617
323.432
322.286
321.179
320.11
319.077
318.079
317.116
316.186
315.29
314.425
313.592
312.79
312.018
311.275
310.561
309.875
309.216
308.584
307.978
307.397
306.841
306.31
305.801
305.316
304.852
304.411
303.99
303.589
303.207
302.845
302.501
302.174
301.864
301.571
301.294
301.031
300.784
300.55
300.33
300.123
299.928
299.745
299.573
299.412
299.262
299.121
298.99
298.868
298.755
298.649
298.552
298.462
298.379
298.303
298.233
298.17
298.112
298.06
298.013
297.972
297.935
297.903
297.876
297.853
297.835
297.82
297.809
297.803
297.8
297.801
297.806
297.814
397.109
391.391
385.899
380.724
375.913
371.474
367.39
363.633
360.166
356.954
353.965
351.169
348.543
346.065
343.717
341.484
339.355
337.319
335.367
333.493
331.691
329.955
328.281
326.666
325.106
323.599
322.143
320.735
319.374
318.059
316.787
315.559
314.371
313.224
312.117
311.048
310.017
309.023
308.065
307.142
306.254
305.399
304.578
303.788
303.03
302.303
301.605
300.937
300.298
299.686
299.101
298.542
298.008
297.5
297.015
296.554
296.115
295.697
295.301
294.925
294.569
294.231
293.912
293.61
293.325
293.056
292.802
292.563
292.339
292.128
291.931
291.746
291.572
291.41
291.259
291.119
290.988
290.867
290.755
290.651
290.555
290.468
290.388
290.314
290.248
290.188
290.134
290.086
290.044
290.008
289.976
289.95
289.928
289.911
289.899
289.892
289.888
289.889
289.895
289.904
397.262
391.824
386.546
381.497
376.721
372.237
368.044
364.128
360.466
357.036
353.814
350.777
347.905
345.18
342.587
340.112
337.745
335.476
333.297
331.201
329.181
327.234
325.354
323.539
321.785
320.09
318.45
316.864
315.331
313.848
312.414
311.028
309.688
308.394
307.144
305.938
304.774
303.652
302.57
301.527
300.524
299.559
298.63
297.738
296.882
296.06
295.272
294.517
293.794
293.103
292.442
291.81
291.207
290.632
290.085
289.563
289.067
288.595
288.147
287.722
287.319
286.938
286.577
286.235
285.913
285.609
285.322
285.053
284.799
284.561
284.337
284.128
283.932
283.749
283.578
283.419
283.271
283.134
283.007
282.89
282.782
282.683
282.592
282.509
282.434
282.366
282.306
282.251
282.204
282.162
282.127
282.097
282.072
282.053
282.039
282.031
282.027
282.028
282.034
282.045
397.362
392.108
386.972
382.006
377.251
372.726
368.44
364.389
360.559
356.938
353.508
350.252
347.154
344.201
341.378
338.676
336.083
333.591
331.193
328.882
326.653
324.501
322.421
320.411
318.467
316.586
314.767
313.006
311.303
309.656
308.062
306.521
305.031
303.592
302.201
300.859
299.564
298.314
297.11
295.949
294.832
293.757
292.724
291.73
290.777
289.861
288.984
288.142
287.337
286.567
285.83
285.127
284.455
283.814
283.204
282.623
282.07
281.544
281.045
280.571
280.122
279.697
279.295
278.914
278.555
278.216
277.897
277.596
277.313
277.048
276.798
276.565
276.347
276.143
275.952
275.775
275.61
275.458
275.316
275.185
275.065
274.954
274.853
274.761
274.677
274.601
274.533
274.473
274.42
274.373
274.334
274.3
274.273
274.252
274.236
274.227
274.222
274.224
274.23
274.242
397.424
392.285
387.236
382.317
377.563
372.995
368.624
364.451
360.472
356.679
353.06
349.604
346.299
343.132
340.095
337.177
334.37
331.665
329.057
326.539
324.107
321.756
319.482
317.282
315.152
313.091
311.096
309.164
307.294
305.485
303.734
302.04
300.403
298.82
297.291
295.815
294.39
293.015
291.69
290.413
289.183
288
286.862
285.768
284.718
283.71
282.744
281.818
280.931
280.082
279.271
278.496
277.756
277.051
276.378
275.738
275.129
274.55
274
273.478
272.983
272.515
272.071
271.652
271.256
270.883
270.531
270.2
269.888
269.595
269.321
269.064
268.823
268.598
268.388
268.193
268.012
267.843
267.687
267.543
267.41
267.288
267.177
267.075
266.982
266.899
266.824
266.758
266.699
266.648
266.604
266.567
266.537
266.513
266.496
266.485
266.481
266.482
266.489
266.502
397.459
392.383
387.379
382.477
377.706
373.086
368.631
364.346
360.23
356.279
352.487
348.846
345.347
341.982
338.742
335.62
332.608
329.7
326.89
324.174
321.546
319.002
316.539
314.154
311.844
309.606
307.439
305.339
303.306
301.338
299.433
297.589
295.807
294.083
292.417
290.809
289.256
287.758
286.313
284.921
283.581
282.29
281.049
279.857
278.711
277.612
276.558
275.548
274.58
273.654
272.769
271.924
271.116
270.347
269.613
268.914
268.249
267.617
267.017
266.448
265.908
265.396
264.913
264.455
264.023
263.615
263.231
262.87
262.529
262.21
261.91
261.629
261.367
261.121
260.892
260.679
260.481
260.297
260.126
259.969
259.824
259.691
259.569
259.458
259.357
259.266
259.184
259.111
259.047
258.991
258.943
258.903
258.87
258.844
258.825
258.813
258.808
258.809
258.817
258.831
397.474
392.422
387.429
382.518
377.714
373.035
368.495
364.1
359.854
355.756
351.802
347.988
344.308
340.755
337.324
334.008
330.802
327.7
324.697
321.788
318.971
316.241
313.595
311.03
308.544
306.134
303.798
301.535
299.342
297.218
295.161
293.171
291.246
289.383
287.584
285.845
284.166
282.546
280.984
279.479
278.029
276.633
275.291
274
272.761
271.572
270.431
269.337
268.29
267.288
266.33
265.415
264.541
263.707
262.913
262.156
261.437
260.753
260.103
259.486
258.901
258.348
257.824
257.328
256.86
256.419
256.003
255.611
255.243
254.897
254.572
254.268
253.983
253.717
253.469
253.238
253.023
252.824
252.64
252.469
252.312
252.168
252.036
251.915
251.806
251.707
251.618
251.539
251.47
251.409
251.357
251.313
251.277
251.249
251.229
251.216
251.21
251.211
251.219
251.234
397.473
392.416
387.408
382.467
377.615
372.868
368.24
363.738
359.367
355.128
351.022
347.044
343.192
339.462
335.849
332.349
328.956
325.668
322.479
319.386
316.386
313.475
310.652
307.912
305.255
302.677
300.177
297.753
295.404
293.128
290.923
288.789
286.723
284.725
282.793
280.927
279.124
277.385
275.707
274.09
272.532
271.032
269.59
268.203
266.871
265.593
264.366
263.191
262.065
260.988
259.958
258.974
258.034
257.138
256.284
255.47
254.696
253.96
253.261
252.598
251.969
251.374
250.81
250.277
249.774
249.299
248.851
248.43
248.034
247.661
247.312
246.985
246.679
246.392
246.125
245.877
245.646
245.431
245.232
245.049
244.88
244.725
244.582
244.453
244.335
244.228
244.133
244.048
243.973
243.907
243.851
243.804
243.765
243.735
243.713
243.699
243.692
243.693
243.702
243.718
397.46
392.375
387.331
382.343
377.43
372.608
367.887
363.278
358.784
354.411
350.157
346.024
342.009
338.11
334.323
330.646
327.076
323.608
320.241
316.97
313.793
310.708
307.712
304.803
301.979
299.238
296.578
293.998
291.496
289.071
286.721
284.445
282.242
280.11
278.049
276.057
274.133
272.276
270.485
268.758
267.094
265.492
263.951
262.469
261.046
259.68
258.369
257.113
255.91
254.759
253.658
252.605
251.601
250.643
249.729
248.86
248.032
247.245
246.498
245.789
245.116
244.479
243.877
243.307
242.768
242.26
241.782
241.331
240.907
240.509
240.135
239.785
239.458
239.152
238.866
238.6
238.353
238.123
237.91
237.714
237.533
237.367
237.215
237.076
236.95
236.836
236.733
236.642
236.562
236.492
236.432
236.381
236.339
236.307
236.283
236.268
236.261
236.262
236.271
236.288
397.437
392.305
387.209
382.162
377.178
372.272
367.455
362.737
358.123
353.617
349.223
344.94
340.768
336.707
332.754
328.908
325.166
321.527
317.987
314.544
311.197
307.943
304.78
301.706
298.72
295.82
293.004
290.272
287.62
285.049
282.557
280.143
277.806
275.544
273.355
271.24
269.197
267.225
265.321
263.486
261.718
260.016
258.378
256.803
255.29
253.838
252.444
251.108
249.829
248.604
247.433
246.314
245.246
244.227
243.255
242.33
241.45
240.613
239.818
239.063
238.348
237.67
237.028
236.422
235.849
235.309
234.799
234.32
233.869
233.445
233.047
232.675
232.326
232
231.696
231.413
231.149
230.905
230.679
230.47
230.277
230.1
229.938
229.79
229.655
229.534
229.425
229.328
229.242
229.168
229.103
229.049
229.005
228.97
228.944
228.928
228.92
228.921
228.931
228.949
397.407
392.214
387.053
381.934
376.87
371.874
366.958
362.129
357.395
352.761
348.228
343.8
339.478
335.26
331.148
327.139
323.233
319.427
315.721
312.113
308.6
305.183
301.858
298.624
295.481
292.426
289.458
286.577
283.78
281.067
278.436
275.887
273.418
271.027
268.715
266.479
264.319
262.233
260.22
258.279
256.409
254.608
252.875
251.208
249.607
248.07
246.595
245.181
243.826
242.53
241.29
240.105
238.974
237.894
236.866
235.886
234.953
234.067
233.225
232.426
231.668
230.95
230.27
229.628
229.021
228.449
227.909
227.401
226.923
226.474
226.052
225.657
225.288
224.943
224.621
224.32
224.041
223.782
223.542
223.321
223.116
222.929
222.757
222.6
222.457
222.329
222.213
222.11
222.019
221.94
221.871
221.814
221.767
221.729
221.702
221.684
221.676
221.677
221.687
221.705
397.372
392.106
386.869
381.668
376.517
371.427
366.407
361.467
356.614
351.851
347.185
342.616
338.147
333.779
329.512
325.346
321.281
317.315
313.448
309.68
306.008
302.431
298.949
295.56
292.264
289.059
285.943
282.917
279.978
277.126
274.36
271.678
269.08
266.565
264.131
261.777
259.502
257.305
255.185
253.14
251.17
249.272
247.445
245.688
244.001
242.38
240.825
239.334
237.906
236.539
235.231
233.981
232.788
231.65
230.565
229.531
228.548
227.612
226.724
225.881
225.081
224.324
223.607
222.929
222.289
221.684
221.115
220.579
220.074
219.6
219.156
218.739
218.349
217.984
217.644
217.327
217.033
216.759
216.506
216.272
216.056
215.858
215.676
215.511
215.36
215.224
215.102
214.993
214.897
214.813
214.74
214.679
214.629
214.59
214.561
214.542
214.533
214.534
214.544
214.563
397.331
391.984
386.662
381.374
376.129
370.939
365.814
360.761
355.788
350.9
346.101
341.394
336.783
332.269
327.852
323.534
319.315
315.195
311.173
307.249
303.422
299.692
296.058
292.518
289.073
285.721
282.462
279.294
276.217
273.23
270.332
267.521
264.798
262.16
259.607
257.137
254.75
252.445
250.219
248.072
246.003
244.01
242.092
240.247
238.474
236.772
235.138
233.572
232.071
230.635
229.261
227.947
226.694
225.497
224.357
223.27
222.236
221.253
220.319
219.433
218.592
217.796
217.042
216.329
215.656
215.021
214.422
213.858
213.327
212.829
212.361
211.923
211.513
211.129
210.772
210.438
210.128
209.841
209.574
209.328
209.101
208.892
208.701
208.527
208.368
208.225
208.096
207.981
207.88
207.791
207.715
207.651
207.598
207.556
207.526
207.506
207.496
207.496
207.507
207.527
397.287
391.851
386.438
381.056
375.713
370.42
365.187
360.02
354.927
349.914
344.984
340.143
335.393
330.737
326.175
321.71
317.342
313.072
308.899
304.825
300.848
296.969
293.186
289.501
285.911
282.417
279.018
275.713
272.501
269.382
266.354
263.418
260.572
257.814
255.145
252.562
250.066
247.654
245.325
243.079
240.914
238.828
236.82
234.888
233.032
231.249
229.538
227.898
226.326
224.822
223.382
222.007
220.693
219.44
218.245
217.107
216.023
214.993
214.015
213.086
212.205
211.37
210.58
209.833
209.128
208.462
207.834
207.243
206.687
206.164
205.674
205.214
204.784
204.382
204.007
203.658
203.333
203.031
202.751
202.493
202.255
202.036
201.835
201.652
201.486
201.335
201.2
201.08
200.973
200.88
200.8
200.732
200.677
200.633
200.6
200.579
200.568
200.569
200.579
200.6
397.24
391.709
386.2
380.719
375.274
369.876
364.532
359.251
354.038
348.901
343.843
338.87
333.984
329.189
324.487
319.878
315.366
310.95
306.632
302.411
298.289
294.265
290.339
286.511
282.781
279.149
275.613
272.175
268.832
265.584
262.431
259.372
256.406
253.532
250.749
248.056
245.452
242.936
240.507
238.163
235.903
233.726
231.631
229.614
227.676
225.815
224.029
222.316
220.675
219.103
217.6
216.163
214.791
213.482
212.233
211.044
209.913
208.836
207.814
206.843
205.923
205.051
204.225
203.444
202.707
202.011
201.355
200.737
200.156
199.609
199.097
198.617
198.167
197.747
197.354
196.989
196.649
196.334
196.041
195.771
195.522
195.293
195.083
194.891
194.717
194.56
194.418
194.292
194.181
194.083
193.999
193.928
193.87
193.823
193.789
193.766
193.755
193.755
193.766
193.787
397.191
391.561
385.952
380.368
374.819
369.312
363.857
358.46
353.128
347.868
342.684
337.581
332.562
327.632
322.792
318.044
313.391
308.834
304.374
300.012
295.748
291.584
287.519
283.553
279.687
275.92
272.252
268.683
265.212
261.84
258.564
255.385
252.302
249.315
246.421
243.62
240.912
238.295
235.767
233.328
230.976
228.71
226.528
224.429
222.411
220.473
218.613
216.829
215.119
213.483
211.917
210.42
208.991
207.626
206.326
205.087
203.907
202.786
201.72
200.709
199.749
198.841
197.98
197.166
196.398
195.672
194.988
194.344
193.738
193.169
192.634
192.134
191.665
191.227
190.818
190.436
190.082
189.753
189.448
189.166
188.906
188.667
188.448
188.248
188.066
187.902
187.754
187.622
187.506
187.404
187.316
187.242
187.18
187.132
187.096
187.072
187.06
187.059
187.07
187.092
397.14
391.407
385.695
380.007
374.35
368.734
363.166
357.653
352.203
346.821
341.512
336.281
331.132
326.069
321.095
316.212
311.423
306.728
302.131
297.631
293.23
288.93
284.729
280.629
276.63
272.733
268.936
265.241
261.646
258.151
254.757
251.461
248.265
245.166
242.164
239.259
236.448
233.732
231.108
228.576
226.134
223.781
221.515
219.335
217.239
215.226
213.293
211.44
209.663
207.963
206.336
204.78
203.294
201.877
200.525
199.237
198.011
196.845
195.737
194.686
193.688
192.743
191.849
191.003
190.204
189.449
188.738
188.068
187.438
186.846
186.29
185.769
185.281
184.825
184.4
184.003
183.634
183.292
182.975
182.681
182.411
182.162
181.934
181.726
181.537
181.365
181.211
181.074
180.952
180.846
180.754
180.677
180.613
180.562
180.524
180.499
180.486
180.485
180.496
180.518
397.087
391.25
385.432
379.637
373.872
368.145
362.464
356.836
351.267
345.764
340.332
334.976
329.7
324.507
319.402
314.387
309.464
304.636
299.905
295.272
290.738
286.305
281.973
277.743
273.615
269.591
265.669
261.85
258.135
254.522
251.011
247.602
244.295
241.088
237.981
234.973
232.063
229.25
226.532
223.909
221.38
218.942
216.594
214.335
212.162
210.076
208.072
206.151
204.31
202.546
200.859
199.246
197.706
196.236
194.834
193.498
192.226
191.017
189.868
188.777
187.743
186.762
185.834
184.957
184.127
183.345
182.607
181.911
181.258
180.643
180.066
179.526
179.019
178.546
178.105
177.693
177.31
176.954
176.625
176.32
176.039
175.781
175.544
175.328
175.131
174.953
174.793
174.65
174.524
174.413
174.318
174.237
174.17
174.117
174.077
174.051
174.037
174.036
174.047
174.069
397.034
391.09
385.166
379.262
373.387
367.549
361.754
356.011
350.325
344.703
339.15
333.67
328.268
322.949
317.716
312.572
307.52
302.562
297.701
292.938
288.274
283.712
279.253
274.896
270.644
266.496
262.453
258.514
254.681
250.953
247.329
243.81
240.395
237.083
233.874
230.766
227.759
224.851
222.043
219.331
216.716
214.195
211.767
209.431
207.184
205.026
202.953
200.966
199.061
197.236
195.491
193.822
192.227
190.706
189.255
187.872
186.556
185.305
184.115
182.986
181.915
180.9
179.939
179.031
178.172
177.361
176.597
175.877
175.2
174.564
173.967
173.407
172.882
172.392
171.935
171.508
171.111
170.743
170.402
170.086
169.795
169.527
169.281
169.057
168.853
168.669
168.502
168.354
168.223
168.108
168.009
167.924
167.855
167.8
167.758
167.73
167.716
167.714
167.725
167.748
396.98
390.929
384.896
378.884
372.899
366.949
361.042
355.184
349.382
343.641
337.968
332.367
326.843
321.4
316.042
310.772
305.593
300.509
295.521
290.632
285.843
281.156
276.572
272.093
267.719
263.451
259.29
255.235
251.288
247.448
243.714
240.088
236.568
233.153
229.844
226.639
223.538
220.539
217.641
214.844
212.145
209.543
207.037
204.625
202.306
200.078
197.938
195.886
193.919
192.035
190.232
188.508
186.862
185.29
183.791
182.363
181.003
179.71
178.481
177.315
176.208
175.159
174.166
173.227
172.34
171.502
170.713
169.969
169.269
168.611
167.993
167.414
166.873
166.366
165.893
165.452
165.042
164.661
164.307
163.981
163.68
163.402
163.148
162.916
162.705
162.514
162.342
162.188
162.052
161.933
161.83
161.743
161.671
161.613
161.57
161.54
161.525
161.522
161.533
161.557
396.926
390.767
384.626
378.504
372.409
366.348
360.328
354.357
348.439
342.582
336.791
331.071
325.426
319.862
314.382
308.989
303.688
298.48
293.369
288.357
283.446
278.638
273.933
269.335
264.843
260.459
256.183
252.015
247.957
244.008
240.168
236.437
232.815
229.301
225.895
222.596
219.403
216.314
213.33
210.448
207.668
204.988
202.406
199.921
197.531
195.234
193.029
190.914
188.886
186.944
185.085
183.308
181.61
179.99
178.444
176.972
175.57
174.236
172.969
171.765
170.624
169.542
168.518
167.549
166.634
165.77
164.955
164.187
163.465
162.786
162.149
161.552
160.993
160.47
159.981
159.526
159.103
158.709
158.345
158.007
157.696
157.41
157.148
156.908
156.69
156.492
156.314
156.156
156.015
155.891
155.785
155.694
155.619
155.559
155.514
155.484
155.467
155.464
155.475
155.498
396.872
390.605
384.355
378.124
371.919
365.748
359.617
353.532
347.501
341.529
335.622
329.785
324.022
318.339
312.74
307.228
301.806
296.479
291.248
286.117
281.087
276.16
271.339
266.625
262.018
257.521
253.133
248.856
244.691
240.636
236.692
232.86
229.139
225.529
222.028
218.637
215.354
212.179
209.111
206.148
203.288
200.531
197.876
195.319
192.86
190.497
188.228
186.051
183.965
181.966
180.053
178.224
176.476
174.808
173.217
171.701
170.257
168.884
167.579
166.34
165.165
164.051
162.996
161.998
161.056
160.166
159.326
158.536
157.792
157.093
156.436
155.821
155.244
154.706
154.202
153.733
153.297
152.892
152.516
152.168
151.847
151.552
151.282
151.034
150.809
150.605
150.422
150.258
150.112
149.985
149.874
149.781
149.703
149.641
149.594
149.562
149.544
149.541
149.551
149.575
396.819
390.443
384.085
377.746
371.432
365.151
358.909
352.714
346.57
340.485
334.464
328.512
322.634
316.835
311.119
305.49
299.952
294.507
289.16
283.913
278.767
273.726
268.791
263.965
259.247
254.64
250.144
245.761
241.49
237.333
233.289
229.359
225.541
221.837
218.245
214.764
211.395
208.136
204.985
201.943
199.006
196.175
193.447
190.821
188.296
185.868
183.537
181.3
179.156
177.102
175.136
173.256
171.46
169.745
168.11
166.551
165.068
163.656
162.315
161.041
159.832
158.687
157.602
156.577
155.607
154.692
153.829
153.016
152.25
151.531
150.856
150.223
149.63
149.076
148.558
148.075
147.626
147.209
146.822
146.464
146.134
145.83
145.552
145.297
145.065
144.855
144.666
144.497
144.347
144.215
144.101
144.004
143.924
143.86
143.811
143.777
143.759
143.755
143.765
143.789
396.765
390.283
383.818
377.371
370.949
364.559
358.208
351.902
345.648
339.452
333.319
327.254
321.263
315.351
309.521
303.778
298.126
292.568
287.108
281.747
276.49
271.338
266.292
261.356
256.531
251.817
247.217
242.73
238.358
234.102
229.96
225.934
222.023
218.228
214.547
210.98
207.526
204.185
200.955
197.835
194.824
191.921
189.123
186.43
183.839
181.348
178.957
176.662
174.462
172.354
170.336
168.407
166.564
164.804
163.126
161.526
160.003
158.554
157.176
155.869
154.628
153.452
152.339
151.285
150.29
149.35
148.463
147.628
146.843
146.104
145.41
144.76
144.151
143.582
143.05
142.554
142.092
141.664
141.266
140.898
140.559
140.246
139.96
139.698
139.459
139.243
139.048
138.874
138.72
138.584
138.467
138.367
138.284
138.217
138.167
138.132
138.112
138.107
138.117
138.141
396.712
390.124
383.552
376.999
370.47
363.973
357.515
351.101
344.738
338.432
332.189
326.014
319.913
313.89
307.949
302.095
296.332
290.664
285.093
279.623
274.257
268.996
263.844
258.802
253.872
249.055
244.353
239.766
235.296
230.943
226.706
222.588
218.587
214.703
210.935
207.284
203.749
200.328
197.021
193.826
190.743
187.769
184.904
182.145
179.49
176.939
174.489
172.137
169.883
167.723
165.655
163.678
161.789
159.985
158.265
156.625
155.064
153.578
152.166
150.825
149.553
148.348
147.206
146.126
145.105
144.141
143.232
142.376
141.57
140.812
140.101
139.433
138.809
138.224
137.679
137.17
136.696
136.256
135.848
135.471
135.122
134.802
134.507
134.238
133.993
133.771
133.571
133.392
133.233
133.093
132.972
132.869
132.784
132.715
132.662
132.626
132.605
132.6
132.609
132.633
396.66
389.967
383.29
376.632
369.998
363.395
356.83
350.31
343.84
337.428
331.077
324.794
318.585
312.453
306.405
300.443
294.572
288.796
283.118
277.542
272.069
266.704
261.448
256.303
251.272
246.355
241.554
236.87
232.305
227.858
223.53
219.321
215.232
211.263
207.412
203.679
200.065
196.567
193.185
189.918
186.764
183.722
180.79
177.968
175.252
172.642
170.134
167.728
165.42
163.21
161.094
159.07
157.136
155.29
153.528
151.85
150.251
148.73
147.285
145.912
144.609
143.374
142.205
141.099
140.054
139.066
138.135
137.258
136.432
135.656
134.928
134.244
133.604
133.005
132.446
131.925
131.439
130.988
130.57
130.183
129.826
129.497
129.195
128.919
128.667
128.44
128.234
128.05
127.887
127.743
127.619
127.513
127.425
127.354
127.299
127.261
127.239
127.233
127.242
127.266
396.608
389.812
383.032
376.27
369.533
362.826
356.157
349.532
342.958
336.44
329.984
323.596
317.281
311.044
304.89
298.823
292.847
286.966
281.184
275.505
269.93
264.463
259.106
253.861
248.731
243.717
238.821
234.043
229.385
224.848
220.431
216.136
211.962
207.909
203.977
200.166
196.474
192.902
189.447
186.109
182.887
179.779
176.784
173.9
171.124
168.456
165.894
163.434
161.076
158.816
156.653
154.584
152.606
150.719
148.918
147.201
145.566
144.011
142.533
141.129
139.796
138.534
137.338
136.206
135.137
134.127
133.174
132.277
131.432
130.638
129.892
129.193
128.538
127.925
127.353
126.819
126.322
125.861
125.432
125.036
124.67
124.333
124.024
123.741
123.483
123.25
123.039
122.85
122.683
122.536
122.408
122.299
122.208
122.134
122.078
122.039
122.016
122.009
122.018
122.041
396.557
389.659
382.778
375.915
369.075
362.266
355.495
348.768
342.091
335.47
328.912
322.421
316.003
309.663
303.406
297.237
291.159
285.177
279.294
273.513
267.839
262.273
256.819
251.478
246.253
241.145
236.156
231.287
226.539
221.914
217.411
213.032
208.775
204.642
200.632
196.744
192.978
189.333
185.808
182.402
179.114
175.942
172.885
169.941
167.108
164.384
161.768
159.257
156.849
154.541
152.332
150.219
148.2
146.272
144.433
142.679
141.01
139.421
137.911
136.476
135.115
133.825
132.603
131.447
130.355
129.323
128.349
127.432
126.569
125.757
124.995
124.28
123.611
122.984
122.399
121.854
121.346
120.873
120.435
120.03
119.656
119.311
118.995
118.705
118.441
118.202
117.986
117.793
117.621
117.47
117.339
117.227
117.133
117.058
117
116.959
116.935
116.927
116.935
116.959
396.507
389.51
382.529
375.566
368.626
361.718
354.846
348.019
341.242
334.521
327.862
321.27
314.752
308.312
301.955
295.686
289.509
283.428
277.447
271.57
265.799
260.137
254.588
249.154
243.836
238.637
233.558
228.602
223.768
219.057
214.471
210.01
205.674
201.463
197.377
193.415
189.577
185.862
182.269
178.797
175.445
172.211
169.094
166.092
163.203
160.426
157.757
155.196
152.74
150.386
148.133
145.978
143.918
141.951
140.074
138.285
136.581
134.96
133.419
131.956
130.567
129.25
128.003
126.823
125.708
124.654
123.661
122.725
121.843
121.015
120.237
119.507
118.823
118.183
117.586
117.028
116.51
116.027
115.58
115.166
114.783
114.431
114.107
113.811
113.542
113.297
113.076
112.878
112.702
112.548
112.413
112.298
112.202
112.124
112.064
112.022
111.997
111.988
111.996
112.019
396.459
389.363
382.285
375.224
368.187
361.18
354.211
347.286
340.41
333.591
326.835
320.145
313.53
306.992
300.538
294.172
287.899
281.722
275.646
269.674
263.81
258.056
252.415
246.89
241.483
236.196
231.03
225.988
221.07
216.278
211.612
207.072
202.659
198.372
194.213
190.179
186.272
182.489
178.83
175.295
171.881
168.587
165.412
162.353
159.41
156.581
153.862
151.252
148.75
146.351
144.055
141.859
139.759
137.754
135.842
134.018
132.282
130.629
129.058
127.566
126.15
124.808
123.536
122.333
121.196
120.122
119.109
118.154
117.255
116.41
115.616
114.872
114.174
113.522
112.912
112.344
111.814
111.322
110.865
110.443
110.052
109.692
109.362
109.06
108.784
108.534
108.309
108.106
107.926
107.768
107.63
107.512
107.414
107.334
107.272
107.228
107.201
107.192
107.199
107.222
396.411
389.22
382.046
374.89
367.757
360.655
353.59
346.569
339.598
332.684
325.832
319.047
312.337
305.704
299.156
292.696
286.329
280.06
273.891
267.828
261.873
256.029
250.299
244.687
239.193
233.821
228.572
223.448
218.449
213.577
208.833
204.217
199.729
195.37
191.139
187.037
183.062
179.214
175.491
171.894
168.42
165.068
161.837
158.725
155.73
152.849
150.082
147.426
144.878
142.436
140.099
137.862
135.725
133.683
131.736
129.879
128.11
126.428
124.828
123.308
121.866
120.498
119.203
117.978
116.819
115.725
114.693
113.72
112.805
111.943
111.135
110.376
109.665
109
108.379
107.799
107.26
106.758
106.292
105.861
105.463
105.096
104.759
104.45
104.169
103.914
103.683
103.477
103.293
103.131
102.99
102.869
102.768
102.686
102.622
102.577
102.549
102.538
102.545
102.568
396.364
389.08
381.813
374.563
367.337
360.142
352.984
345.87
338.806
331.799
324.854
317.977
311.174
304.45
297.81
291.259
284.801
278.442
272.184
266.032
259.989
254.058
248.243