/*--------------------------------*- C++ -*----------------------------------*\
| =========                 |                                                 |
| \\      /  F ield         | OpenFOAM: The Open Source CFD Toolbox           |
|  \\    /   O peration     | Version:  2406                                  |
|   \\  /    A nd           | Website:  www.openfoam.com                      |
|    \\/     M anipulation  |                                                 |
\*---------------------------------------------------------------------------*/
FoamFile
{
    version     2.0;
    format      ascii;
    arch        "LSB;label=32;scalar=64";
    class       volScalarField;
    location    "0.035";
    object      T;
}
// * * * * * * * * * * * * * * * * * * * * * * * * * * * * * * * * * * * * * //

dimensions      [0 0 0 1 0 0 0];

internalField   nonuniform List<scalar> 
12225
(
1.00694
1.00397
1.00144
1.00053
1.00001
0.99965
0.999457
0.999369
0.999322
0.999287
0.999252
0.999187
0.99904
0.99867
0.997743
0.995492
0.989694
0.975486
0.994965
0.99447
0.996349
0.997908
0.99867
0.998979
0.999136
0.999239
0.999301
0.999329
0.999328
0.999288
0.999156
0.998806
0.997917
0.995771
0.990468
0.977931
0.999592
0.99992
1
0.999967
0.999819
0.999637
0.999514
0.999448
0.999409
0.999375
0.999336
0.999271
0.999128
0.998786
0.997953
0.995987
0.99137
0.981372
1.00032
1.00007
0.999547
0.99942
0.999421
0.999388
0.999355
0.999341
0.999333
0.999321
0.999297
0.999245
0.999118
0.998809
0.998064
0.996348
0.992538
0.984892
1.00013
0.999833
0.999434
0.999387
0.999436
0.999423
0.999388
0.999364
0.999347
0.999328
0.999299
0.999245
0.999124
0.998843
0.998193
0.996753
0.993734
0.988077
0.999993
0.999846
0.999578
0.999496
0.999494
0.99946
0.999412
0.999376
0.999349
0.999322
0.999288
0.999233
0.99912
0.998873
0.998326
0.997165
0.994863
0.990788
0.999975
0.999925
0.999719
0.999592
0.999547
0.999498
0.999443
0.999398
0.999362
0.999327
0.999288
0.99923
0.999126
0.998914
0.998468
0.997569
0.995873
0.993008
0.999983
0.999963
0.999798
0.999661
0.999596
0.999539
0.999477
0.999423
0.999377
0.999335
0.99929
0.99923
0.999132
0.998949
0.998583
0.997875
0.996593
0.994492
0.999986
0.999973
0.99984
0.999706
0.999627
0.99956
0.999491
0.99943
0.999377
0.999328
0.999278
0.999216
0.999125
0.998966
0.998665
0.998105
0.997125
0.995561
0.999984
0.999963
0.999852
0.999723
0.999631
0.999554
0.999478
0.99941
0.99935
0.999295
0.99924
0.999178
0.999093
0.998958
0.998717
0.998292
0.997573
0.996453
0.99998
0.999942
0.99984
0.999715
0.999612
0.999524
0.999441
0.999365
0.999299
0.999239
0.99918
0.999118
0.99904
0.998926
0.998739
0.998428
0.997923
0.997157
0.999976
0.999921
0.999818
0.999694
0.999583
0.999486
0.999398
0.999317
0.999245
0.999179
0.999118
0.999056
0.998985
0.99889
0.998749
0.998529
0.99819
0.99769
0.999975
0.999912
0.999811
0.99969
0.999577
0.999476
0.999384
0.9993
0.999224
0.999155
0.999094
0.999033
0.998966
0.998889
0.998785
0.998634
0.998415
0.998105
0.999978
0.999919
0.999828
0.999717
0.99961
0.999512
0.999421
0.999338
0.999263
0.999196
0.999136
0.999078
0.999018
0.998955
0.998879
0.998779
0.998643
0.99846
0.999982
0.999936
0.999861
0.999769
0.999677
0.99959
0.999511
0.999438
0.99937
0.999308
0.999253
0.999203
0.999155
0.999106
0.99905
0.998985
0.998904
0.998803
0.999987
0.999957
0.999905
0.99984
0.999774
0.999712
0.999654
0.9996
0.999548
0.999503
0.999461
0.999425
0.999391
0.999357
0.999321
0.999282
0.999237
0.999185
0.999993
0.999986
0.999968
0.999941
0.999912
0.999886
0.999864
0.999841
0.99982
0.999801
0.999783
0.999767
0.999754
0.999741
0.999727
0.99971
0.999692
0.999672
1
1.00003
1.00005
1.00007
1.00009
1.00011
1.00013
1.00015
1.00017
1.00018
1.0002
1.00021
1.00022
1.00023
1.00024
1.00024
1.00024
1.00025
1.00001
1.00006
1.00011
1.00017
1.00022
1.00028
1.00034
1.00039
1.00043
1.00048
1.00051
1.00055
1.00058
1.0006
1.00063
1.00065
1.00067
1.00068
1.00001
1.00006
1.00012
1.00019
1.00026
1.00033
1.00039
1.00046
1.00052
1.00057
1.00062
1.00067
1.00071
1.00075
1.00078
1.00081
1.00084
1.00086
1.00001
1.00006
1.00012
1.00018
1.00025
1.00031
1.00038
1.00045
1.00051
1.00057
1.00062
1.00068
1.00072
1.00077
1.00081
1.00085
1.00088
1.00091
1.00001
1.00006
1.00012
1.00017
1.00023
1.0003
1.00036
1.00043
1.00049
1.00055
1.00061
1.00067
1.00072
1.00077
1.00081
1.00085
1.00089
1.00092
1
1.00008
1.00013
1.00016
1.00021
1.00027
1.00034
1.00041
1.00048
1.00054
1.0006
1.00066
1.00071
1.00076
1.00081
1.00085
1.00089
1.00093
0.999997
1.0001
1.00014
1.00015
1.00019
1.00026
1.00033
1.0004
1.00047
1.00054
1.00061
1.00067
1.00072
1.00077
1.00082
1.00086
1.00091
1.00094
1
1.00009
1.0001
1.00012
1.00019
1.00028
1.00035
1.00042
1.00049
1.00056
1.00063
1.00069
1.00074
1.00079
1.00084
1.00088
1.00093
1.00097
1.00014
1.00014
0.999953
0.999972
1.00014
1.00029
1.00039
1.00047
1.00055
1.00062
1.00068
1.00074
1.0008
1.00084
1.00089
1.00093
1.00097
1.00101
1.0005
1.00058
1.0001
0.999927
1.00003
1.00018
1.00031
1.00042
1.00053
1.00062
1.0007
1.00076
1.00082
1.00088
1.00093
1.00097
1.00102
1.00106
1.00004
1.00088
1.00115
1.00111
1.00099
1.00088
1.00081
1.0008
1.00082
1.00085
1.00088
1.00092
1.00096
1.00099
1.00103
1.00106
1.0011
1.00113
0.994517
0.993822
0.99606
0.998048
0.999185
0.99978
1.00015
1.0004
1.00059
1.00072
1.00083
1.00091
1.00098
1.00104
1.00109
1.00114
1.00118
1.00121
1.00648
1.00454
1.00223
1.0015
1.00119
1.00097
1.00088
1.00087
1.00089
1.00092
1.00096
1.00099
1.00103
1.00107
1.0011
1.00114
1.00117
1.00122
0.353054
0.352995
0.352854
0.352641
0.352364
0.352023
0.351615
0.351141
0.350605
0.350009
0.349352
0.348638
0.347868
0.347045
0.34617
0.345247
0.34428
0.34327
0.342223
0.341141
0.340029
0.338891
0.337731
0.336553
0.335361
0.33416
0.332954
0.331745
0.330536
0.329333
0.328143
0.326983
0.325889
0.324919
0.323968
0.322957
0.321973
0.320995
0.320037
0.319103
0.318184
0.317319
0.316526
0.315754
0.315032
0.31438
0.313769
0.313206
0.312689
0.31222
0.311796
0.311418
0.311084
0.310795
0.310549
0.310346
0.310185
0.310064
0.309984
0.309942
0.309938
0.30997
0.310037
0.310138
0.310272
0.310436
0.310629
0.31085
0.311096
0.311368
0.311662
0.311978
0.312312
0.312665
0.313034
0.313417
0.313813
0.31422
0.314637
0.315061
0.315491
0.315926
0.316364
0.316804
0.317243
0.317681
0.318115
0.318546
0.31897
0.319387
0.319795
0.320194
0.320581
0.320955
0.321315
0.321659
0.321986
0.322293
0.322582
0.322852
0.3231
0.323326
0.323528
0.323704
0.323854
0.323976
0.324069
0.324132
0.324164
0.324163
0.324128
0.324058
0.323951
0.323807
0.323624
0.323401
0.323136
0.322829
0.322477
0.322079
0.321634
0.321141
0.320597
0.320002
0.319354
0.318651
0.317892
0.317076
0.316201
0.315265
0.314268
0.313207
0.312081
0.310888
0.309627
0.308296
0.306894
0.305418
0.303867
0.30224
0.300535
0.29875
0.296883
0.294932
0.292896
0.290773
0.288562
0.28626
0.283867
0.28138
0.278799
0.276122
0.273347
0.270473
0.267499
0.264425
0.261248
0.257968
0.254585
0.251097
0.247504
0.243805
0.239997
0.236078
0.232048
0.227912
0.223673
0.21933
0.214886
0.21034
0.205692
0.200944
0.196097
0.191153
0.186116
0.180993
0.175807
0.170569
0.165438
0.160271
0.35477
0.354701
0.354566
0.35436
0.354087
0.353747
0.353341
0.352868
0.352328
0.351724
0.351058
0.350333
0.349551
0.348716
0.34783
0.346898
0.345921
0.344904
0.343851
0.342765
0.341651
0.340513
0.339355
0.338184
0.337003
0.33582
0.334639
0.333466
0.332307
0.331166
0.330042
0.328931
0.327827
0.326654
0.325453
0.324345
0.323297
0.322306
0.321367
0.32047
0.319623
0.318812
0.318018
0.317279
0.316599
0.315949
0.315341
0.314779
0.314262
0.313791
0.313367
0.312987
0.312653
0.312363
0.312116
0.311913
0.311751
0.311629
0.311548
0.311506
0.311501
0.311532
0.311599
0.311699
0.311832
0.311996
0.312189
0.31241
0.312657
0.312929
0.313223
0.313539
0.313875
0.314229
0.3146
0.314984
0.315382
0.315792
0.316211
0.316638
0.317071
0.317509
0.317951
0.318394
0.318837
0.319279
0.319719
0.320153
0.320583
0.321005
0.321418
0.321822
0.322215
0.322594
0.322961
0.323312
0.323647
0.323966
0.324265
0.324543
0.324799
0.325032
0.325241
0.325425
0.325583
0.325712
0.325813
0.325884
0.325923
0.32593
0.325903
0.32584
0.325742
0.325605
0.32543
0.325214
0.324956
0.324656
0.324311
0.32392
0.323483
0.322996
0.322459
0.32187
0.321228
0.320531
0.319778
0.318968
0.318098
0.317168
0.316175
0.315119
0.313997
0.312808
0.311551
0.310224
0.308824
0.307351
0.305803
0.304178
0.302474
0.30069
0.298824
0.296874
0.294838
0.292715
0.290503
0.2882
0.285806
0.283317
0.280733
0.278053
0.275275
0.272397
0.269419
0.26634
0.263158
0.259872
0.256483
0.252988
0.249387
0.245681
0.241868
0.23795
0.233927
0.229798
0.225563
0.221224
0.216781
0.212234
0.207585
0.202833
0.197981
0.193029
0.187983
0.182848
0.177646
0.172391
0.167211
0.16205
0.35827
0.358171
0.358017
0.357795
0.357505
0.357144
0.356714
0.356217
0.355654
0.355027
0.354339
0.353592
0.352789
0.351934
0.351028
0.350076
0.349081
0.348047
0.346977
0.345876
0.344747
0.343596
0.342426
0.341242
0.34005
0.338852
0.337653
0.336457
0.335266
0.334082
0.332908
0.331751
0.330615
0.329496
0.328396
0.32733
0.326298
0.325305
0.324354
0.323448
0.322591
0.321782
0.321017
0.320294
0.31961
0.318966
0.318365
0.317807
0.317294
0.316826
0.316403
0.316025
0.315692
0.315402
0.315155
0.314951
0.314789
0.314668
0.314587
0.314544
0.314539
0.314571
0.314638
0.31474
0.314874
0.315039
0.315234
0.315457
0.315707
0.315982
0.316281
0.316601
0.316942
0.317301
0.317678
0.31807
0.318475
0.318892
0.31932
0.319756
0.3202
0.320649
0.321102
0.321557
0.322013
0.322468
0.322921
0.323371
0.323815
0.324253
0.324683
0.325103
0.325513
0.325911
0.326295
0.326665
0.327018
0.327354
0.327672
0.32797
0.328246
0.3285
0.328731
0.328936
0.329116
0.329267
0.32939
0.329483
0.329545
0.329574
0.32957
0.32953
0.329454
0.32934
0.329187
0.328994
0.328759
0.32848
0.328157
0.327789
0.327372
0.326907
0.326391
0.325823
0.325201
0.324524
0.323791
0.322999
0.322148
0.321236
0.320261
0.319221
0.318116
0.316943
0.3157
0.314387
0.313001
0.311541
0.310005
0.308391
0.306697
0.304923
0.303065
0.301123
0.299094
0.296976
0.294769
0.29247
0.290078
0.287591
0.285008
0.282327
0.279547
0.276666
0.273685
0.2706
0.267412
0.264118
0.26072
0.257215
0.253603
0.249885
0.246059
0.242128
0.238092
0.233948
0.229697
0.225339
0.220876
0.216307
0.211633
0.206855
0.201973
0.196988
0.191905
0.186729
0.181477
0.176164
0.170895
0.165652
0.363507
0.363377
0.363196
0.362951
0.362635
0.362245
0.361785
0.361257
0.360662
0.360004
0.359286
0.358509
0.357677
0.356792
0.355859
0.354881
0.35386
0.352802
0.351709
0.350587
0.349439
0.348269
0.347082
0.345882
0.344674
0.343462
0.342249
0.34104
0.339837
0.338646
0.33747
0.336314
0.335181
0.334071
0.332985
0.331932
0.330913
0.329929
0.328983
0.328077
0.327213
0.326393
0.325616
0.324883
0.324194
0.323548
0.322946
0.322388
0.321875
0.321406
0.320983
0.320603
0.320268
0.319976
0.319727
0.319521
0.319356
0.319233
0.31915
0.319105
0.319099
0.31913
0.319196
0.319297
0.319432
0.319598
0.319794
0.32002
0.320273
0.320551
0.320855
0.321181
0.321528
0.321895
0.322279
0.32268
0.323096
0.323525
0.323964
0.324414
0.324872
0.325336
0.325805
0.326277
0.326752
0.327226
0.327699
0.328169
0.328636
0.329096
0.32955
0.329995
0.33043
0.330854
0.331266
0.331663
0.332045
0.33241
0.332757
0.333085
0.333392
0.333677
0.333939
0.334177
0.334388
0.334573
0.334729
0.334855
0.334951
0.335014
0.335043
0.335037
0.334995
0.334915
0.334796
0.334637
0.334436
0.334191
0.333902
0.333566
0.333183
0.33275
0.332266
0.331729
0.331138
0.330491
0.329788
0.329026
0.328203
0.327318
0.32637
0.325357
0.324277
0.323128
0.321909
0.320618
0.319253
0.317813
0.316296
0.3147
0.313023
0.311263
0.30942
0.30749
0.305472
0.303364
0.301165
0.298873
0.296486
0.294003
0.291422
0.288741
0.28596
0.283077
0.280091
0.277
0.273804
0.2705
0.26709
0.263571
0.259944
0.256208
0.252363
0.24841
0.244348
0.240176
0.235896
0.231507
0.227009
0.222403
0.217689
0.212867
0.207938
0.202902
0.197761
0.192521
0.187195
0.181795
0.176409
0.171025
0.370486
0.370324
0.370115
0.369845
0.369499
0.369078
0.368583
0.368019
0.367388
0.366692
0.365936
0.365122
0.364253
0.363332
0.362364
0.361352
0.360299
0.35921
0.358089
0.356939
0.355765
0.354572
0.353363
0.352144
0.350917
0.349689
0.348462
0.347241
0.346029
0.344832
0.343652
0.342493
0.341358
0.340248
0.339165
0.338114
0.337098
0.336117
0.335174
0.33427
0.333407
0.332585
0.331805
0.331069
0.330377
0.329728
0.329123
0.328562
0.328046
0.327574
0.327147
0.326763
0.326424
0.326128
0.325875
0.325664
0.325495
0.325368
0.32528
0.325233
0.325223
0.325251
0.325316
0.325415
0.325549
0.325715
0.325912
0.32614
0.326395
0.326678
0.326986
0.327318
0.327673
0.328047
0.328442
0.328853
0.329281
0.329722
0.330177
0.330642
0.331116
0.331599
0.332087
0.33258
0.333076
0.333574
0.334071
0.334567
0.33506
0.335549
0.336031
0.336506
0.336972
0.337428
0.337872
0.338303
0.338719
0.33912
0.339503
0.339868
0.340213
0.340537
0.340838
0.341115
0.341367
0.341592
0.34179
0.341957
0.342095
0.3422
0.342271
0.342308
0.342308
0.342271
0.342195
0.342078
0.341919
0.341716
0.341468
0.341174
0.340832
0.340439
0.339995
0.339498
0.338946
0.338338
0.337672
0.336946
0.336159
0.33531
0.334396
0.333415
0.332367
0.331249
0.330059
0.328796
0.327458
0.326044
0.32455
0.322977
0.321321
0.319581
0.317755
0.315841
0.313837
0.311742
0.309554
0.307271
0.304891
0.302412
0.299834
0.297155
0.294373
0.291486
0.288494
0.285396
0.282189
0.278873
0.275448
0.271912
0.268265
0.264506
0.260636
0.256654
0.252561
0.248355
0.244037
0.239607
0.235065
0.230412
0.225646
0.220769
0.215779
0.210677
0.205464
0.200143
0.194724
0.189216
0.183695
0.178135
0.379232
0.37904
0.378804
0.378507
0.378131
0.377674
0.377142
0.376538
0.375866
0.375128
0.374329
0.373472
0.372561
0.371599
0.370591
0.36954
0.36845
0.367325
0.36617
0.364989
0.363787
0.362566
0.361333
0.360091
0.358845
0.357599
0.356357
0.355124
0.353902
0.352697
0.351511
0.350346
0.349207
0.348094
0.34701
0.345959
0.344941
0.34396
0.343016
0.342111
0.341246
0.340422
0.33964
0.3389
0.338204
0.33755
0.33694
0.336374
0.335852
0.335374
0.334939
0.334549
0.334202
0.333899
0.333639
0.333421
0.333245
0.33311
0.333017
0.332962
0.332947
0.33297
0.33303
0.333126
0.333257
0.333421
0.333617
0.333845
0.334102
0.334387
0.334698
0.335035
0.335396
0.335778
0.336181
0.336603
0.337043
0.337497
0.337966
0.338448
0.33894
0.339442
0.339951
0.340466
0.340985
0.341508
0.342032
0.342555
0.343077
0.343596
0.34411
0.344618
0.345119
0.34561
0.346091
0.346559
0.347014
0.347455
0.347879
0.348286
0.348673
0.349041
0.349386
0.349708
0.350005
0.350277
0.350521
0.350736
0.350921
0.351074
0.351194
0.351279
0.351328
0.351339
0.351312
0.351243
0.351133
0.350979
0.350779
0.350533
0.350237
0.349892
0.349494
0.349043
0.348536
0.347972
0.34735
0.346667
0.345922
0.345113
0.344238
0.343296
0.342285
0.341202
0.340047
0.338817
0.337511
0.336126
0.334661
0.333114
0.331483
0.329767
0.327962
0.326067
0.32408
0.322
0.319825
0.317552
0.315181
0.312709
0.310135
0.307457
0.304674
0.301784
0.298786
0.295679
0.292461
0.289131
0.285689
0.282133
0.278463
0.274678
0.270779
0.266764
0.262634
0.258388
0.254027
0.24955
0.244957
0.240248
0.235423
0.23048
0.22542
0.220241
0.214943
0.209527
0.204001
0.19837
0.192699
0.186945
0.389788
0.389572
0.38931
0.388983
0.388574
0.388081
0.387509
0.386863
0.386146
0.385363
0.384518
0.383615
0.382658
0.381652
0.380599
0.379505
0.378375
0.377211
0.37602
0.374804
0.37357
0.37232
0.37106
0.369795
0.368527
0.367262
0.366004
0.364756
0.363522
0.362306
0.361111
0.359939
0.358793
0.357674
0.356586
0.35553
0.354509
0.353523
0.352575
0.351665
0.350795
0.349965
0.349177
0.348431
0.347726
0.347065
0.346446
0.345871
0.345339
0.344851
0.344406
0.344005
0.343648
0.343333
0.343062
0.342833
0.342646
0.342501
0.342397
0.342333
0.342308
0.342323
0.342375
0.342463
0.342588
0.342747
0.342939
0.343163
0.343418
0.343703
0.344015
0.344354
0.344718
0.345106
0.345516
0.345946
0.346395
0.346861
0.347343
0.347839
0.348348
0.348868
0.349396
0.349933
0.350475
0.351022
0.351572
0.352123
0.352675
0.353224
0.35377
0.354312
0.354847
0.355375
0.355893
0.356401
0.356897
0.357379
0.357846
0.358296
0.358728
0.359141
0.359533
0.359903
0.360249
0.360569
0.360863
0.361129
0.361364
0.361569
0.36174
0.361878
0.361979
0.362043
0.362068
0.362052
0.361995
0.361893
0.361746
0.361551
0.361308
0.361014
0.360667
0.360266
0.359808
0.359293
0.358719
0.358083
0.357384
0.35662
0.355789
0.35489
0.35392
0.352877
0.351761
0.350568
0.349297
0.347946
0.346513
0.344996
0.343394
0.341703
0.339922
0.33805
0.336083
0.334021
0.33186
0.329601
0.32724
0.324776
0.322207
0.319532
0.316749
0.313857
0.310853
0.307737
0.304508
0.301163
0.297703
0.294126
0.290432
0.286619
0.282688
0.278638
0.274469
0.27018
0.265771
0.261242
0.256593
0.251823
0.246931
0.241916
0.236777
0.231513
0.226121
0.220602
0.21496
0.209194
0.203365
0.197407
0.402219
0.401981
0.401691
0.401334
0.40089
0.400359
0.399745
0.399055
0.398292
0.397462
0.396569
0.395617
0.394612
0.393558
0.392458
0.39132
0.390145
0.388941
0.38771
0.386458
0.385189
0.383909
0.38262
0.381328
0.380037
0.378751
0.377474
0.376209
0.37496
0.373731
0.372523
0.37134
0.370183
0.369055
0.367959
0.366894
0.365864
0.36487
0.363913
0.362995
0.362115
0.361276
0.360477
0.359719
0.359003
0.358329
0.357697
0.357109
0.356563
0.35606
0.3556
0.355184
0.354811
0.354481
0.354193
0.353949
0.353746
0.353586
0.353466
0.353388
0.353349
0.35335
0.353389
0.353466
0.353579
0.353728
0.353911
0.354128
0.354376
0.354656
0.354964
0.355301
0.355664
0.356053
0.356465
0.356899
0.357353
0.357827
0.358318
0.358825
0.359346
0.35988
0.360425
0.360979
0.361541
0.362109
0.362682
0.363258
0.363836
0.364414
0.36499
0.365563
0.366131
0.366693
0.367248
0.367793
0.368327
0.36885
0.369358
0.369851
0.370328
0.370786
0.371224
0.371641
0.372035
0.372405
0.372749
0.373065
0.373352
0.373608
0.373833
0.374023
0.374178
0.374296
0.374375
0.374413
0.37441
0.374362
0.374269
0.374129
0.373939
0.373698
0.373404
0.373056
0.372651
0.372187
0.371663
0.371077
0.370426
0.36971
0.368926
0.368072
0.367146
0.366147
0.365072
0.363919
0.362687
0.361372
0.359974
0.358491
0.356919
0.355257
0.353504
0.351656
0.349712
0.34767
0.345527
0.343283
0.340935
0.338481
0.33592
0.33325
0.330468
0.327575
0.324567
0.321444
0.318203
0.314845
0.311368
0.30777
0.304051
0.30021
0.296247
0.292161
0.287951
0.283617
0.279159
0.274576
0.269868
0.265033
0.260072
0.254981
0.249759
0.244404
0.238913
0.233285
0.22752
0.221615
0.215623
0.20946
0.416602
0.416341
0.416024
0.415635
0.415154
0.414583
0.413926
0.413191
0.41238
0.411501
0.410558
0.409556
0.4085
0.407396
0.406249
0.405063
0.403843
0.402595
0.401323
0.400032
0.398727
0.397412
0.396093
0.394772
0.393455
0.392145
0.390845
0.38956
0.388293
0.387046
0.385822
0.384623
0.383452
0.382311
0.3812
0.380123
0.37908
0.378072
0.377101
0.376169
0.375274
0.374419
0.373605
0.37283
0.372097
0.371405
0.370755
0.370147
0.369582
0.369059
0.368579
0.368141
0.367747
0.367395
0.367087
0.36682
0.366596
0.366414
0.366274
0.366174
0.366115
0.366096
0.366116
0.366174
0.36627
0.366403
0.366571
0.366773
0.367008
0.367276
0.367574
0.367902
0.368257
0.36864
0.369047
0.369479
0.369932
0.370407
0.3709
0.371411
0.371939
0.37248
0.373035
0.373601
0.374176
0.37476
0.37535
0.375945
0.376543
0.377143
0.377744
0.378343
0.378939
0.37953
0.380116
0.380694
0.381262
0.38182
0.382366
0.382898
0.383415
0.383914
0.384395
0.384856
0.385295
0.385711
0.386102
0.386466
0.386802
0.387108
0.387383
0.387624
0.387831
0.388001
0.388132
0.388224
0.388273
0.388279
0.38824
0.388153
0.388017
0.387829
0.387588
0.387292
0.386939
0.386527
0.386055
0.385519
0.384918
0.384251
0.383515
0.382707
0.381827
0.380873
0.379841
0.37873
0.377537
0.376262
0.374901
0.373452
0.371914
0.370284
0.36856
0.366739
0.36482
0.3628
0.360679
0.358452
0.356119
0.353678
0.351127
0.348464
0.345687
0.342794
0.339785
0.336656
0.333408
0.330038
0.326545
0.322928
0.319186
0.315319
0.311325
0.307204
0.302954
0.298577
0.29407
0.289433
0.284666
0.279766
0.274734
0.269566
0.26426
0.258813
0.253222
0.247482
0.241594
0.235548
0.229394
0.223029
0.433028
0.432744
0.432397
0.431973
0.431454
0.430841
0.430139
0.429356
0.428497
0.427567
0.426573
0.425519
0.424411
0.423255
0.422057
0.420822
0.419554
0.41826
0.416945
0.415613
0.414269
0.412917
0.411563
0.410211
0.408864
0.407526
0.4062
0.404891
0.4036
0.402331
0.401086
0.399868
0.398677
0.397516
0.396387
0.39529
0.394228
0.393201
0.392211
0.391258
0.390343
0.389466
0.388629
0.387832
0.387076
0.38636
0.385685
0.385051
0.38446
0.38391
0.383403
0.382938
0.382515
0.382135
0.381797
0.381502
0.381249
0.381038
0.380869
0.380741
0.380654
0.380607
0.3806
0.380632
0.380702
0.38081
0.380954
0.381133
0.381347
0.381594
0.381872
0.382182
0.382521
0.382889
0.383283
0.383702
0.384145
0.384611
0.385098
0.385604
0.386128
0.386668
0.387223
0.387791
0.388371
0.38896
0.389558
0.390163
0.390773
0.391387
0.392003
0.392619
0.393235
0.393847
0.394456
0.395058
0.395653
0.396239
0.396815
0.397378
0.397927
0.398461
0.398978
0.399476
0.399954
0.400409
0.400841
0.401247
0.401627
0.401977
0.402297
0.402585
0.402838
0.403055
0.403235
0.403376
0.403475
0.403531
0.403541
0.403504
0.403419
0.403282
0.403091
0.402846
0.402543
0.402182
0.401758
0.401272
0.40072
0.400101
0.399412
0.398651
0.397817
0.396907
0.395918
0.394849
0.393698
0.392462
0.39114
0.389728
0.388224
0.386627
0.384934
0.383143
0.381251
0.379256
0.377157
0.374951
0.372637
0.370211
0.367673
0.36502
0.36225
0.359362
0.356353
0.353223
0.34997
0.346591
0.343086
0.339454
0.335693
0.331802
0.32778
0.323627
0.319342
0.314923
0.310371
0.305683
0.300859
0.295898
0.290797
0.285554
0.280166
0.27463
0.268939
0.263091
0.257081
0.250899
0.244589
0.23803
0.4516
0.451291
0.450912
0.45045
0.44989
0.449232
0.448484
0.447651
0.446741
0.445758
0.444709
0.443601
0.442438
0.441229
0.439977
0.43869
0.437372
0.436029
0.434667
0.43329
0.431904
0.430512
0.42912
0.427731
0.42635
0.424979
0.423623
0.422284
0.420966
0.419669
0.418398
0.417153
0.415936
0.41475
0.413595
0.412474
0.411386
0.410333
0.409316
0.408335
0.407392
0.406488
0.405621
0.404794
0.404007
0.403259
0.402552
0.401885
0.40126
0.400675
0.400133
0.399632
0.399173
0.398756
0.398382
0.398049
0.397758
0.39751
0.397303
0.397137
0.397012
0.396928
0.396884
0.39688
0.396914
0.396986
0.397095
0.397241
0.397422
0.397637
0.397885
0.398165
0.398476
0.398817
0.399185
0.399581
0.400002
0.400447
0.400914
0.401403
0.401911
0.402437
0.40298
0.403538
0.40411
0.404693
0.405287
0.405889
0.406499
0.407114
0.407734
0.408356
0.408978
0.4096
0.41022
0.410836
0.411446
0.412049
0.412643
0.413227
0.413798
0.414356
0.414898
0.415424
0.41593
0.416416
0.41688
0.417319
0.417733
0.418119
0.418476
0.418801
0.419094
0.419352
0.419573
0.419755
0.419897
0.419996
0.420051
0.420059
0.420018
0.419927
0.419782
0.419583
0.419326
0.419011
0.418634
0.418193
0.417687
0.417113
0.416469
0.415753
0.414963
0.414096
0.41315
0.412122
0.411012
0.409816
0.408531
0.407156
0.405688
0.404125
0.402465
0.400704
0.398841
0.396874
0.3948
0.392617
0.390323
0.387917
0.385394
0.382755
0.379996
0.377116
0.374113
0.370986
0.367731
0.364349
0.360837
0.357193
0.353418
0.349508
0.345464
0.341285
0.336968
0.332514
0.32792
0.323187
0.318312
0.313294
0.30813
0.302817
0.297353
0.291732
0.285949
0.279998
0.273874
0.267563
0.261106
0.254364
0.472435
0.472098
0.471684
0.47118
0.470575
0.469869
0.46907
0.468184
0.467218
0.466178
0.465071
0.463904
0.462684
0.461416
0.460107
0.458764
0.457391
0.455996
0.454582
0.453156
0.451723
0.450286
0.448851
0.447421
0.446
0.444591
0.443199
0.441824
0.440471
0.439141
0.437836
0.436558
0.435309
0.43409
0.432903
0.431748
0.430627
0.42954
0.428489
0.427473
0.426494
0.425553
0.424649
0.423783
0.422956
0.422168
0.42142
0.420712
0.420043
0.419415
0.418828
0.418282
0.417777
0.417314
0.416892
0.416512
0.416173
0.415876
0.41562
0.415406
0.415232
0.415099
0.415006
0.414953
0.414939
0.414963
0.415025
0.415124
0.415258
0.415428
0.415632
0.415868
0.416137
0.416436
0.416765
0.417121
0.417505
0.417914
0.418347
0.418803
0.41928
0.419777
0.420293
0.420825
0.421373
0.421934
0.422508
0.423092
0.423686
0.424288
0.424895
0.425507
0.426122
0.426739
0.427355
0.427969
0.42858
0.429185
0.429784
0.430374
0.430954
0.431523
0.432077
0.432617
0.433139
0.433642
0.434125
0.434586
0.435023
0.435433
0.435816
0.436168
0.43649
0.436777
0.437029
0.437244
0.437419
0.437553
0.437643
0.437688
0.437684
0.437631
0.437525
0.437365
0.437148
0.436873
0.436537
0.436137
0.435672
0.435139
0.434536
0.433861
0.433111
0.432284
0.431378
0.43039
0.429318
0.42816
0.426913
0.425575
0.424142
0.422613
0.420986
0.419257
0.417425
0.415486
0.41344
0.411282
0.409012
0.406627
0.404125
0.401503
0.398759
0.395892
0.392899
0.389778
0.386529
0.383148
0.379634
0.375986
0.372202
0.368281
0.364221
0.360022
0.355681
0.351198
0.346571
0.3418
0.336881
0.331814
0.326595
0.321222
0.315689
0.309993
0.304126
0.298082
0.291855
0.285426
0.278836
0.271928
0.495663
0.495295
0.494841
0.49429
0.493634
0.492874
0.492017
0.491071
0.490043
0.48894
0.487769
0.486537
0.485251
0.483919
0.482547
0.481141
0.479708
0.478253
0.476783
0.475302
0.473815
0.472327
0.470842
0.469365
0.467898
0.466444
0.465008
0.463591
0.462195
0.460824
0.459478
0.45816
0.45687
0.455611
0.454382
0.453186
0.452023
0.450893
0.449799
0.448739
0.447715
0.446727
0.445776
0.444863
0.443987
0.443149
0.442349
0.441588
0.440867
0.440184
0.439542
0.43894
0.438378
0.437856
0.437375
0.436935
0.436536
0.436178
0.435861
0.435584
0.435348
0.435152
0.434996
0.43488
0.434803
0.434764
0.434763
0.434799
0.434872
0.43498
0.435122
0.435299
0.435508
0.435748
0.436019
0.43632
0.436648
0.437003
0.437384
0.437789
0.438217
0.438666
0.439136
0.439624
0.440129
0.44065
0.441185
0.441733
0.442293
0.442862
0.443439
0.444023
0.444612
0.445205
0.4458
0.446395
0.446988
0.447579
0.448165
0.448745
0.449317
0.449879
0.45043
0.450967
0.45149
0.451996
0.452483
0.45295
0.453394
0.453815
0.454209
0.454576
0.454912
0.455217
0.455488
0.455723
0.45592
0.456077
0.456192
0.456262
0.456286
0.45626
0.456184
0.456054
0.455869
0.455626
0.455322
0.454956
0.454525
0.454027
0.453459
0.45282
0.452105
0.451315
0.450444
0.449493
0.448457
0.447334
0.446123
0.444819
0.443421
0.441926
0.440331
0.438635
0.436834
0.434925
0.432908
0.430778
0.428534
0.426174
0.423694
0.421094
0.41837
0.41552
0.412542
0.409435
0.406196
0.402823
0.399315
0.395669
0.391884
0.387959
0.383891
0.37968
0.375324
0.370822
0.366171
0.361371
0.356419
0.351313
0.34605
0.340626
0.335037
0.329277
0.323339
0.317215
0.310899
0.304367
0.297661
0.290604
0.521429
0.521025
0.520524
0.519919
0.519203
0.518379
0.517455
0.516438
0.515338
0.514161
0.512915
0.511608
0.510248
0.508841
0.507396
0.505919
0.504416
0.502894
0.501358
0.499813
0.498265
0.496718
0.495176
0.493642
0.492121
0.490615
0.489127
0.487659
0.486213
0.484792
0.483396
0.482028
0.480689
0.479379
0.4781
0.476853
0.475638
0.474456
0.473307
0.472193
0.471113
0.470068
0.469059
0.468086
0.46715
0.46625
0.465388
0.464562
0.463775
0.463026
0.462316
0.461644
0.461012
0.460419
0.459865
0.459351
0.458877
0.458443
0.458049
0.457695
0.45738
0.457106
0.45687
0.456674
0.456517
0.456397
0.456316
0.456271
0.456263
0.456291
0.456353
0.45645
0.45658
0.456742
0.456935
0.457159
0.457411
0.457692
0.457999
0.458332
0.45869
0.45907
0.459472
0.459895
0.460336
0.460796
0.461271
0.461761
0.462265
0.462781
0.463307
0.463842
0.464384
0.464933
0.465485
0.466041
0.466597
0.467153
0.467707
0.468256
0.468801
0.469338
0.469865
0.470383
0.470887
0.471377
0.471851
0.472307
0.472743
0.473157
0.473547
0.473911
0.474247
0.474554
0.474829
0.47507
0.475275
0.475442
0.475568
0.475651
0.47569
0.475681
0.475623
0.475513
0.475348
0.475128
0.474848
0.474506
0.474101
0.47363
0.47309
0.472479
0.471794
0.471033
0.470194
0.469274
0.46827
0.467179
0.465999
0.464728
0.463362
0.4619
0.460337
0.458672
0.456903
0.455025
0.453038
0.450938
0.448722
0.44639
0.443937
0.441361
0.438661
0.435834
0.432877
0.429789
0.426566
0.423209
0.419713
0.416077
0.4123
0.408379
0.404313
0.4001
0.395739
0.391228
0.386565
0.381747
0.376774
0.371641
0.366346
0.360885
0.355253
0.349444
0.34345
0.337262
0.330873
0.324257
0.317455
0.310273
0.549895
0.549447
0.548889
0.548219
0.54743
0.546528
0.545521
0.544418
0.543229
0.541961
0.540624
0.539226
0.537776
0.536281
0.534749
0.533187
0.531603
0.530001
0.528388
0.52677
0.52515
0.523533
0.521924
0.520325
0.518739
0.517171
0.515621
0.514092
0.512586
0.511105
0.50965
0.508222
0.506822
0.505452
0.504111
0.502801
0.501523
0.500276
0.499062
0.497881
0.496733
0.495619
0.494539
0.493494
0.492483
0.491508
0.490569
0.489665
0.488798
0.487968
0.487174
0.486418
0.4857
0.485019
0.484376
0.483772
0.483206
0.482679
0.482191
0.481741
0.48133
0.480958
0.480624
0.480328
0.480071
0.479851
0.479668
0.479522
0.479412
0.479338
0.479299
0.479294
0.479322
0.479384
0.479477
0.479601
0.479755
0.479938
0.480149
0.480386
0.48065
0.480937
0.481249
0.481582
0.481936
0.48231
0.482702
0.483111
0.483536
0.483975
0.484426
0.484889
0.485362
0.485843
0.486331
0.486824
0.487321
0.48782
0.488319
0.488817
0.489313
0.489803
0.490288
0.490764
0.49123
0.491685
0.492126
0.492551
0.492959
0.493348
0.493715
0.49406
0.494379
0.494671
0.494933
0.495164
0.495361
0.495522
0.495644
0.495727
0.495766
0.495761
0.495707
0.495605
0.495449
0.495239
0.494972
0.494645
0.494256
0.493802
0.493281
0.492691
0.492028
0.49129
0.490475
0.48958
0.488602
0.487539
0.486387
0.485145
0.483808
0.482375
0.480843
0.479209
0.47747
0.475623
0.473667
0.471598
0.469413
0.46711
0.464687
0.462141
0.459469
0.456669
0.453738
0.450675
0.447476
0.444141
0.440665
0.437048
0.433287
0.42938
0.425326
0.421122
0.416767
0.412259
0.407595
0.402773
0.397791
0.392646
0.387334
0.381851
0.376192
0.37035
0.364317
0.358083
0.351641
0.344962
0.338086
0.330804
0.581267
0.580766
0.580138
0.579383
0.5785
0.577495
0.576379
0.575163
0.573857
0.572472
0.571018
0.569504
0.56794
0.566334
0.564695
0.563029
0.561345
0.559647
0.557942
0.556235
0.55453
0.552831
0.551141
0.549464
0.547803
0.54616
0.544537
0.542936
0.541358
0.539805
0.538278
0.536778
0.535305
0.533861
0.532446
0.53106
0.529705
0.52838
0.527086
0.525823
0.524592
0.523393
0.522227
0.521094
0.519993
0.518926
0.517893
0.516894
0.51593
0.515
0.514106
0.513247
0.512424
0.511637
0.510886
0.510172
0.509494
0.508853
0.50825
0.507684
0.507155
0.506664
0.50621
0.505792