/*--------------------------------*- C++ -*----------------------------------*\
  =========                 |
  \\      /  F ield         | OpenFOAM: The Open Source CFD Toolbox
   \\    /   O peration     | Website:  https://openfoam.org
    \\  /    A nd           | Version:  10
     \\/     M anipulation  |
\*---------------------------------------------------------------------------*/
FoamFile
{
    format      ascii;
    class       volScalarField;
    location    "7";
    object      ddt0(T);
}
// * * * * * * * * * * * * * * * * * * * * * * * * * * * * * * * * * * * * * //

dimensions      [0 0 -1 1 0 0 0];

internalField   nonuniform List<scalar> 
10000
(
5355.72
2381.24
2416.5
2460.78
2469.86
2471.62
2472.09
2472.26
2472.33
2472.37
2472.39
2472.41
2472.43
2472.45
2472.47
2472.48
2472.5
2472.51
2472.53
2472.54
2472.55
2472.56
2472.57
2472.58
2472.59
2472.6
2472.61
2472.61
2472.62
2472.63
2472.63
2472.63
2472.64
2472.64
2472.64
2472.64
2472.65
2472.65
2472.65
2472.65
2472.65
2472.65
2472.64
2472.64
2472.64
2472.64
2472.64
2472.63
2472.63
2472.63
2472.63
2472.62
2472.62
2472.62
2472.61
2472.61
2472.61
2472.6
2472.6
2472.6
2472.6
2472.59
2472.59
2472.59
2472.58
2472.58
2472.58
2472.58
2472.57
2472.57
2472.57
2472.57
2472.56
2472.56
2472.56
2472.56
2472.56
2472.55
2472.55
2472.55
2472.55
2472.55
2472.55
2472.55
2472.54
2472.54
2472.54
2472.54
2472.54
2472.54
2472.54
2472.54
2472.54
2472.53
2472.5
2472.31
2471.09
2464.24
2446.41
2791.08
2774.79
-777.493
-571.164
-466.938
-446.268
-442.569
-441.666
-441.338
-441.188
-441.1
-441.033
-440.975
-440.921
-440.869
-440.819
-440.772
-440.727
-440.684
-440.643
-440.604
-440.568
-440.535
-440.504
-440.475
-440.448
-440.423
-440.401
-440.381
-440.363
-440.346
-440.332
-440.32
-440.309
-440.3
-440.293
-440.288
-440.284
-440.281
-440.28
-440.28
-440.281
-440.284
-440.287
-440.292
-440.297
-440.303
-440.309
-440.317
-440.325
-440.333
-440.342
-440.351
-440.36
-440.369
-440.379
-440.388
-440.398
-440.408
-440.417
-440.427
-440.436
-440.446
-440.455
-440.463
-440.472
-440.48
-440.488
-440.496
-440.504
-440.511
-440.518
-440.525
-440.531
-440.537
-440.543
-440.548
-440.553
-440.558
-440.563
-440.567
-440.572
-440.576
-440.579
-440.583
-440.586
-440.589
-440.592
-440.595
-440.597
-440.6
-440.602
-440.605
-440.608
-440.615
-440.647
-440.855
-442.211
-449.748
-476.427
-412.063
2782.3
-613.83
-317.649
-187.423
-160.92
-155.961
-154.728
-154.279
-154.063
-153.929
-153.823
-153.728
-153.638
-153.552
-153.469
-153.39
-153.314
-153.242
-153.174
-153.11
-153.05
-152.993
-152.941
-152.892
-152.847
-152.806
-152.768
-152.734
-152.704
-152.676
-152.652
-152.632
-152.614
-152.599
-152.587
-152.577
-152.571
-152.566
-152.564
-152.564
-152.566
-152.57
-152.576
-152.583
-152.592
-152.602
-152.613
-152.625
-152.638
-152.652
-152.666
-152.681
-152.696
-152.712
-152.728
-152.744
-152.76
-152.776
-152.792
-152.808
-152.823
-152.839
-152.854
-152.868
-152.883
-152.897
-152.91
-152.923
-152.936
-152.948
-152.959
-152.97
-152.981
-152.991
-153.001
-153.01
-153.018
-153.027
-153.034
-153.042
-153.049
-153.055
-153.061
-153.067
-153.073
-153.078
-153.083
-153.087
-153.091
-153.095
-153.099
-153.103
-153.108
-153.114
-153.127
-153.188
-153.715
-157.356
-172.685
-156.574
2816.27
-526.105
-205.054
-67.2478
-38.7747
-33.2834
-31.8709
-31.3378
-31.0691
-30.8921
-30.7479
-30.6165
-30.4919
-30.3723
-30.2573
-30.147
-30.0417
-29.9415
-29.8466
-29.757
-29.6729
-29.5941
-29.5207
-29.4527
-29.3899
-29.3323
-29.2797
-29.232
-29.1892
-29.1511
-29.1175
-29.0884
-29.0635
-29.0428
-29.026
-29.0129
-29.0034
-28.9974
-28.9945
-28.9946
-28.9975
-29.0031
-29.011
-29.0211
-29.0333
-29.0472
-29.0628
-29.0798
-29.098
-29.1173
-29.1375
-29.1584
-29.1799
-29.2019
-29.2242
-29.2466
-29.2692
-29.2917
-29.314
-29.3362
-29.358
-29.3795
-29.4005
-29.421
-29.441
-29.4605
-29.4793
-29.4975
-29.515
-29.5318
-29.548
-29.5635
-29.5783
-29.5924
-29.6058
-29.6186
-29.6308
-29.6423
-29.6532
-29.6635
-29.6732
-29.6823
-29.691
-29.6991
-29.7067
-29.7139
-29.7206
-29.7269
-29.7328
-29.7384
-29.7438
-29.7494
-29.7566
-29.7676
-29.7834
-29.7945
-29.8298
-30.5332
-34.6851
-28.6631
2823.48
-508.619
-182.143
-42.43
-13.3455
-7.63488
-6.12198
-5.52836
-5.21402
-4.99732
-4.81598
-4.64907
-4.4901
-4.33728
-4.19031
-4.04933
-3.91459
-3.78634
-3.66477
-3.55001
-3.44211
-3.34111
-3.24698
-3.15965
-3.07904
-3.00505
-2.93755
-2.87641
-2.82147
-2.77258
-2.72955
-2.69221
-2.66036
-2.63379
-2.61229
-2.59563
-2.58357
-2.57587
-2.57229
-2.57256
-2.57643
-2.58365
-2.59394
-2.60706
-2.62273
-2.64073
-2.66078
-2.68266
-2.70614
-2.73097
-2.75696
-2.7839
-2.81159
-2.83985
-2.8685
-2.89739
-2.92637
-2.95529
-2.98404
-3.01251
-3.04058
-3.06817
-3.09519
-3.12159
-3.14729
-3.17224
-3.19641
-3.21976
-3.24226
-3.2639
-3.28467
-3.30455
-3.32356
-3.34169
-3.35895
-3.37537
-3.39095
-3.40572
-3.4197
-3.43292
-3.4454
-3.45717
-3.46825
-3.47868
-3.48848
-3.49768
-3.50631
-3.51439
-3.52196
-3.52908
-3.53591
-3.54291
-3.55155
-3.56543
-3.59027
-3.62433
-3.63525
-3.62996
-3.89844
-1.32188
2824.9
-505.481
-177.855
-37.6394
-8.3405
-2.5236
-0.945698
-0.303775
0.0518036
0.306518
0.524121
0.726053
0.918942
1.10456
1.28316
1.45454
1.61837
1.77437
1.92229
2.06197
2.19333
2.31633
2.43098
2.53737
2.63556
2.7257
2.80792
2.88238
2.94927
3.00877
3.06111
3.10651
3.1452
3.17745
3.20351
3.22366
3.2382
3.24742
3.25162
3.25112
3.24624
3.23728
3.22457
3.20843
3.18917
3.16709
3.1425
3.11569
3.08695
3.05654
3.02474
2.99179
2.95793
2.92338
2.88835
2.85304
2.81763
2.78228
2.74715
2.71238
2.67809
2.64439
2.61138
2.57915
2.54777
2.5173
2.48779
2.45929
2.43182
2.4054
2.38006
2.35579
2.3326
2.31047
2.2894
2.26937
2.25036
2.23235
2.21529
2.19917
2.18396
2.16961
2.15609
2.14338
2.13143
2.12022
2.1097
2.09985
2.09063
2.08198
2.07382
2.06581
2.05688
2.04392
2.01997
1.97693
1.92622
1.93753
2.23546
3.37001
2825.29
-504.705
-176.78
-36.3955
-6.99902
-1.11767
0.50948
1.19354
1.58782
1.87935
2.13251
2.36893
2.59525
2.8132
3.02298
3.22431
3.41681
3.60013
3.774
3.93821
4.09266
4.23731
4.37215
4.49727
4.61276
4.71875
4.81542
4.90295
4.98155
5.05145
5.11289
5.16615
5.2115
5.24925
5.27972
5.30322
5.32011
5.33073
5.33544
5.33462
5.32863
5.31785
5.30266
5.28343
5.26053
5.23432
5.20516
5.17339
5.13934
5.10335
5.06572
5.02675
4.9867
4.94586
4.90446
4.86273
4.82089
4.77913
4.73764
4.69657
4.65608
4.61629
4.57732
4.53927
4.50222
4.46626
4.43143
4.39779
4.36537
4.33421
4.3043
4.27567
4.24831
4.22222
4.19737
4.17375
4.15133
4.13009
4.10998
4.09098
4.07305
4.05614
4.04021
4.02523
4.01116
3.99794
3.98556
3.97396
3.9631
3.95296
3.94345
3.93444
3.9254
3.91454
3.89685
3.8628
3.80635
3.76133
3.92869
4.51171
2825.44
-504.417
-176.379
-35.9143
-6.45866
-0.529323
1.13991
1.86292
2.29433
2.62176
2.9098
3.18011
3.43931
3.68906
3.92949
4.16024
4.3809
4.59106
4.7904
4.97869
5.1558
5.32167
5.47631
5.61979
5.75222
5.87374
5.98454
6.08484
6.17487
6.25489
6.3252
6.38609
6.43789
6.48096
6.51564
6.54232
6.5614
6.57328
6.57838
6.57712
6.56992
6.55723
6.53947
6.51708
6.49048
6.46008
6.4263
6.38953
6.35016
6.30856
6.26508
6.22007
6.17384
6.12669
6.07892
6.03078
5.98252
5.93436
5.88652
5.83917
5.79249
5.74663
5.70172
5.65787
5.61519
5.57375
5.53363
5.49488
5.45754
5.42165
5.38721
5.35424
5.32274
5.2927
5.2641
5.23691
5.21111
5.18667
5.16354
5.14168
5.12105
5.10161
5.08329
5.06607
5.04989
5.0347
5.02047
5.00714
4.99468
4.98303
4.97216
4.962
4.95237
4.94251
4.92977
4.90698
4.86148
4.79083
4.80901
5.24928
2825.51
-504.279
-176.18
-35.6625
-6.16162
-0.191144
1.5168
2.27697
2.74441
3.10695
3.42918
3.73274
4.02419
4.30512
4.57559
4.8352
5.08344
5.31988
5.54415
5.756
5.95528
6.14191
6.3159
6.47731
6.62627
6.76294
6.88752
7.00025
7.10139
7.19125
7.27013
7.3384
7.39641
7.44456
7.48325
7.51293
7.53402
7.547
7.55233
7.5505
7.54198
7.52727
7.50685
7.48122
7.45084
7.4162
7.37774
7.33593
7.2912
7.24396
7.19462
7.14355
7.09112
7.03768
6.98353
6.92899
6.87431
6.81977
6.76559
6.71199
6.65914
6.60723
6.5564
6.50678
6.45849
6.41161
6.36622
6.32239
6.28016
6.23956
6.20062
6.16335
6.12774
6.09378
6.06145
6.03073
6.00158
5.97396
5.94783
5.92314
5.89985
5.87789
5.85723
5.83779
5.81953
5.80239
5.78634
5.77131
5.75725
5.74413
5.73189
5.7205
5.70991
5.69989
5.68934
5.67378
5.6396
5.56033
5.47722
5.94769
2825.54
-504.194
-176.05
-35.4904
-5.94981
0.0587513
1.8036
2.59975
3.10234
3.49919
3.85489
4.191
4.514
4.82544
5.12528
5.41307
5.68826
5.95036
6.19897
6.43381
6.65471
6.86157
7.05441
7.23329
7.39833
7.54972
7.68768
7.81246
7.92437
8.02372
8.11088
8.18623
8.25017
8.30316
8.34563
8.37808
8.401
8.4149
8.42031
8.41776
8.40778
8.39093
8.36776
8.33878
8.30456
8.26559
8.22241
8.17551
8.12538
8.07247
8.01724
7.96011
7.90148
7.84173
7.78121
7.72027
7.6592
7.59829
7.53779
7.47794
7.41896
7.36103
7.30431
7.24894
7.19507
7.14277
7.09215
7.04327
6.99618
6.95092
6.90751
6.86596
6.82627
6.78843
6.7524
6.71818
6.68571
6.65495
6.62585
6.59837
6.57244
6.54801
6.52501
6.50339
6.48308
6.46403
6.44618
6.42947
6.41386
6.39929
6.38571
6.37308
6.36138
6.35061
6.34046
6.32844
6.30207
6.21991
6.0617
6.62394
2825.56
-504.129
-175.945
-35.3469
-5.76903
0.275967
2.05653
2.88769
3.42456
3.85494
4.24331
4.6112
4.965
5.30618
5.63467
5.94992
6.25136
6.53845
6.81074
7.06795
7.30986
7.5364
7.74754
7.94336
8.124
8.28965
8.44054
8.57696
8.69924
8.80773
8.90281
8.98492
9.05451
9.11206
9.15806
9.19305
9.21758
9.2322
9.23751
9.23408
9.2225
9.20339
9.17734
9.14493
9.10676
9.06341
9.01544
8.9634
8.90782
8.84922
8.78807
8.72486
8.66002
8.59396
8.52708
8.45975
8.39229
8.32503
8.25823
8.19217
8.12708
8.06315
8.00057
7.9395
7.88007
7.8224
7.76658
7.71269
7.66077
7.61088
7.56304
7.51725
7.47352
7.43183
7.39215
7.35445
7.31869
7.28483
7.2528
7.22256
7.19403
7.16715
7.14186
7.11808
7.09576
7.07483
7.05522
7.03687
7.01973
7.00374
6.98884
6.975
6.96219
6.95047
6.93991
6.9293
6.90787
6.82503
6.60606
7.27158
2825.58
-504.07
-175.849
-35.2148
-5.6011
0.479174
2.29445
3.15969
3.72998
4.193
4.61321
5.01203
5.39581
5.76593
6.12225
6.4642
6.79113
7.10247
7.39775
7.67664
7.93893
8.1845
8.41336
8.62557
8.82127
9.00067
9.16402
9.31164
9.44387
9.56109
9.66374
9.75227
9.82717
9.88898
9.93824
9.97552
10.0014
10.0166
10.0216
10.0171
10.0038
9.98225
9.95319
9.91725
9.87505
9.82724
9.77441
9.71718
9.65611
9.59177
9.52469
9.45538
9.38431
9.31195
9.23871
9.165
9.09117
9.01757
8.94451
8.87226
8.80108
8.73119
8.66278
8.59604
8.5311
8.46809
8.40711
8.34824
8.29155
8.23707
8.18483
8.13485
8.08711
8.04161
7.99831
7.95718
7.91818
7.88125
7.84633
7.81335
7.78226
7.75297
7.72542
7.69954
7.67524
7.65246
7.63112
7.61117
7.59254
7.57516
7.55898
7.54396
7.53006
7.51735
7.50607
7.49584
7.47751
7.39519
7.12765
7.88677
2825.6
-504.015
-175.758
-35.0888
-5.44039
0.674123
2.52313
3.42151
4.02426
4.51902
4.97015
5.399
5.81185
6.21003
6.59334
6.96115
7.31276
7.64758
7.96509
8.26494
8.54691
8.81086
9.0568
9.28479
9.49499
9.6876
9.86291
10.0212
10.163
10.2885
10.3983
10.4929
10.5728
10.6385
10.6907
10.73
10.7571
10.7725
10.777
10.7713
10.7561
10.732
10.6998
10.6602
10.6139
10.5615
10.5038
10.4413
10.3747
10.3046
10.2315
10.1561
10.0788
10.0002
9.92056
9.84048
9.7603
9.68039
9.60108
9.52268
9.44544
9.36962
9.29543
9.22305
9.15264
9.08434
9.01824
8.95444
8.89301
8.83398
8.77739
8.72325
8.67156
8.62229
8.57541
8.5309
8.48869
8.44873
8.41095
8.37529
8.34167
8.31002
8.28025
8.25229
8.22605
8.20147
8.17845
8.15693
8.13684
8.11811
8.10069
8.08451
8.06956
8.05587
8.04379
8.03341
8.01701
7.93592
7.63224
8.46724
2825.62
-503.963
-175.671
-34.9675
-5.28539
0.862328
2.74404
3.67454
4.30877
4.83427
5.31534
5.77326
6.21424
6.63955
7.04894
7.44172
7.81716
8.17462
8.51356
8.83361
9.13452
9.41616
9.67851
9.92165
10.1457
10.351
10.5377
10.7062
10.857
10.9904
11.1069
11.2072
11.2917
11.361
11.4159
11.4569
11.4848
11.5003
11.5041
11.497
11.4796
11.4529
11.4174
11.3741
11.3235
11.2665
11.2038
11.136
11.0638
10.9879
10.9088
10.8273
10.7438
10.6588
10.5728
10.4864
10.3999
10.3137
10.2282
10.1437
10.0604
9.9787
9.89876
9.82079
9.74495
9.67139
9.60022
9.53154
9.46541
9.40189
9.34099
9.28274
9.22713
9.17414
9.12374
9.07588
9.03051
8.98756
8.94698
8.90867
8.87257
8.83859
8.80665
8.77665
8.74852
8.72216
8.69751
8.67446
8.65296
8.63293
8.61429
8.59701
8.58103
8.56641
8.55349
8.5427
8.52742
8.44799
8.12035
9.01141
2825.64
-503.912
-175.587
-34.8504
-5.13585
1.04398
2.95731
3.91887
4.5835
5.13869
5.64866
6.13463
6.60274
7.0542
7.4887
7.90553
8.3039
8.68313
9.04266
9.3821
9.70118
9.99976
10.2778
10.5354
10.7728
10.9901
11.1876
11.3658
11.5251
11.6659
11.7888
11.8942
11.983
12.0556
12.1128
12.1553
12.1837
12.199
12.2019
12.1931
12.1735
12.1439
12.105
12.0578
12.0029
11.9411
11.8733
11.8002
11.7224
11.6406
11.5556
11.4679
11.3781
11.2868
11.1946
11.1018
11.009
10.9165
10.8248
10.7342
10.645
10.5574
10.4718
10.3882
10.307
10.2283
10.1521
10.0786
10.0078
9.93981
9.87466
9.81235
9.75288
9.69621
9.64233
9.59117
9.54268
9.4968
9.45345
9.41255
9.37401
9.33775
9.30367
9.27168
9.2417
9.21362
9.18736
9.16284
9.13996
9.11867
9.09887
9.08052
9.06357
9.04805
9.03431
9.02297
9.00825
8.93077
8.59033
9.51818
2825.65
-503.864
-175.506
-34.7379
-4.99193
1.21886
3.16267
4.15414
4.84807
5.43184
5.96962
6.48255
6.97674
7.45332
7.91195
8.35184
8.7722
9.17229
9.55155
9.90954
10.246
10.5607
10.8538
11.1252
11.3751
11.6038
11.8116
11.9989
12.1662
12.3139
12.4426
12.5529
12.6455
12.721
12.7801
12.8237
12.8525
12.8674
12.8691
12.8584
12.8364
12.8037
12.7613
12.71
12.6507
12.5842
12.5112
12.4326
12.3491
12.2615
12.1704
12.0766
11.9806
11.883
11.7844
11.6853
11.5862
11.4875
11.3896
11.293
11.1978
11.1045
11.0132
10.9242
10.8376
10.7537
10.6725
10.5942
10.5189
10.4465
10.3772
10.3108
10.2475
10.1873
10.1299
10.0755
10.024
9.97521
9.92914
9.88569
9.84476
9.80626
9.77009
9.73616
9.70437
9.67461
9.6468
9.62084
9.59665
9.57413
9.55323
9.53385
9.51597
9.4996
9.48508
9.47312
9.45859
9.3833
9.03974
9.98685
2825.67
-503.817
-175.428
-34.6299
-4.85386
1.38667
3.35975
4.37996
5.10199
5.71319
6.27764
6.81643
7.33559
7.83623
8.31794
8.7799
9.22126
9.64128
10.0393
10.415
10.768
11.0981
11.4054
11.6898
11.9517
12.1911
12.4086
12.6044
12.7791
12.9332
13.0673
13.182
13.278
13.356
13.4168
13.4612
13.49
13.5041
13.5044
13.4917
13.467
13.4311
13.385
13.3296
13.2657
13.1943
13.1161
13.032
12.9428
12.8493
12.7522
12.6521
12.5499
12.446
12.3411
12.2357
12.1303
12.0255
11.9215
11.8188
11.7178
11.6187
11.5218
11.4273
11.3355
11.2465
11.1604
11.0774
10.9975
10.9208
10.8473
10.777
10.71
10.6461
10.5854
10.5278
10.4732
10.4216
10.3729
10.3269
10.2837
10.243
10.2048
10.1689
10.1354
10.104
10.0747
10.0473
10.0218
9.99817
9.97619
9.95585
9.93708
9.91991
9.90466
9.89205
9.87746
9.80466
9.46599
10.4171
2825.68
-503.773
-175.354
-34.5268
-4.72188
1.54713
3.54823
4.59593
5.34485
5.98227
6.57221
7.1357
7.67871
8.20231
8.70602
9.18901
9.65038
10.0894
10.5053
10.8978
11.2664
11.6111
11.9318
12.2285
12.5016
12.7511
12.9776
13.1814
13.363
13.5229
13.6619
13.7805
13.8795
13.9596
14.0217
14.0665
14.0951
14.1082
14.1068
14.0919
14.0643
14.0251
13.9751
13.9154
13.8469
13.7704
13.6869
13.5973
13.5023
13.4029
13.2997
13.1935
13.085
12.9748
12.8636
12.752
12.6404
12.5293
12.4193
12.3107
12.2038
12.099
11.9965
11.8967
11.7996
11.7056
11.6146
11.5269
11.4426
11.3616
11.284
11.2098
11.1391
11.0717
11.0077
10.947
10.8894
10.835
10.7837
10.7353
10.6897
10.6469
10.6067
10.569
10.5337
10.5007
10.47
10.4413
10.4146
10.3898
10.3668
10.3455
10.3259
10.308
10.292
10.2788
10.264
10.194
9.86659
10.8087
2825.7
-503.73
-175.284
-34.4286
-4.59617
1.7
3.72784
4.80175
5.5763
6.2387
6.85292
7.43992
8.00563
8.55105
9.07568
9.57862
10.059
10.5159
10.9488
11.3571
11.7405
12.0989
12.4323
12.7406
13.0241
13.2831
13.5179
13.729
13.9169
14.0822
14.2255
14.3476
14.4491
14.531
14.594
14.639
14.6669
14.6788
14.6755
14.658
14.6274
14.5846
14.5307
14.4666
14.3933
14.3117
14.2229
14.1276
14.0268
13.9214
13.8121
13.6997
13.585
13.4685
13.3511
13.2332
13.1154
12.9982
12.8822
12.7676
12.655
12.5445
12.4366
12.3314
12.2292
12.1301
12.0344
11.9421
11.8533
11.7681
11.6865
11.6085
11.5341
11.4633
11.396
11.3322
11.2718
11.2146
11.1607
11.1099
11.0621
11.0172
10.975
10.9355
10.8986
10.8641
10.8319
10.8019
10.774
10.7482
10.7242
10.7021
10.6817
10.6631
10.6465
10.6326
10.6175
10.5506
10.2393
11.162
2825.71
-503.69
-175.217
-34.3354
-4.47687
1.84513
3.89837
4.99719
5.79608
6.48221
7.11946
7.72876
8.31598
8.88207
9.4265
9.94832
10.4466
10.9205
11.3693
11.7926
12.1899
12.5612
12.9063
13.2254
13.5186
13.7863
14.0288
14.2466
14.4403
14.6104
14.7576
14.8826
14.9863
15.0694
15.133
15.1778
15.2048
15.2151
15.2097
15.1895
15.1557
15.1092
15.0511
14.9824
14.9042
14.8175
14.7232
14.6223
14.5157
14.4042
14.2888
14.1702
14.0492
13.9266
13.8029
13.6788
13.5548
13.4316
13.3095
13.1891
13.0707
12.9547
12.8413
12.7309
12.6236
12.5196
12.4192
12.3223
12.2292
12.1398
12.0543
11.9725
11.8945
11.8203
11.7498
11.683
11.6197
11.5599
11.5034
11.4503
11.4003
11.3533
11.3093
11.268
11.2295
11.1935
11.1599
11.1287
11.0997
11.0728
11.0479
11.0249
11.0038
10.9845
10.9674
10.9529
10.9375
10.8738
10.5822
11.4771
2825.72
-503.653
-175.154
-34.2473
-4.36404
1.98242
4.05971
5.18211
6.00404
6.7126
7.37163
8.002
8.60953
9.19513
9.75822
10.2978
10.813
11.3028
11.7666
12.2038
12.6141
12.9974
13.3535
13.6826
13.9848
14.2605
14.5101
14.7339
14.9327
15.107
15.2576
15.3852
15.4905
15.5746
15.6383
15.6826
15.7084
15.7169
15.709
15.6859
15.6486
15.5982
15.5358
15.4625
15.3793
15.2873
15.1875
15.0809
14.9683
14.8509
14.7294
14.6046
14.4774
14.3485
14.2185
14.0883
13.9582
13.829
13.701
13.5748
13.4507
13.3291
13.2104
13.0947
12.9824
12.8736
12.7685
12.6672
12.5698
12.4763
12.3868
12.3014
12.2199
12.1423
12.0687
11.9989
11.9328
11.8704
11.8115
11.756
11.7039
11.655
11.6091
11.5661
11.526
11.4886
11.4537
11.4212
11.3911
11.3632
11.3375
11.3137
11.2919
11.2721
11.2543
11.2393
11.2236
11.1633
10.8936
11.7547
2825.74
-503.617
-175.094
-34.1644
-4.25772
2.11183
4.21181
5.35643
6.20008
6.92978
7.60932
8.25953
8.88616
9.49009
10.0707
10.627
11.1579
11.6626
12.1404
12.5906
13.013
13.4074
13.7737
14.1119
14.4224
14.7054
14.9613
15.1906
15.394
15.572
15.7254
15.855
15.9616
16.0462
16.1096
16.153
16.1774
16.1837
16.1732
16.1469
16.106
16.0516
15.9847
15.9066
15.8183
15.721
15.6155
15.5031
15.3847
15.2612
15.1335
15.0026
14.8692
14.734
14.5979
14.4615
14.3254
14.1901
14.0563
13.9243
13.7946
13.6676
13.5436
13.4228
13.3055
13.1919
13.0822
12.9765
12.8749
12.7774
12.6841
12.595
12.51
12.4292
12.3525
12.2798
12.211
12.146
12.0847
12.027
11.9728
11.9219
11.8743
11.8297
11.788
11.7492
11.713
11.6794
11.6483
11.6195
11.5929
11.5684
11.5459
11.5255
11.5073
11.4917
11.4756
11.4189
11.1723
11.9952
2825.75
-503.584
-175.039
-34.0865
-4.15788
2.23335
4.35465
5.52016
6.3842
7.13374
7.83251
8.5013
9.14581
9.76689
10.3639
10.9357
11.4813
11.9999
12.4906
12.953
13.3865
13.7911
14.1667
14.5134
14.8314
15.1209
15.3825
15.6167
15.824
16.0051
16.1608
16.2919
16.3994
16.484
16.5469
16.5891
16.6116
16.6156
16.6022
16.5725
16.5278
16.4691
16.3976
16.3146
16.2211
16.1183
16.0073
15.8891
15.7647
15.6351
15.5013
15.3642
15.2245
15.0832
14.941
14.7984
14.6563
14.5152
14.3755
14.2378
14.1026
13.9702
13.8409
13.7151
13.5929
13.4746
13.3604
13.2503
13.1446
13.0431
12.9461
12.8534
12.7651
12.6811
12.6013
12.5258
12.4543
12.3868
12.3232
12.2633
12.2071
12.1543
12.1049
12.0587
12.0156
11.9754
11.938
11.9033
11.8712
11.8414
11.814
11.7889
11.7659
11.7449
11.7262
11.7102
11.6937
11.6405
11.4174
12.1994
2825.76
-503.553
-174.987
-34.0137
-4.06449
2.34705
4.48829
5.67333
6.55643
7.3245
8.04123
8.72735
9.38854
10.0256
10.6378
11.224
11.7833
12.3147
12.8174
13.2908
13.7347
14.1486
14.5327
14.887
15.2117
15.5071
15.7737
16.0121
16.2227
16.4064
16.564
16.6962
16.804
16.8883
16.9503
16.9909
17.0113
17.0126
16.996
16.9627
16.914
16.8509
16.7747
16.6867
16.5879
16.4796
16.3628
16.2387
16.1084
15.9727
15.8328
15.6895
15.5437
15.3962
15.2479
15.0993
14.9512
14.8042
14.6588
14.5155
14.3748
14.237
14.1026
13.9717
13.8448
13.7218
13.6032
13.4889
13.379
13.2737
13.173
13.0768
12.9852
12.898
12.8153
12.737
12.6629
12.593
12.5271
12.4651
12.4069
12.3523
12.3012
12.2534
12.2089
12.1674
12.1288
12.0931
12.06
12.0294
12.0013
11.9755
11.9519
11.9305
11.9113
11.8948
11.8781
11.8283
11.6283
12.368
2825.77
-503.524
-174.938
-33.9459
-3.97748
2.45298
4.6128
5.81603
6.71687
7.50217
8.2356
8.93781
9.61445
10.2663
10.8925
11.4922
12.064
12.6072
13.1209
13.6044
14.0576
14.48
14.8718
15.2329
15.5635
15.8641
16.1351
16.377
16.5904
16.7762
16.935
17.0678
17.1755
17.2592
17.3198
17.3586
17.3765
17.3749
17.355
17.3179
17.2649
17.1973
17.1163
17.0231
16.9189
16.805
16.6825
16.5525
16.4161
16.2744
16.1283
15.9789
15.8269
15.6733
15.5189
15.3643
15.2103
15.0575
14.9064
14.7576
14.6115
14.4685
14.3289
14.1932
14.0615
13.934
13.811
13.6925
13.5787
13.4696
13.3652
13.2656
13.1707
13.0805
12.9949
12.9139
12.8372
12.7649
12.6968
12.6328
12.5726
12.5163
12.4635
12.4143
12.3684
12.3256
12.2859
12.2491
12.2151
12.1837
12.1549
12.1285
12.1044
12.0825
12.063
12.0461
12.0292
11.9826
11.8048
12.5021
2825.78
-503.497
-174.893
-33.8829
-3.89676
2.55125
4.7283
5.94838
6.86564
7.6669
8.41575
9.13282
9.82372
10.4892
11.1284
11.7402
12.3236
12.8775
13.4012
13.894
14.3555
14.7856
15.1842
15.5513
15.8872
16.1923
16.4669
16.7118
16.9274
17.1146
17.2743
17.4072
17.5145
17.597
17.656
17.6925
17.7078
17.703
17.6794
17.6383
17.581
17.5086
17.4226
17.3242
17.2146
17.095
16.9667
16.8307
16.6883
16.5405
16.3884
16.2328
16.0747
15.915
15.7546
15.5941
15.4342
15.2756
15.1189
14.9646
14.8132
14.665
14.5205
14.3799
14.2435
14.1116
13.9843
13.8617
13.7439
13.6311
13.5232
13.4202
13.3222
13.229
13.1406
13.0569
12.9778
12.9032
12.8329
12.7668
12.7048
12.6467
12.5924
12.5417
12.4945
12.4505
12.4098
12.372
12.3371
12.305
12.2755
12.2485
12.2239
12.2017
12.1818
12.1646
12.1474
12.1039
11.947
12.6024
2825.78
-503.472
-174.851
-33.8248
-3.82223
2.64198
4.83493
6.07054
7.00293
7.81887
8.5819
9.31262
10.0166
10.6945
11.3455
11.9685
12.5624
13.126
13.6587
14.1598
14.6289
15.0657
15.4703
15.8427
16.1831
16.4919
16.7696
17.0168
17.2341
17.4223
17.5822
17.7149
17.8212
17.9023
17.9592
17.9932
18.0055
17.9973
17.9698
17.9245
17.8626
17.7855
17.6944
17.5906
17.4754
17.3501
17.216
17.0741
16.9256
16.7718
16.6135
16.4518
16.2876
16.1219
15.9555
15.7891
15.6234
15.4592
15.297
15.1372
14.9805
14.8273
14.6778
14.5325
14.3916
14.2552
14.1237
13.9971
13.8755
13.759
13.6477
13.5414
13.4403
13.3442
13.253
13.1667
13.0852
13.0083
12.936
12.8679
12.8041
12.7444
12.6886
12.6364
12.5879
12.5428
12.501
12.4623
12.4266
12.3937
12.3636
12.3361
12.3111
12.2885
12.2683
12.2508
12.2334
12.1928
12.0552
12.6699
2825.79
-503.449
-174.813
-33.7714
-3.75376
2.72531
4.93284
6.18269
7.12893
7.95829
8.73428
9.47745
10.1933
10.8825
11.5443
12.1774
12.7806
13.3531
13.8938
14.4022
14.878
15.3208
15.7306
16.1074
16.4517
16.7636
17.0437
17.2926
17.511
17.6996
17.8594
17.9913
18.0963
18.1755
18.2301
18.2613
18.2703
18.2584
18.2269
18.1772
18.1106
18.0285
17.9321
17.8229
17.7021
17.5711
17.431
17.2832
17.1287
16.9688
16.8044
16.6366
16.4664
16.2947
16.1224
15.9502
15.7788
15.609
15.4413
15.2762
15.1143
14.9561
14.8018
14.6518
14.5063
14.3657
14.2301
14.0995
13.9742
13.8541
13.7394
13.6299
13.5258
13.4268
13.333
13.2442
13.1603
13.0812
13.0068
12.9369
12.8714
12.81
12.7527
12.6992
12.6495
12.6033
12.5605
12.5209
12.4844
12.4508
12.4201
12.3921
12.3667
12.3438
12.3234
12.3055
12.288
12.25
12.1301
12.7059
2825.8
-503.428
-174.778
-33.7227
-3.69123
2.8014
5.02221
6.28503
7.24388
8.08544
8.87318
9.62762
10.3542
11.0537
11.7251
12.3672
12.9789
13.5591
14.1069
14.6218
15.1033
15.5513
15.9655
16.3461
16.6934
17.0078
17.2897
17.5397
17.7587
17.9472
18.1064
18.2371
18.3404
18.4174
18.4693
18.4974
18.5029
18.4871
18.4514
18.3971
18.3256
18.2384
18.1367
18.022
17.8955
17.7587
17.6127
17.4589
17.2984
17.1324
16.9619
16.7881
16.612
16.4343
16.2561
16.0782
15.9011
15.7258
15.5527
15.3824
15.2154
15.0523
14.8932
14.7386
14.5888
14.4439
14.3043
14.1699
14.0409
13.9173
13.7993
13.6867
13.5796
13.4778
13.3814
13.2901
13.204
13.1228
13.0464
12.9746
12.9074
12.8445
12.7857
12.731
12.6801
12.6328
12.589
12.5486
12.5113
12.4772
12.4459
12.4174
12.3916
12.3684
12.3478
12.3297
12.3121
12.2766
12.1724
12.7112
2825.81
-503.41
-174.747
-33.6784
-3.63449
2.87042
5.10326
6.37781
7.34803
8.20059
8.99891
9.76347
10.4997
11.2083
11.8882
12.5384
13.1575
13.7445
14.2986
14.8191
15.3055
15.7578
16.1757
16.5593
16.9091
17.2252
17.5083
17.759
17.9779
18.1659
18.324
18.4531
18.5543
18.6288
18.6777
18.7024
18.7041
18.6842
18.644
18.585
18.5086
18.4161
18.309
18.1887
18.0565
17.9138
17.7619
17.6021
17.4356
17.2635
17.0871
16.9073
16.7252
16.5417
16.3577
16.174
15.9914
15.8106
15.6322
15.4568
15.2848
15.1168
14.9531
14.794
14.6399
14.4909
14.3473
14.2091
14.0765
13.9496
13.8283
13.7127
13.6026
13.4982
13.3992
13.3056
13.2172
13.134
13.0556
12.9821
12.9133
12.8488
12.7887
12.7327
12.6806
12.6324
12.5877
12.5464
12.5085
12.4737
12.4419
12.413
12.3869
12.3634
12.3426
12.3244
12.3067
12.2734
12.1831
12.6871
2825.81
-503.392
-174.718
-33.6386
-3.58339
2.93256
5.1762
6.46125
7.44167
8.30406
9.11181
9.88537
10.6302
11.3468
12.0343
12.6915
13.317
13.9099
14.4693
14.9946
15.4852
15.9409
16.3618
16.7478
17.0993
17.4166
17.7003
17.951
18.1694
18.3565
18.513
18.6402
18.7389
18.8105
18.8562
18.8772
18.8749
18.8506
18.8059
18.742
18.6604
18.5626
18.45
18.324
18.1861
18.0375
17.8797
17.7139
17.5413
17.3633
17.1808
16.9951
16.8071
16.6178
16.4281
16.2388
16.0508
15.8646
15.681
15.5005
15.3236
15.1508
14.9826
14.8191
14.6607
14.5077
14.3602
14.2183
14.0823
13.952
13.8276
13.709
13.5961
13.4891
13.3876
13.2917
13.2012
13.1159
13.0357
12.9605
12.89
12.8242
12.7627
12.7055
12.6523
12.6031
12.5575
12.5155
12.4769
12.4416
12.4093
12.38
12.3536
12.3299
12.3089
12.2905
12.2728
12.2415
12.1635
12.6349
2825.82
-503.377
-174.693
-33.6029
-3.53776
2.98802
5.24126
6.53565
7.5251
8.39618
9.21225
9.99374
10.746
11.4697
12.1637
12.8269
13.458
14.056
14.6198
15.1489
15.6429
16.1014
16.5245
16.9122
17.2648
17.5827
17.8665
18.1167
18.3342
18.5197
18.6744
18.7991
18.8951
18.9635
19.0056
19.0227
19.0162
18.9874
18.9379
18.869
18.7822
18.6789
18.5608
18.4291
18.2853
18.1309
17.9671
17.7953
17.6168
17.4328
17.2444
17.0528
16.8589
16.6639
16.4686
16.2738
16.0803
15.8888
15.7001
15.5146
15.333
15.1555
14.9828
14.815
14.6525
14.4955
14.3442
14.1988
14.0593
13.9258
13.7983
13.6768
13.5613
13.4516
13.3478
13.2496
13.157
13.0698
12.9878
12.9109
12.8389
12.7716
12.7089
12.6505
12.5964
12.5462
12.4998
12.4571
12.4178
12.3819
12.3492
12.3196
12.2928
12.269
12.2479
12.2294
12.2117
12.1822
12.1149
12.5557
2825.82
-503.364
-174.67
-33.5714
-3.49744
3.03701
5.2987
6.60129
7.59866
8.47733
9.30065
10.089
10.8478
11.5774
12.2771
12.9454
13.5812
14.1832
14.7507
15.2829
15.7795
16.2401
16.6647
17.0534
17.4065
17.7245
18.0077
18.257
18.473
18.6567
18.809
18.9311
19.0239
19.0889
19.1271
19.1401
19.1291
19.0957
19.0412
18.9671
18.875
18.7663
18.6425
18.505
18.3554
18.1951
18.0254
17.8476
17.6632
17.4732
17.2789
17.0815
16.8819
16.6812
16.4803
16.2801
16.0813
15.8846
15.6909
15.5005
15.3141
15.1321
14.955
14.783
14.6165
14.4556
14.3007
14.1517
14.0089
13.8722
13.7417
13.6174
13.4992
13.3871
13.2809
13.1806
13.0859
12.9968
12.9131
12.8346
12.7612
12.6926
12.6286
12.5691
12.5139
12.4629
12.4157
12.3723
12.3324
12.296
12.2629
12.2329
12.206
12.1819
12.1607
12.1422
12.1246
12.0967
12.0385
12.451
2825.82
-503.352
-174.65
-33.5439
-3.46222
3.07976
5.34879
6.65849
7.66269
8.5479
9.37743
10.1716
10.9359
11.6706
12.3749
13.0475
13.687
14.2924
14.8627
15.3973
15.8957
16.3576
16.7832
17.1723
17.5253
17.8427
18.125
18.3728
18.587
18.7684
18.918
19.037
19.1264
19.1876
19.2218
19.2304
19.2149
19.1765
19.117
19.0376
18.9401
18.8258
18.6963
18.5531
18.3977
18.2314
18.0558
17.8721
17.6817
17.4859
17.2858
17.0826
16.8773
16.671
16.4646
16.259
16.055
15.8533
15.6546
15.4595
15.2685
15.082
14.9006
14.7245
14.554
14.3894
14.2309
14.0785
13.9324
13.7927
13.6593
13.5322
13.4115
13.2969
13.1885
13.086
12.9894
12.8985
12.8131
12.7331
12.6582
12.5883
12.5231
12.4626
12.4065
12.3545
12.3066
12.2625
12.2221
12.1853
12.1518
12.1215
12.0943
12.0701
12.0488
12.0303
12.0128
11.9864
11.9361
12.3221
2825.83
-503.342
-174.634
-33.5202
-3.43193
3.11651
5.39181
6.70756
7.71756
8.6083
9.44305
10.2421
11.0109
11.7498
12.4579
13.1338
13.7763
14.3841
14.9565
15.4927
15.9923
16.455
16.8808
17.2697
17.6222
17.9385
18.2193
18.4652
18.6771
18.8558
19.0024
19.118
19.2038
19.261
19.2909
19.2949
19.2746
19.2312
19.1665
19.0818
18.9787
18.8588
18.7236
18.5746
18.4133
18.2412
18.0596
17.8701
17.6738
17.4722
17.2663
17.0574
16.8465
16.6347
16.423
16.2121
16.0029
15.7963
15.5927
15.3929
15.1974
15.0066
14.8209
14.6408
14.4665
14.2982
14.1362
13.9805
13.8313
13.6885
13.5523
13.4226
13.2994
13.1825
13.0718
12.9673
12.8688
12.7762
12.6891
12.6076
12.5313
12.4602
12.3939
12.3324
12.2753
12.2225
12.1739
12.1292
12.0883
12.051
12.0171
11.9866
11.9592
11.9349
11.9136
11.895
11.8776
11.8526
11.8089
12.1703
2825.83
-503.333
-174.619
-33.5002
-3.40635
3.14751
5.42806
6.74885
7.76367
8.65895
9.49797
10.301
11.0734
11.8157
12.5266
13.2051
13.8497
14.4593
15.033
15.5702
16.0703
16.5331
16.9585
17.3467
17.698
18.0128
18.2916
18.5353
18.7445
18.9202
19.0634
19.1754
19.2572
19.3101
19.3355
19.3349
19.3095
19.2611
19.191
19.1009
18.9923
18.8667
18.7257
18.5709
18.4037
18.2257
18.0383
17.8429
17.6409
17.4334
17.2219
17.0074
16.791
16.5738
16.3567
16.1407
15.9265
15.7149
15.5066
15.3023
15.1023
14.9073
14.7175
14.5335
14.3554
14.1836
14.0181
13.8592
13.7069
13.5613
13.4223
13.29
13.1644
13.0452
12.9324
12.826
12.7256
12.6312
12.5427
12.4597
12.3821
12.3097
12.2424
12.1798
12.1219
12.0684
12.0191
11.9738
11.9324
11.8947
11.8605
11.8297
11.8021
11.7777
11.7564
11.7378
11.7206
11.6968
11.6588
11.9972
2825.83
-503.326
-174.607
-33.4837
-3.38526
3.17303
5.45785
6.78273
7.8014
8.70032
9.5427
10.3488
11.124
11.8687
12.5818
13.262
13.908
14.5187
15.093
15.6305
16.1304
16.5927
17.0173
17.4043
17.7539
18.0667
18.3432
18.5841
18.7903
18.9626
19.1022
19.2102
19.2878
19.3363
19.357
19.3515
19.3211
19.2674
19.1919
19.0963
18.982
18.8508
18.704
18.5434
18.3704
18.1866
17.9934
17.7922
17.5843
17.3712
17.154