/*--------------------------------*- C++ -*----------------------------------*\
  =========                 |
  \\      /  F ield         | OpenFOAM: The Open Source CFD Toolbox
   \\    /   O peration     | Website:  https://openfoam.org
    \\  /    A nd           | Version:  10
     \\/     M anipulation  |
\*---------------------------------------------------------------------------*/
FoamFile
{
    format      ascii;
    class       volScalarField;
    location    "7";
    object      T;
}
// * * * * * * * * * * * * * * * * * * * * * * * * * * * * * * * * * * * * * //

dimensions      [0 0 0 1 0 0 0];

internalField   nonuniform List<scalar> 
10000
(
374.938
361.125
356.33
354.165
352.94
352.126
351.525
351.051
350.657
350.318
350.02
349.751
349.506
349.279
349.068
348.87
348.683
348.505
348.337
348.176
348.022
347.875
347.734
347.6
347.47
347.346
347.227
347.114
347.004
346.9
346.8
346.704
346.612
346.525
346.441
346.361
346.285
346.213
346.144
346.078
346.016
345.957
345.901
345.848
345.798
345.751
345.707
345.665
345.625
345.588
345.553
345.52
345.49
345.461
345.434
345.409
345.386
345.364
345.344
345.325
345.308
345.292
345.277
345.263
345.251
345.239
345.228
345.219
345.21
345.202
345.194
345.187
345.181
345.176
345.171
345.166
345.162
345.159
345.156
345.153
345.151
345.149
345.147
345.146
345.144
345.143
345.143
345.142
345.142
345.142
345.142
345.142
345.143
345.143
345.144
345.145
345.146
345.147
345.148
345.151
388.45
374.34
366.341
361.538
358.389
356.145
354.433
353.054
351.898
350.898
350.013
349.214
348.483
347.807
347.176
346.584
346.024
345.493
344.989
344.507
344.047
343.607
343.185
342.781
342.394
342.022
341.666
341.325
340.997
340.684
340.383
340.096
339.821
339.559
339.308
339.069
338.841
338.624
338.417
338.221
338.035
337.858
337.69
337.532
337.382
337.24
337.106
336.98
336.862
336.751
336.646
336.548
336.456
336.37
336.289
336.214
336.144
336.079
336.019
335.963
335.911
335.862
335.818
335.777
335.739
335.704
335.672
335.643
335.616
335.592
335.569
335.549
335.531
335.514
335.499
335.486
335.474
335.464
335.454
335.446
335.439
335.433
335.428
335.423
335.42
335.417
335.415
335.414
335.413
335.413
335.413
335.414
335.415
335.417
335.419
335.422
335.425
335.428
335.432
335.436
392.951
381.459
373.168
367.266
362.944
359.646
357.02
354.849
352.999
351.381
349.937
348.628
347.426
346.311
345.268
344.287
343.36
342.479
341.641
340.842
340.077
339.346
338.645
337.973
337.329
336.711
336.118
335.55
335.006
334.484
333.984
333.506
333.049
332.612
332.194
331.796
331.417
331.055
330.711
330.385
330.074
329.78
329.501
329.237
328.987
328.751
328.529
328.319
328.122
327.936
327.762
327.598
327.445
327.302
327.168
327.043
326.927
326.818
326.718
326.624
326.537
326.457
326.383
326.315
326.252
326.194
326.14
326.091
326.047
326.006
325.969
325.935
325.905
325.877
325.853
325.83
325.811
325.793
325.777
325.764
325.752
325.742
325.733
325.726
325.72
325.716
325.712
325.71
325.708
325.708
325.709
325.71
325.712
325.715
325.719
325.723
325.728
325.734
325.74
325.747
394.824
385.387
377.613
371.421
366.486
362.484
359.163
356.339
353.883
351.707
349.746
347.955
346.303
344.765
343.323
341.963
340.675
339.452
338.285
337.172
336.107
335.087
334.109
333.172
332.273
331.41
330.583
329.79
329.029
328.3
327.602
326.934
326.295
325.684
325.101
324.545
324.014
323.509
323.029
322.572
322.138
321.726
321.337
320.967
320.618
320.289
319.978
319.685
319.409
319.149
318.906
318.677
318.463
318.263
318.076
317.901
317.738
317.587
317.446
317.315
317.194
317.082
316.978
316.882
316.794
316.713
316.638
316.57
316.508
316.451
316.399
316.352
316.309
316.271
316.236
316.205
316.177
316.153
316.131
316.112
316.095
316.081
316.069
316.059
316.051
316.044
316.04
316.036
316.034
316.034
316.034
316.036
316.039
316.043
316.048
316.054
316.061
316.069
316.078
316.088
395.759
387.665
380.484
374.327
369.104
364.656
360.825
357.478
354.509
351.839
349.408
347.172
345.095
343.154
341.328
339.602
337.964
336.405
334.917
333.495
332.134
330.83
329.579
328.38
327.228
326.124
325.064
324.047
323.072
322.138
321.243
320.386
319.567
318.784
318.036
317.322
316.642
315.994
315.377
314.791
314.235
313.707
313.206
312.733
312.285
311.862
311.462
311.086
310.732
310.399
310.087
309.794
309.519
309.262
309.022
308.797
308.589
308.394
308.213
308.045
307.89
307.746
307.613
307.49
307.377
307.272
307.177
307.089
307.009
306.936
306.87
306.809
306.754
306.705
306.66
306.621
306.585
306.553
306.525
306.501
306.48
306.462
306.446
306.433
306.423
306.414
306.408
306.404
306.401
306.4
306.401
306.404
306.407
306.413
306.419
306.427
306.436
306.446
306.457
306.469
396.284
389.042
382.339
376.31
370.961
366.228
362.025
358.262
354.863
351.762
348.909
346.263
343.791
341.468
339.276
337.197
335.22
333.336
331.535
329.812
328.16
326.577
325.058
323.599
322.199
320.855
319.565
318.328
317.141
316.003
314.913
313.87
312.872
311.917
311.006
310.136
309.307
308.518
307.766
307.052
306.373
305.729
305.119
304.542
303.996
303.48
302.993
302.535
302.103
301.697
301.316
300.959
300.624
300.31
300.017
299.744
299.489
299.252
299.031
298.827
298.637
298.461
298.299
298.149
298.011
297.884
297.767
297.661
297.563
297.474
297.392
297.319
297.252
297.192
297.137
297.089
297.045
297.007
296.973
296.943
296.917
296.895
296.876
296.86
296.847
296.837
296.829
296.824
296.821
296.82
296.821
296.824
296.828
296.834
296.842
296.852
296.862
296.875
296.888
296.903
396.597
389.893
383.531
377.626
372.218
367.293
362.808
358.712
354.95
351.474
348.243
345.221
342.382
339.702
337.161
334.746
332.443
330.243
328.138
326.121
324.186
322.329
320.546
318.834
317.189
315.61
314.093
312.638
311.241
309.903
308.62
307.392
306.217
305.093
304.02
302.996
302.019
301.089
300.204
299.362
298.563
297.804
297.086
296.405
295.762
295.154
294.581
294.04
293.532
293.053
292.604
292.183
291.788
291.418
291.073
290.751
290.451
290.171
289.911
289.67
289.446
289.239
289.048
288.871
288.708
288.559
288.421
288.295
288.18
288.075
287.979
287.892
287.813
287.742
287.678
287.621
287.57
287.524
287.484
287.449
287.418
287.392
287.369
287.351
287.335
287.323
287.314
287.308
287.304
287.303
287.304
287.307
287.313
287.32
287.329
287.34
287.353
287.367
287.383
287.401
396.786
390.417
384.279
378.461
373.012
367.941
363.234
358.861
354.789
350.983
347.412
344.049
340.869
337.853
334.983
332.247
329.631
327.128
324.728
322.425
320.214
318.09
316.049
314.088
312.203
310.392
308.652
306.982
305.379
303.842
302.369
300.959
299.609
298.318
297.085
295.908
294.786
293.717
292.699
291.732
290.813
289.941
289.114
288.332
287.592
286.893
286.234
285.612
285.027
284.477
283.961
283.476
283.022
282.597
282.2
281.829
281.484
281.162
280.863
280.586
280.328
280.09
279.87
279.667
279.479
279.307
279.149
279.004
278.872
278.751
278.64
278.54
278.45
278.368
278.294
278.228
278.169
278.117
278.07
278.03
277.995
277.964
277.938
277.917
277.899
277.885
277.875
277.867
277.863
277.862
277.863
277.866
277.872
277.881
277.891
277.904
277.918
277.935
277.953
277.973
396.898
390.727
384.72
378.946
373.451
368.255
363.359
358.748
354.405
350.305
346.427
342.75
339.254
335.923
332.743
329.7
326.786
323.99
321.305
318.726
316.246
313.862
311.569
309.364
307.244
305.206
303.247
301.366
299.561
297.829
296.168
294.578
293.056
291.6
290.209
288.881
287.615
286.409
285.26
284.168
283.131
282.147
281.214
280.331
279.496
278.707
277.963
277.261
276.6
275.979
275.396
274.849
274.336
273.856
273.408
272.989
272.599
272.236
271.898
271.585
271.294
271.025
270.776
270.547
270.335
270.141
269.962
269.798
269.649
269.512
269.387
269.274
269.172
269.079
268.996
268.921
268.855
268.795
268.743
268.697
268.657
268.623
268.593
268.569
268.549
268.533
268.521
268.513
268.508
268.506
268.507
268.511
268.518
268.527
268.539
268.553
268.569
268.588
268.608
268.631
396.957
390.889
384.943
379.173
373.618
368.303
363.235
358.413
353.826
349.46
345.302
341.335
337.545
333.918
330.444
327.11
323.909
320.832
317.873
315.026
312.286
309.649
307.111
304.668
302.317
300.057
297.884
295.796
293.791
291.867
290.023
288.256
286.564
284.946
283.399
281.923
280.515
279.173
277.896
276.681
275.527
274.433
273.395
272.412
271.483
270.605
269.776
268.995
268.26
267.569
266.919
266.31
265.74
265.205
264.706
264.24
263.806
263.402
263.026
262.677
262.353
262.054
261.777
261.521
261.286
261.069
260.87
260.688
260.521
260.369
260.23
260.104
259.99
259.887
259.794
259.711
259.637
259.571
259.512
259.461
259.416
259.378
259.345
259.318
259.296
259.278
259.264
259.255
259.249
259.247
259.248
259.253
259.26
259.27
259.283
259.299
259.317
259.337
259.36
259.384
396.98
390.947
385.009
379.206
373.575
368.138
362.909
357.89
353.079
348.47
344.052
339.815
335.749
331.844
328.091
324.48
321.005
317.659
314.436
311.33
308.338
305.455
302.677
300.003
297.428
294.95
292.567
290.276
288.076
285.965
283.939
281.998
280.14
278.362
276.663
275.04
273.492
272.017
270.613
269.278
268.009
266.805
265.664
264.583
263.561
262.595
261.684
260.825
260.016
259.255
258.541
257.87
257.243
256.655
256.106
255.593
255.115
254.67
254.256
253.872
253.516
253.186
252.882
252.6
252.341
252.103
251.884
251.683
251.499
251.332
251.179
251.04
250.915
250.801
250.699
250.607
250.525
250.453
250.388
250.332
250.283
250.24
250.204
250.174
250.149
250.129
250.114
250.104
250.097
250.095
250.096
250.101
250.109
250.12
250.134
250.15
250.17
250.192
250.217
250.244
396.976
390.928
384.957
379.094
373.369
367.806
362.418
357.213
352.192
347.354
342.693
338.203
333.878
329.71
325.692
321.817
318.08
314.475
310.997
307.641
304.405
301.283
298.274
295.374
292.58
289.89
287.302
284.814
282.423
280.127
277.924
275.813
273.791
271.856
270.007
268.241
266.556
264.95
263.42
261.966
260.584
259.273
258.03
256.852
255.739
254.686
253.693
252.757
251.876
251.047
250.269
249.538
248.854
248.213
247.615
247.056
246.535
246.05
245.599
245.18
244.792
244.433
244.1
243.794
243.511
243.251
243.012
242.793
242.593
242.41
242.244
242.093
241.956
241.832
241.72
241.62
241.531
241.451
241.381
241.319
241.265
241.219
241.179
241.146
241.119
241.097
241.081
241.069
241.062
241.059
241.06
241.065
241.073
241.085
241.1
241.118
241.139
241.164
241.19
241.22
396.952
390.853
384.817
378.87
373.037
367.341
361.794
356.408
351.187
346.132
341.242
336.513
331.942
327.524
323.254
319.127
315.138
311.285
307.561
303.965
300.492
297.14
293.906
290.786
287.779
284.883
282.095
279.413
276.835
274.359
271.983
269.705
267.523
265.435
263.438
261.531
259.711
257.976
256.325
254.754
253.261
251.844
250.5
249.228
248.024
246.887
245.814
244.802
243.849
242.953
242.112
241.322
240.582
239.89
239.242
238.638
238.075
237.55
237.063
236.61
236.19
235.801
235.442
235.11
234.805
234.523
234.265
234.028
233.812
233.614
233.434
233.27
233.122
232.988
232.867
232.758
232.662
232.576
232.499
232.432
232.374
232.324
232.281
232.245
232.215
232.192
232.174
232.161
232.153
232.149
232.15
232.155
232.164
232.177
232.193
232.212
232.234
232.26
232.289
232.32
396.914
390.736
384.611
378.561
372.608
366.771
361.065
355.502
350.087
344.824
339.714
334.758
329.952
325.296
320.785
316.416
312.188
308.095
304.136
300.307
296.606
293.03
289.577
286.245
283.031
279.934
276.951
274.08
271.32
268.668
266.123
263.682
261.343
259.104
256.963
254.918
252.966
251.105
249.333
247.647
246.046
244.525
243.083
241.718
240.426
239.205
238.053
236.967
235.944
234.982
234.078
233.23
232.436
231.692
230.997
230.348
229.743
229.18
228.656
228.17
227.719
227.302
226.916
226.559
226.231
225.929
225.651
225.397
225.164
224.951
224.758
224.582
224.422
224.278
224.148
224.032
223.928
223.835
223.753
223.681
223.618
223.564
223.517
223.479
223.447
223.421
223.401
223.387
223.378
223.375
223.375
223.38
223.389
223.402
223.419
223.44
223.464
223.491
223.521
223.555
396.865
390.587
384.355
378.186
372.102
366.119
360.252
354.513
348.909
343.445
338.125
332.95
327.92
323.036
318.294
313.694
309.234
304.912
300.725
296.671
292.75
288.958
285.293
281.754
278.34
275.047
271.874
268.82
265.882
263.059
260.348
257.748
255.256
252.87
250.588
248.408
246.327
244.343
242.453
240.655
238.946
237.324
235.786
234.329
232.95
231.648
230.418
229.259
228.167
227.14
226.176
225.271
224.423
223.629
222.887
222.194
221.548
220.947
220.388
219.869
219.387
218.941
218.529
218.148
217.798
217.475
217.179
216.907
216.658
216.431
216.224
216.036
215.866
215.712
215.573
215.448
215.337
215.238
215.15
215.073
215.005
214.947
214.897
214.856
214.821
214.794
214.772
214.757
214.747
214.743
214.743
214.748
214.758
214.771
214.789
214.81
214.836
214.864
214.897
214.932
396.808
390.413
384.059
377.761
371.537
365.403
359.373
353.459
347.669
342.011
336.487
331.102
325.857
320.753
315.79
310.967
306.285
301.741
297.335
293.065
288.93
284.929
281.059
277.321
273.711
270.228
266.871
263.638
260.528
257.537
254.665
251.909
249.268
246.739
244.319
242.007
239.799
237.695
235.69
233.782
231.969
230.247
228.614
227.068
225.605
224.222
222.917
221.686
220.527
219.437
218.412
217.451
216.551
215.708
214.92
214.184
213.498
212.859
212.265
211.713
211.202
210.728
210.29
209.886
209.513
209.17
208.855
208.567
208.302
208.061
207.841
207.641
207.46
207.296
207.148
207.016
206.897
206.792
206.698
206.616
206.544
206.482
206.429
206.384
206.348
206.318
206.295
206.278
206.268
206.263
206.263
206.268
206.277
206.291
206.31
206.332
206.358
206.389
206.422
206.459
396.744
390.22
383.735
377.298
370.928
364.638
358.444
352.356
346.384
340.534
334.813
329.224
323.771
318.456
313.28
308.243
303.346
298.59
293.972
289.493
285.152
280.949
276.881
272.948
269.149
265.482
261.946
258.54
255.261
252.108
249.079
246.172
243.385
240.716
238.162
235.721
233.39
231.167
229.05
227.035
225.119
223.301
221.576
219.942
218.396
216.934
215.555
214.254
213.029
211.877
210.794
209.778
208.826
207.935
207.102
206.324
205.599
204.923
204.295
203.712
203.171
202.67
202.207
201.779
201.385
201.022
200.689
200.383
200.104
199.848
199.616
199.404
199.212
199.039
198.882
198.742
198.616
198.504
198.405
198.318
198.242
198.176
198.12
198.072
198.033
198.001
197.977
197.959
197.947
197.941
197.941
197.946
197.956
197.97
197.989
198.012
198.039
198.071
198.106
198.144
396.676
390.014
383.388
376.806
370.284
363.837
357.477
351.216
345.064
339.027
333.114
327.328
321.674
316.154
310.772
305.529
300.426
295.463
290.642
285.961
281.421
277.022
272.762
268.642
264.66
260.814
257.105
253.53
250.087
246.776
243.595
240.54
237.612
234.806
232.121
229.555
227.104
224.766
222.539
220.419
218.404
216.491
214.676
212.957
211.329
209.791
208.339
206.97
205.681
204.468
203.328
202.258
201.256
200.318
199.44
198.621
197.857
197.146
196.485
195.87
195.301
194.773
194.285
193.835
193.419
193.037
192.686
192.364
192.07
191.8
191.555
191.332
191.13
190.947
190.782
190.634
190.501
190.383
190.278
190.186
190.106
190.036
189.976
189.926
189.884
189.85
189.824
189.805
189.792
189.786
189.785
189.79
189.8
189.814
189.834
189.858
189.886
189.918
189.955
189.994
396.604
389.798
383.025
376.293
369.616
363.009
356.483
350.05
343.72
337.5
331.399
325.421
319.572
313.856
308.275
302.833
297.53
292.369
287.35
282.475
277.743
273.154
268.709
264.407
260.247
256.229
252.351
248.612
245.011
241.547
238.217
235.02
231.953
229.015
226.203
223.514
220.946
218.497
216.163
213.941
211.829
209.823
207.92
206.117
204.411
202.799
201.276
199.84
198.487
197.215
196.02
194.898
193.846
192.862
191.941
191.082
190.28
189.534
188.84
188.195
187.598
187.044
186.532
186.059
185.623
185.222
184.853
184.515
184.206
183.923
183.666
183.431
183.219
183.027
182.853
182.698
182.558
182.434
182.324
182.227
182.142
182.069
182.005
181.952
181.908
181.872
181.844
181.824
181.81
181.803
181.801
181.806
181.815
181.83
181.85
181.875
181.904
181.937
181.975
182.016
396.53
389.575
382.651
375.765
368.931
362.162
355.471
348.867
342.361
335.963
329.678
323.513
317.475
311.568
305.795
300.159
294.664
289.312
284.103
279.039
274.121
269.35
264.725
260.248
255.916
251.73
247.689
243.792
240.037
236.424
232.95
229.614
226.414
223.347
220.411
217.603
214.922
212.364
209.926
207.605
205.398
203.302
201.314
199.43
197.647
195.961
194.369
192.868
191.455
190.124
188.874
187.701
186.602
185.572
184.61
183.711
182.873
182.093
181.367
180.693
180.067
179.488
178.952
178.458
178.002
177.582
177.196
176.843
176.519
176.223
175.953
175.708
175.485
175.284
175.103
174.939
174.793
174.663
174.548
174.446
174.357
174.279
174.213
174.157
174.11
174.072
174.043
174.02
174.006
173.997
173.996
174
174.009
174.024
174.044
174.069
174.099
174.133
174.172
174.214
396.454
389.347
382.269
375.228
368.236
361.305
354.448
347.675
340.997
334.422
327.958
321.612
315.39
309.297
303.338
297.516
291.835
286.297
280.904
275.659
270.562
265.614
260.816
256.168
251.67
247.322
243.124
239.073
235.17
231.412
227.799
224.328
220.998
217.806
214.75
211.827
209.035
206.371
203.832
201.415
199.116
196.933
194.861
192.898
191.04
189.283
187.625
186.06
184.587
183.2
181.897
180.675
179.528
178.455
177.452
176.515
175.641
174.827
174.07
173.367
172.715
172.111
171.552
171.036
170.561
170.123
169.72
169.351
169.013
168.705
168.423
168.167
167.935
167.724
167.535
167.364
167.212
167.075
166.955
166.848
166.755
166.674
166.604
166.545
166.496
166.456
166.424
166.401
166.385
166.376
166.373
166.377
166.386
166.401
166.422
166.447
166.477
166.512
166.552
166.595
396.377
389.116
381.883
374.685
367.534
360.442
353.421
346.481
339.633
332.885
326.246
319.723
313.322
307.05
300.91
294.908
289.047
283.33
277.76
272.339
267.069
261.951
256.985
252.173
247.515
243.01
238.658
234.459
230.412
226.515
222.766
219.165
215.709
212.396
209.223
206.189
203.29
200.523
197.886
195.375
192.987
190.719
188.566
186.526
184.596
182.77
181.046
179.42
177.889
176.447
175.093
173.822
172.63
171.514
170.471
169.497
168.588
167.742
166.955
166.223
165.545
164.917
164.336
163.799
163.304
162.849
162.43
162.046
161.694
161.373
161.08
160.813
160.571
160.352
160.155
159.977
159.818
159.676
159.55
159.439
159.341
159.256
159.184
159.122
159.07
159.028
158.995
158.97
158.952
158.942
158.939
158.942
158.951
158.966
158.987
159.012
159.043
159.079
159.119
159.163
396.3
388.884
381.496
374.141
366.832
359.579
352.395
345.291
338.275
331.359
324.549
317.853
311.279
304.832
298.518
292.341
286.306
280.416
274.675
269.084
263.647
258.364
253.236
248.266
243.452
238.796
234.297
229.955
225.768
221.736
217.857
214.129
210.551
207.121
203.835
200.693
197.69
194.823
192.091
189.489
187.015
184.664
182.433
180.319
178.317
176.425
174.638
172.952
171.364
169.869
168.465
167.147
165.911
164.754
163.672
162.661
161.719
160.841
160.024
159.265
158.562
157.91
157.307
156.75
156.237
155.764
155.329
154.931
154.566
154.232
153.928
153.651
153.4
153.172
152.967
152.782
152.616
152.469
152.338
152.222
152.12
152.032
151.956
151.891
151.837
151.793
151.757
151.731
151.712
151.701
151.697
151.7
151.708
151.723
151.744
151.769
151.801
151.837
151.878
151.923
396.223
388.652
381.109
373.599
366.132
358.72
351.376
344.109
336.93
329.848
322.871
316.007
309.264
302.648
296.165
289.819
283.616
277.559
271.652
265.898
260.299
254.857
249.573
244.45
239.487
234.684
230.043
225.562
221.24
217.077
213.072
209.222
205.527
201.983
198.588
195.341
192.237
189.275
186.45
183.761
181.202
178.771
176.465
174.278
172.208
170.251
168.402
166.659
165.016
163.47
162.017
160.653
159.374
158.177
157.057
156.011
155.036
154.127
153.282
152.497
151.768
151.094
150.469
149.893
149.361
148.872
148.422
148.009
147.631
147.285
146.97
146.683
146.423
146.187
145.974
145.783
145.611
145.457
145.321
145.201
145.095
145.003
144.924
144.856
144.8
144.753
144.716
144.688
144.668
144.656
144.651
144.653
144.661
144.676
144.696
144.722
144.754
144.79
144.832
144.877
396.146
388.422
380.725
373.06
365.437
357.869
350.367
342.941
335.601
328.357
321.218
314.191
307.284
300.503
293.856
287.347
280.981
274.763
268.696
262.784
257.029
251.434
246
240.728
235.621
230.677
225.898
221.283
216.832
212.543
208.416
204.448
200.639
196.985
193.485
190.136
186.936
183.88
180.967
178.192
175.552
173.044
170.664
168.407
166.271
164.251
162.343
160.543
158.847
157.251
155.751
154.343
153.022
151.786
150.63
149.55
148.543
147.604
146.731
145.921
145.168
144.471
143.826
143.231
142.681
142.176
141.711
141.284
140.893
140.536
140.21
139.914
139.644
139.4
139.18
138.982
138.804
138.645
138.504
138.379
138.269
138.174
138.091
138.021
137.962
137.913
137.875
137.845
137.824
137.81
137.804
137.806
137.813
137.827
137.848
137.873
137.905
137.942
137.984
138.03
396.07
388.195
380.345
372.527
364.751
357.029
349.371
341.789
334.292
326.891
319.593
312.407
305.341
298.401
291.595
284.928
278.405
272.031
265.81
259.745
253.84
248.097
242.518
237.104
231.857
226.778
221.866
217.122
212.546
208.135
203.89
199.809
195.89
192.13
188.528
185.082
181.787
178.642
175.642
172.785
170.067
167.484
165.032
162.708
160.508
158.427
156.462
154.607
152.86
151.216
149.67
148.219
146.858
145.584
144.393
143.28
142.242
141.275
140.375
139.539
138.763
138.045
137.38
136.766
136.199
135.678
135.198
134.758
134.355
133.987
133.65
133.344
133.066
132.814
132.587
132.382
132.198
132.034
131.888
131.759
131.645
131.546
131.46
131.387
131.326
131.275
131.234
131.203
131.18
131.166
131.159
131.159
131.166
131.18
131.2
131.226
131.257
131.294
131.336
131.383
395.995
387.97
379.971
372.003
364.076
356.202
348.393
340.658
333.008
325.452
318
310.66
303.439
296.346
289.386
282.566
275.892
269.367
262.997
256.785
250.735
244.849
239.13
233.579
228.198
222.988
217.949
213.08
208.383
203.855
199.497
195.306
191.281
187.419
183.719
180.178
176.793
173.561
170.478
167.542
164.748
162.093
159.573
157.183
154.921
152.781
150.76
148.853
147.056
145.365
143.776
142.283
140.884
139.573
138.347
137.203
136.135
135.14
134.214
133.354
132.555
131.816
131.132
130.5
129.917
129.38
128.886
128.433
128.018
127.639
127.292
126.977
126.69
126.431
126.196
125.985
125.796
125.626
125.475
125.342
125.224
125.122
125.033
124.957
124.893
124.84
124.798
124.765
124.74
124.725
124.717
124.716
124.723
124.736
124.755
124.781
124.812
124.849
124.892
124.938
395.922
387.75
379.603
371.488
363.413
355.391
347.433
339.549
331.749
324.044
316.442
308.952
301.582
294.34
287.231
280.264
273.443
266.773
260.26
253.906
247.716
241.693
235.839
230.157
224.646
219.31
214.147
209.16
204.346
199.706
195.238
190.941
186.814
182.854
179.06
175.428
171.955
168.639
165.476
162.463
159.597
156.872
154.285
151.833
149.511
147.315
145.24
143.283
141.438
139.701
138.069
136.537
135.1
133.754
132.495
131.319
130.223
129.201
128.25
127.366
126.546
125.787
125.084
124.434
123.835
123.284
122.776
122.311
121.884
121.494
121.138
120.813
120.519
120.251
120.01
119.793
119.597
119.423
119.267
119.13
119.008
118.902
118.811
118.732
118.665
118.61
118.566
118.531
118.505
118.488
118.479
118.478
118.484
118.496
118.515
118.54
118.571
118.608
118.651
118.698
395.85
387.534
379.243
370.983
362.764
354.598
346.494
338.465
330.52
322.669
314.922
307.287
299.772
292.385
285.134
278.024
271.061
264.252
257.6
251.11
244.786
238.631
232.647
226.837
221.203
215.745
210.464
205.361
200.436
195.687
191.114
186.716
182.491
178.436
174.551
170.831
167.274
163.878
160.638
157.551
154.614
151.822
149.172
146.659
144.279
142.029
139.902
137.896
136.005
134.225
132.552
130.981
129.507
128.128
126.837
125.631
124.506
123.458
122.483
121.577
120.736
119.957
119.236
118.57
117.955
117.389
116.869
116.391
115.953
115.552
115.187
114.854
114.551
114.277
114.029
113.805
113.605
113.425
113.265
113.123
112.998
112.889
112.794
112.712
112.644
112.586
112.54
112.503
112.476
112.458
112.448
112.445
112.45
112.462
112.48
112.505
112.536
112.573
112.615
112.662
395.779
387.323
378.892
370.491
362.131
353.823
345.579
337.408
329.322
321.33
313.442
305.666
298.012
290.485
283.095
275.848
268.749
261.805
255.02
248.398
241.945
235.663
229.555
223.623
217.869
212.294
206.9
201.686
196.653
191.8
187.126
182.63
178.311
174.165
170.192
166.388
162.751
159.277
155.963
152.805
149.8
146.944
144.233
141.661
139.226
136.923
134.746
132.693
130.757
128.936
127.223
125.615
124.107
122.694
121.373
120.138
118.987
117.913
116.915
115.987
115.126
114.328
113.589
112.907
112.277
111.698
111.164
110.675
110.226
109.815
109.44
109.099
108.789
108.507
108.253
108.023
107.817
107.633
107.468
107.322
107.194
107.081
106.983
106.899
106.828
106.768
106.72
106.682
106.653
106.633
106.622
106.618
106.622
106.633
106.651
106.675
106.706
106.742
106.784
106.831
395.711
387.117
378.549
370.011
361.514
353.069
344.687
336.38
328.157
320.029
312.004
304.092
296.302
288.641
281.118
273.738
266.508
259.434
252.52
245.773
239.195
232.791
226.563
220.514
214.645
208.958
203.455
198.135
192.999
188.046
183.275
178.685
174.275
170.042
165.985
162.1
158.385
154.837
151.452
148.226
145.156
142.238
139.467
136.84
134.351
131.997
129.773
127.674
125.696
123.834
122.083
120.439
118.897
117.453
116.102
114.84
113.663
112.565
111.544
110.595
109.715
108.899
108.143
107.445
106.801
106.208
105.662
105.161
104.702
104.282
103.898
103.549
103.231
102.942
102.682
102.447
102.235
102.046
101.877
101.727
101.595
101.479
101.378
101.291
101.218
101.156
101.106
101.066
101.035
101.014
101.002
100.997
101
101.01
101.027
101.051
101.081
101.117
101.158
101.205
395.644
386.917
378.216
369.545
360.915
352.337
343.822
335.382
327.026
318.765
310.609
302.566
294.645
286.855
279.203
271.695
264.339
257.14
250.104
243.235
236.538
230.016
223.673
217.511
211.532
205.738
200.13
194.709
189.473
184.424
179.56
174.881
170.384
166.067
161.929
157.967
154.177
150.557
147.104
143.813
140.68
137.702
134.875
132.194
129.654
127.252
124.981
122.839
120.82
118.919
117.132
115.453
113.879
112.405
111.025
109.737
108.534
107.414
106.371
105.402
104.502
103.669
102.897
102.184
101.526
100.92
100.362
99.8504
99.381
98.9515
98.5592
98.2017
97.8766
97.5817
97.3149
97.0742
96.8577
96.6638
96.4907
96.337
96.2013
96.0822
95.9785
95.8891
95.8129
95.7491
95.6967
95.6549
95.6231
95.6005
95.5866
95.5809
95.5828
95.5921
95.6082
95.6311
95.6603
95.6958
95.7371
95.7835
395.58
386.724
377.893
369.093
360.333
351.626
342.983
334.414
325.931
317.542
309.259
301.089
293.043
285.127
277.351
269.72
262.243
254.924
247.77
240.784
233.973
227.339
220.885
214.616
208.531
202.634
196.926
191.406
186.076
180.935
175.982
171.216
166.636
162.239
158.023
153.987
150.126
146.438
142.918
139.565
136.372
133.337
130.456
127.723
125.134
122.685
120.371
118.186
116.128
114.19
112.367
110.656
109.051
107.547
106.141
104.826
103.6
102.457
101.394
100.405
99.4874
98.637
97.8498
97.1224
96.451
95.8324
95.2634
94.7407
94.2616
93.823
93.4225
93.0574
92.7253
92.424
92.1513
91.9052
91.6838
91.4853
91.3081
91.1506
91.0114
90.8892
90.7826
90.6906
90.6121
90.5461
90.4917
90.4482
90.4147
90.3907
90.3754
90.3685
90.3693
90.3776
90.3928
90.4149
90.4434
90.4783
90.5191
90.565
395.517
386.536
377.58
368.655
359.771
350.939
342.172
333.479
324.871
316.36
307.954
299.662
291.495
283.459
275.563
267.815
260.221
252.787
245.519
238.422
231.501
224.759
218.2
211.827
205.641
199.646
193.841
188.228
182.807
177.578
172.539
167.691
163.031
158.557
154.268
150.16
146.23
142.477
138.895
135.481
132.231
129.142
126.208
123.425
120.789
118.296
115.939
113.715
111.619
109.645
107.789
106.046
104.411
102.879
101.447
100.108
98.8585
97.6942
96.6106
95.6034
94.6685
93.8019
92.9997
92.2583
91.5741
90.9436
90.3635
89.8307
89.3421
88.8949
88.4864
88.1139
87.7751
87.4675
87.1891
86.9378
86.7116
86.5088
86.3275
86.1664
86.0238
85.8985
85.7891
85.6946
85.6137
85.5455
85.4892
85.4438
85.4087
85.3832
85.3665
85.3583
85.358
85.3652
85.3795
85.4007
85.4285
85.4626
85.5028
85.5482
395.457
386.355
377.278
368.232
359.228
350.276
341.388
332.576
323.849
315.219
306.694
298.286
290.002
281.851
273.841
265.979
258.273
250.729
243.352
236.148
229.122
222.277
215.617
209.144
202.862
196.772
190.876
185.173
179.665
174.352
169.232
164.304
159.568
155.021
150.66
146.484
142.49
138.673
135.031
131.56
128.255
125.113
122.13
119.3
116.619
114.082
111.685
109.423
107.29
105.282
103.394
101.621
99.9575
98.3993
96.9414
95.5791
94.3078
93.1229
92.0201
90.995
90.0434
89.1614
88.3448
87.5901
86.8935
86.2515
85.6608
85.1182
84.6206
84.165
83.7488
83.3693
83.0239
82.7104
82.4265
82.1701
81.9393
81.7321
81.547
81.3823
81.2364
81.1081
80.996
80.8988
80.8156
80.7453
80.687
80.6399
80.6031
80.576
80.558
80.5484
80.5469
80.553
80.5663
80.5866
80.6135
80.6468
80.6863
80.7311
395.398
386.18
376.987
367.825
358.704
349.636
340.633
331.705
322.864
314.119
305.482
296.96
288.565
280.303
272.183
264.213
256.4
248.75
241.269
233.963
226.836
219.892
213.135
206.568
200.193
194.013
188.028
182.241
176.65
171.255
166.057
161.055
156.245
151.628
147.2
142.959
138.902
135.025
131.326
127.799
124.443
121.251
118.219
115.344
112.62
110.043
107.607
105.308
103.141
101.1
99.1813
97.379
95.6884
94.1046
92.6227
91.2379
89.9455
88.741
87.6198
86.5775
85.61
84.7131
83.8828
83.1153
82.4068
81.7538
81.1529
80.6009
80.0946
79.631
79.2074
78.821
78.4694
78.1501
77.8609
77.5996
77.3643
77.153
76.9641
76.7959
76.6468
76.5155
76.4007
76.301
76.2155
76.1431
76.0829
76.0339
75.9954
75.9668
75.9473
75.9364
75.9337
75.9386
75.9509
75.9701
75.9961
76.0285
76.0672
76.1112
395.342
386.011
376.706
367.432
358.2
349.02
339.906
330.868
321.916
313.062
304.316
295.686
287.183
278.815
270.59
262.517
254.601
246.85
239.269
231.865
224.641
217.603
210.754
204.096
197.633
191.367
185.299
179.429
173.759
168.288
163.015
157.94
153.062
148.377
143.885
139.581
135.465
131.531
127.777
124.198
120.791
117.551
114.475
111.556
108.791
106.175
103.702
101.368
99.1679
97.096
95.1477
93.3177
91.601
89.9927
88.4878
87.0815
85.769
84.5457
83.4069
82.3483
81.3655
80.4544
79.6109
78.8311
78.1112
77.4477
76.837
76.276
75.7613
75.29
74.8593
74.4664
74.1087
73.7838
73.4895
73.2235
72.9838
72.7685
72.5759
72.4043
72.2521
72.118
72.0004
71.8984
71.8106
71.7361
71.6739
71.6231
71.5829
71.5527
71.5317
71.5195
71.5155
71.5192
71.5303
71.5485
71.5735
71.605
71.6428
71.686
395.288
385.85
376.437
367.055
357.715
348.429
339.208
330.063
321.006
312.047
303.196
294.463
285.857
277.388
269.062
260.889
252.875
245.028
237.352
229.854
222.539