/*--------------------------------*- C++ -*----------------------------------*\
  =========                 |
  \\      /  F ield         | OpenFOAM: The Open Source CFD Toolbox
   \\    /   O peration     | Website:  https://openfoam.org
    \\  /    A nd           | Version:  10
     \\/     M anipulation  |
\*---------------------------------------------------------------------------*/
FoamFile
{
    format      ascii;
    class       volScalarField;
    location    "7";
    object      T_0;
}
// * * * * * * * * * * * * * * * * * * * * * * * * * * * * * * * * * * * * * //

dimensions      [0 0 0 1 0 0 0];

internalField   nonuniform List<scalar> 
10000
(
374.916
361.111
356.316
354.151
352.925
352.111
351.511
351.036
350.642
350.303
350.004
349.735
349.49
349.263
349.052
348.853
348.666
348.489
348.32
348.159
348.005
347.858
347.717
347.582
347.453
347.329
347.21
347.096
346.987
346.882
346.782
346.686
346.594
346.507
346.423
346.343
346.267
346.195
346.126
346.06
345.998
345.939
345.883
345.83
345.78
345.733
345.689
345.647
345.607
345.57
345.535
345.503
345.472
345.443
345.416
345.391
345.368
345.347
345.326
345.308
345.29
345.274
345.26
345.246
345.233
345.222
345.211
345.201
345.192
345.184
345.177
345.17
345.164
345.159
345.154
345.149
345.145
345.142
345.139
345.136
345.134
345.132
345.13
345.128
345.127
345.126
345.126
345.125
345.125
345.125
345.125
345.125
345.126
345.126
345.127
345.128
345.129
345.13
345.131
345.131
388.434
374.339
366.342
361.537
358.387
356.143
354.429
353.05
351.894
350.894
350.008
349.208
348.477
347.8
347.169
346.576
346.016
345.485
344.979
344.497
344.037
343.596
343.174
342.77
342.382
342.011
341.654
341.313
340.985
340.671
340.371
340.084
339.809
339.546
339.295
339.056
338.828
338.611
338.404
338.208
338.022
337.845
337.677
337.519
337.369
337.227
337.094
336.968
336.849
336.738
336.634
336.536
336.444
336.358
336.277
336.203
336.133
336.068
336.007
335.951
335.899
335.851
335.807
335.766
335.728
335.693
335.661
335.632
335.605
335.581
335.559
335.539
335.52
335.504
335.489
335.476
335.464
335.453
335.444
335.436
335.429
335.423
335.418
335.414
335.41
335.407
335.405
335.404
335.403
335.403
335.403
335.404
335.405
335.407
335.409
335.412
335.415
335.418
335.422
335.426
392.935
381.459
373.169
367.265
362.941
359.642
357.014
354.843
352.992
351.373
349.928
348.618
347.415
346.299
345.256
344.274
343.346
342.465
341.626
340.826
340.061
339.329
338.627
337.955
337.31
336.692
336.099
335.53
334.985
334.463
333.963
333.485
333.028
332.59
332.173
331.775
331.395
331.034
330.69
330.363
330.053
329.758
329.479
329.215
328.966
328.73
328.508
328.298
328.101
327.915
327.741
327.578
327.425
327.282
327.148
327.024
326.907
326.799
326.698
326.605
326.518
326.438
326.364
326.296
326.233
326.175
326.122
326.073
326.029
325.988
325.951
325.918
325.887
325.86
325.835
325.813
325.794
325.776
325.761
325.747
325.735
325.725
325.717
325.71
325.704
325.699
325.696
325.693
325.692
325.692
325.692
325.694
325.696
325.699
325.703
325.707
325.712
325.718
325.724
325.731
394.808
385.386
377.612
371.417
366.48
362.477
359.154
356.329
353.872
351.694
349.732
347.94
346.286
344.747
343.304
341.943
340.654
339.43
338.262
337.148
336.082
335.061
334.083
333.145
332.245
331.382
330.554
329.76
328.999
328.27
327.572
326.903
326.264
325.653
325.07
324.513
323.983
323.478
322.997
322.54
322.106
321.695
321.305
320.936
320.587
320.258
319.947
319.654
319.378
319.119
318.875
318.647
318.433
318.233
318.046
317.872
317.709
317.558
317.417
317.287
317.166
317.054
316.95
316.855
316.767
316.686
316.612
316.544
316.481
316.425
316.373
316.326
316.283
316.245
316.211
316.18
316.152
316.128
316.106
316.087
316.071
316.056
316.044
316.034
316.026
316.02
316.015
316.012
316.01
316.01
316.01
316.012
316.015
316.019
316.024
316.031
316.038
316.045
316.054
316.064
395.742
387.663
380.481
374.321
369.096
364.646
360.814
357.465
354.494
351.822
349.39
347.151
345.074
343.131
341.303
339.575
337.936
336.376
334.887
333.464
332.102
330.797
329.545
328.345
327.193
326.087
325.026
324.009
323.034
322.099
321.203
320.346
319.527
318.743
317.995
317.281
316.601
315.953
315.336
314.75
314.194
313.666
313.165
312.692
312.244
311.821
311.422
311.046
310.693
310.36
310.048
309.755
309.48
309.223
308.984
308.76
308.551
308.357
308.176
308.009
307.853
307.71
307.577
307.454
307.341
307.237
307.142
307.055
306.975
306.902
306.836
306.775
306.721
306.672
306.627
306.588
306.552
306.521
306.493
306.469
306.447
306.429
306.414
306.401
306.391
306.382
306.376
306.372
306.37
306.369
306.37
306.372
306.376
306.381
306.388
306.396
306.405
306.415
306.426
306.438
396.267
389.039
382.335
376.302
370.951
366.216
362.01
358.246
354.844
351.741
348.886
346.238
343.764
341.44
339.245
337.165
335.187
333.301
331.498
329.774
328.121
326.536
325.016
323.556
322.155
320.811
319.52
318.281
317.094
315.956
314.865
313.821
312.823
311.868
310.957
310.087
309.257
308.467
307.716
307.001
306.323
305.679
305.07
304.492
303.946
303.431
302.944
302.486
302.055
301.649
301.268
300.911
300.576
300.263
299.971
299.698
299.443
299.206
298.986
298.782
298.592
298.417
298.255
298.106
297.968
297.841
297.725
297.618
297.521
297.432
297.351
297.278
297.211
297.151
297.097
297.048
297.005
296.967
296.933
296.903
296.877
296.855
296.836
296.821
296.808
296.798
296.79
296.785
296.782
296.781
296.782
296.785
296.79
296.796
296.804
296.814
296.824
296.837
296.851
296.865
396.58
389.89
383.526
377.617
372.206
367.278
362.791
358.692
354.928
351.449
348.216
345.192
342.351
339.668
337.126
334.708
332.404
330.202
328.095
326.076
324.14
322.282
320.497
318.784
317.138
315.557
314.04
312.583
311.186
309.847
308.563
307.335
306.159
305.035
303.962
302.937
301.961
301.03
300.145
299.303
298.504
297.746
297.027
296.347
295.704
295.096
294.523
293.983
293.475
292.997
292.548
292.127
291.732
291.363
291.019
290.697
290.397
290.118
289.858
289.617
289.394
289.187
288.996
288.82
288.658
288.508
288.371
288.246
288.131
288.026
287.931
287.844
287.765
287.694
287.631
287.574
287.523
287.477
287.437
287.402
287.372
287.346
287.323
287.305
287.29
287.278
287.269
287.263
287.259
287.258
287.259
287.262
287.268
287.275
287.285
287.296
287.308
287.323
287.339
287.356
396.77
390.414
384.273
378.451
372.998
367.925
363.214
358.838
354.763
350.955
347.381
344.015
340.833
337.814
334.942
332.203
329.586
327.08
324.678
322.374
320.161
318.035
315.993
314.03
312.143
310.331
308.59
306.919
305.316
303.778
302.305
300.893
299.543
298.252
297.018
295.841
294.718
293.649
292.631
291.664
290.745
289.873
289.047
288.265
287.526
286.827
286.168
285.547
284.962
284.412
283.896
283.412
282.958
282.534
282.137
281.767
281.422
281.101
280.803
280.525
280.269
280.031
279.811
279.608
279.422
279.25
279.092
278.947
278.815
278.695
278.585
278.485
278.395
278.313
278.24
278.174
278.115
278.063
278.017
277.977
277.942
277.911
277.886
277.864
277.847
277.833
277.823
277.816
277.811
277.81
277.811
277.815
277.821
277.83
277.84
277.853
277.867
277.884
277.902
277.922
396.881
390.723
384.713
378.935
373.436
368.237
363.336
358.723
354.376
350.273
346.393
342.712
339.214
335.88
332.697
329.652
326.734
323.936
321.249
318.668
316.187
313.8
311.506
309.299
307.177
305.138
303.178
301.296
299.489
297.756
296.095
294.504
292.981
291.525
290.134
288.806
287.539
286.333
285.184
284.092
283.055
282.071
281.139
280.256
279.421
278.633
277.888
277.187
276.527
275.906
275.323
274.777
274.264
273.785
273.337
272.919
272.53
272.167
271.83
271.517
271.227
270.958
270.71
270.481
270.27
270.076
269.898
269.735
269.585
269.449
269.325
269.212
269.11
269.018
268.935
268.861
268.794
268.735
268.683
268.637
268.598
268.563
268.534
268.51
268.49
268.475
268.463
268.455
268.45
268.448
268.449
268.454
268.46
268.47
268.482
268.496
268.512
268.531
268.551
268.574
396.94
390.884
384.935
379.16
373.601
368.282
363.21
358.384
353.794
349.425
345.263
341.293
337.5
333.87
330.392
327.056
323.852
320.773
317.811
314.962
312.22
309.581
307.04
304.595
302.243
299.981
297.807
295.718
293.712
291.787
289.942
288.174
286.481
284.863
283.316
281.839
280.431
279.089
277.811
276.597
275.443
274.349
273.311
272.329
271.4
270.522
269.694
268.914
268.179
267.488
266.839
266.231
265.66
265.127
264.628
264.163
263.729
263.326
262.95
262.602
262.279
261.98
261.704
261.449
261.214
260.998
260.799
260.617
260.451
260.299
260.161
260.036
259.922
259.819
259.727
259.644
259.57
259.504
259.446
259.395
259.351
259.312
259.28
259.253
259.231
259.213
259.2
259.191
259.185
259.183
259.184
259.189
259.196
259.207
259.22
259.235
259.253
259.274
259.297
259.321
396.962
390.941
385
379.192
373.556
368.115
362.882
357.859
353.044
348.431
344.009
339.769
335.7
331.791
328.035
324.421
320.943
317.594
314.368
311.26
308.265
305.379
302.6
299.923
297.347
294.867
292.483
290.191
287.99
285.877
283.851
281.909
280.05
278.271
276.571
274.948
273.4
271.925
270.521
269.185
267.917
266.713
265.572
264.492
263.47
262.504
261.594
260.735
259.927
259.167
258.453
257.783
257.156
256.569
256.02
255.508
255.031
254.587
254.174
253.79
253.435
253.106
252.802
252.521
252.262
252.025
251.806
251.606
251.423
251.256
251.104
250.965
250.84
250.727
250.625
250.534
250.452
250.38
250.316
250.26
250.211
250.169
250.133
250.103
250.078
250.059
250.044
250.034
250.027
250.025
250.026
250.031
250.039
250.05
250.064
250.081
250.101
250.123
250.148
250.175
396.958
390.922
384.947
379.078
373.349
367.781
362.388
357.179
352.154
347.312
342.647
338.153
333.824
329.652
325.631
321.753
318.012
314.404
310.923
307.565
304.326
301.202
298.19
295.288
292.492
289.801
287.211
284.721
282.328
280.031
277.828
275.716
273.693
271.758
269.908
268.141
266.456
264.85
263.32
261.866
260.484
259.173
257.93
256.753
255.64
254.588
253.596
252.66
251.779
250.951
250.173
249.444
248.76
248.12
247.522
246.964
246.444
245.96
245.51
245.092
244.704
244.345
244.014
243.708
243.426
243.167
242.928
242.71
242.51
242.328
242.162
242.011
241.875
241.751
241.64
241.541
241.452
241.372
241.303
241.241
241.188
241.142
241.102
241.069
241.043
241.021
241.005
240.993
240.986
240.984
240.985
240.99
240.998
241.01
241.025
241.044
241.065
241.089
241.116
241.145
396.935
390.847
384.807
378.854
373.016
367.314
361.763
356.372
351.146
346.087
341.192
336.459
331.884
327.462
323.188
319.057
315.066
311.209
307.482
303.883
300.407
297.052
293.815
290.694
287.685
284.787
281.997
279.313
276.734
274.257
271.88
269.601
267.418
265.329
263.331
261.424
259.604
257.869
256.217
254.646
253.153
251.736
250.393
249.121
247.918
246.782
245.709
244.698
243.746
242.85
242.009
241.221
240.481
239.79
239.143
238.54
237.977
237.454
236.967
236.515
236.096
235.708
235.349
235.018
234.713
234.433
234.175
233.939
233.723
233.526
233.346
233.183
233.035
232.902
232.781
232.673
232.577
232.491
232.415
232.349
232.291
232.241
232.198
232.163
232.133
232.11
232.092
232.079
232.072
232.068
232.07
232.075
232.084
232.096
232.112
232.132
232.154
232.18
232.209
232.24
396.896
390.729
384.6
378.543
372.584
366.742
361.031
355.463
350.043
344.775
339.661
334.7
329.891
325.23
320.715
316.342
312.11
308.014
304.051
300.219
296.515
292.936
289.481
286.146
282.93
279.831
276.846
273.973
271.212
268.559
266.012
263.57
261.23
258.991
256.849
254.803
252.851
250.99
249.218
247.533
245.931
244.411
242.969
241.604
240.313
239.093
237.941
236.855
235.833
234.872
233.969
233.122
232.329
231.586
230.892
230.244
229.64
229.077
228.554
228.069
227.619
227.202
226.817
226.461
226.134
225.832
225.555
225.302
225.07
224.858
224.665
224.489
224.33
224.187
224.057
223.941
223.837
223.745
223.664
223.592
223.529
223.476
223.43
223.391
223.359
223.334
223.315
223.301
223.292
223.288
223.289
223.294
223.304
223.317
223.334
223.355
223.379
223.406
223.436
223.47
396.847
390.579
384.342
378.168
372.077
366.088
360.216
354.472
348.862
343.393
338.069
332.889
327.855
322.965
318.22
313.616
309.151
304.825
300.635
296.578
292.653
288.858
285.191
281.65
278.232
274.937
271.763
268.707
265.767
262.943
260.231
257.629
255.136
252.75
250.467
248.286
246.205
244.221
242.331
240.533
238.824
237.203
235.665
234.208
232.83
231.528
230.3
229.141
228.05
227.024
226.061
225.156
224.309
223.516
222.775
222.084
221.439
220.838
220.28
219.761
219.281
218.836
218.425
218.045
217.695
217.373
217.077
216.806
216.558
216.332
216.126
215.938
215.768
215.615
215.477
215.352
215.241
215.143
215.055
214.979
214.912
214.854
214.805
214.763
214.729
214.702
214.681
214.666
214.656
214.652
214.653
214.658
214.667
214.681
214.699
214.721
214.746
214.775
214.807
214.842
396.79
390.405
384.046
377.741
371.511
365.371
359.335
353.416
347.621
341.956
336.427
331.037
325.787
320.679
315.711
310.884
306.197
301.65
297.24
292.966
288.828
284.824
280.951
277.21
273.597
270.113
266.754
263.519
260.406
257.414
254.541
251.784
249.142
246.612
244.191
241.879
239.671
237.566
235.561
233.653
231.84
230.119
228.487
226.941
225.479
224.096
222.792
221.562
220.404
219.314
218.291
217.331
216.431
215.589
214.802
214.067
213.382
212.744
212.151
211.601
211.09
210.617
210.18
209.777
209.405
209.063
208.749
208.461
208.197
207.957
207.737
207.538
207.358
207.194
207.047
206.915
206.797
206.692
206.599
206.517
206.446
206.384
206.332
206.287
206.251
206.221
206.199
206.183
206.172
206.167
206.168
206.173
206.183
206.197
206.215
206.238
206.264
206.294
206.328
206.365
396.726
390.212
383.721
377.277
370.9
364.604
358.404
352.31
346.332
340.477
334.75
329.156
323.698
318.378
313.197
308.156
303.255
298.494
293.872
289.389
285.045
280.838
276.767
272.832
269.03
265.361
261.823
258.414
255.134
251.979
248.949
246.041
243.252
240.582
238.028
235.586
233.255
231.033
228.915
226.9
224.985
223.167
221.442
219.809
218.263
216.803
215.424
214.124
212.9
211.749
210.667
209.652
208.701
207.811
206.979
206.202
205.478
204.803
204.176
203.594
203.054
202.554
202.092
201.665
201.272
200.91
200.578
200.273
199.994
199.739
199.507
199.297
199.105
198.933
198.777
198.637
198.512
198.4
198.302
198.215
198.139
198.074
198.018
197.971
197.932
197.9
197.876
197.859
197.847
197.842
197.842
197.847
197.857
197.871
197.89
197.914
197.941
197.972
198.008
198.046
396.657
390.006
383.373
376.784
370.255
363.801
357.435
351.168
345.01
338.967
333.048
327.257
321.597
316.073
310.686
305.438
300.33
295.363
290.537
285.853
281.309
276.906
272.644
268.52
264.535
260.687
256.975
253.398
249.954
246.641
243.458
240.403
237.473
234.667
231.981
229.414
226.963
224.626
222.398
220.279
218.264
216.351
214.537
212.818
211.191
209.654
208.203
206.835
205.546
204.334
203.195
202.127
201.125
200.188
199.312
198.494
197.731
197.021
196.361
195.748
195.179
194.652
194.165
193.716
193.302
192.921
192.57
192.249
191.955
191.687
191.443
191.22
191.019
190.836
190.672
190.525
190.393
190.275
190.171
190.079
189.999
189.93
189.871
189.821
189.779
189.746
189.72
189.701
189.688
189.682
189.682
189.687
189.697
189.711
189.731
189.755
189.783
189.816
189.853
189.892
396.585
389.789
383.01
376.27
369.586
362.972
356.439
350
343.664
337.438
331.331
325.347
319.493
313.771
308.185
302.737
297.43
292.264
287.241
282.362
277.626
273.034
268.585
264.28
260.117
256.096
252.216
248.475
244.873
241.406
238.075
234.877
231.809
228.87
226.057
223.368
220.8
218.35
216.016
213.795
211.683
209.677
207.775
205.973
204.268
202.656
201.134
199.699
198.347
197.076
195.882
194.761
193.71
192.727
191.808
190.95
190.15
189.404
188.712
188.068
187.471
186.919
186.408
185.936
185.501
185.101
184.733
184.396
184.088
183.806
183.549
183.316
183.104
182.912
182.74
182.585
182.446
182.322
182.213
182.116
182.032
181.959
181.896
181.843
181.799
181.764
181.736
181.716
181.702
181.695
181.694
181.699
181.709
181.724
181.744
181.769
181.798
181.831
181.869
181.91
396.511
389.565
382.635
375.741
368.9
362.124
355.425
348.815
342.303
335.898
329.607
323.437
317.393
311.479
305.701
300.06
294.56
289.203
283.99
278.922
274
269.225
264.597
260.116
255.781
251.593
247.549
243.65
239.893
236.278
232.803
229.466
226.264
223.196
220.26
217.452
214.77
212.212
209.774
207.453
205.247
203.151
201.164
199.28
197.498
195.813
194.222
192.722
191.31
189.981
188.732
187.56
186.462
185.433
184.472
183.575
182.738
181.959
181.234
180.561
179.937
179.359
178.824
178.331
177.876
177.457
177.073
176.72
176.397
176.102
175.833
175.589
175.367
175.166
174.985
174.823
174.677
174.548
174.433
174.331
174.243
174.166
174.1
174.044
173.998
173.961
173.931
173.909
173.895
173.887
173.885
173.89
173.899
173.915
173.935
173.96
173.99
174.024
174.063
174.106
396.435
389.337
382.252
375.203
368.203
361.265
354.401
347.621
340.936
334.355
327.884
321.532
315.304
309.205
303.241
297.414
291.727
286.185
280.787
275.537
270.436
265.485
260.683
256.032
251.531
247.18
242.979
238.926
235.021
231.261
227.647
224.175
220.843
217.65
214.594
211.671
208.878
206.214
203.675
201.258
198.96
196.777
194.706
192.744
190.886
189.131
187.473
185.91
184.437
183.052
181.75
180.529
179.384
178.312
177.31
176.374
175.502
174.689
173.933
173.232
172.581
171.978
171.42
170.906
170.431
169.994
169.593
169.225
168.888
168.58
168.3
168.044
167.813
167.603
167.414
167.245
167.093
166.957
166.837
166.731
166.638
166.557
166.488
166.43
166.381
166.341
166.31
166.287
166.271
166.262
166.26
166.264
166.274
166.289
166.309
166.335
166.365
166.4
166.44
166.484
396.358
389.106
381.866
374.66
367.501
360.401
353.372
346.425
339.57
332.816
326.17
319.641
313.234
306.955
300.81
294.802
288.936
283.214
277.639
272.214
266.939
261.817
256.848
252.032
247.371
242.863
238.509
234.308
230.258
226.359
222.61
219.007
215.55
212.236
209.063
206.028
203.128
200.362
197.725
195.214
192.826
190.558
188.407
186.368
184.438
182.613
180.89
179.266
177.735
176.295
174.942
173.672
172.482
171.367
170.325
169.352
168.445
167.6
166.814
166.084
165.407
164.78
164.2
163.665
163.171
162.717
162.299
161.916
161.566
161.245
160.953
160.688
160.447
160.228
160.032
159.855
159.696
159.555
159.429
159.319
159.222
159.137
159.065
159.004
158.952
158.911
158.878
158.853
158.836
158.826
158.823
158.827
158.836
158.851
158.872
158.898
158.929
158.964
159.005
159.049
396.281
388.873
381.478
374.115
366.797
359.537
352.345
345.234
338.211
331.287
324.471
317.768
311.188
304.735
298.415
292.232
286.192
280.297
274.55
268.955
263.513
258.226
253.095
248.121
243.304
238.645
234.144
229.799
225.61
221.576
217.695
213.966
210.387
206.956
203.67
200.527
197.524
194.658
191.925
189.324
186.85
184.499
182.269
180.156
178.155
176.264
174.478
172.793
171.206
169.713
168.31
166.993
165.759
164.603
163.522
162.513
161.572
160.696
159.88
159.123
158.421
157.77
157.169
156.613
156.101
155.629
155.196
154.798
154.434
154.102
153.798
153.523
153.272
153.045
152.841
152.657
152.492
152.345
152.215
152.099
151.998
151.91
151.835
151.771
151.717
151.673
151.638
151.612
151.594
151.583
151.579
151.582
151.591
151.606
151.627
151.653
151.684
151.72
151.761
151.807
396.203
388.641
381.091
373.571
366.096
358.677
351.325
344.05
336.864
329.775
322.791
315.92
309.171
302.548
296.059
289.707
283.499
277.437
271.525
265.766
260.162
254.716
249.429
244.301
239.335
234.53
229.885
225.402
221.078
216.914
212.907
209.056
205.359
201.814
198.419
195.171
192.067
189.105
186.281
183.591
181.033
178.603
176.297
174.111
172.043
170.086
168.239
166.496
164.855
163.31
161.858
160.496
159.219
158.023
156.905
155.86
154.886
153.979
153.136
152.352
151.625
150.951
150.329
149.753
149.223
148.735
148.286
147.874
147.497
147.153
146.839
146.553
146.293
146.058
145.846
145.655
145.484
145.332
145.196
145.076
144.971
144.88
144.801
144.734
144.678
144.632
144.595
144.568
144.548
144.536
144.531
144.534
144.542
144.557
144.577
144.603
144.635
144.672
144.713
144.759
396.126
388.411
380.706
373.032
365.401
357.825
350.314
342.881
335.533
328.282
321.135
314.102
307.188
300.401
293.748
287.233
280.861
274.638
268.566
262.648
256.889
251.289
245.851
240.576
235.465
230.519
225.737
221.12
216.666
212.376
208.247
204.278
200.467
196.813
193.312
189.963
186.762
183.707
180.793
178.019
175.38
172.872
170.493
168.237
166.102
164.083
162.176
160.378
158.683
157.088
155.59
154.183
152.864
151.629
150.475
149.397
148.391
147.454
146.583
145.773
145.022
144.327
143.683
143.089
142.541
142.037
141.573
141.147
140.758
140.402
140.077
139.781
139.513
139.27
139.05
138.853
138.676
138.518
138.377
138.253
138.144
138.049
137.967
137.897
137.838
137.79
137.752
137.722
137.702
137.689
137.683
137.684
137.692
137.707
137.727
137.753
137.785
137.822
137.864
137.91
396.051
388.183
380.326
372.499
364.714
356.983
349.318
341.728
334.223
326.814
319.509
312.316
305.243
298.297
291.485
284.811
278.283
271.903
265.677
259.607
253.697
247.95
242.366
236.949
231.699
226.616
221.702
216.955
212.377
207.964
203.718
199.635
195.715
191.955
188.352
184.905
181.61
178.465
175.465
172.609
169.891
167.309
164.858
162.535
160.336
158.256
156.292
154.439
152.693
151.05
149.506
148.057
146.698
145.425
144.235
143.124
142.088
141.122
140.224
139.389
138.615
137.898
137.235
136.622
136.057
135.537
135.059
134.62
134.218
133.85
133.515
133.21
132.933
132.682
132.456
132.252
132.069
131.905
131.76
131.631
131.518
131.42
131.335
131.262
131.201
131.151
131.11
131.079
131.057
131.043
131.036
131.037
131.044
131.058
131.078
131.104
131.136
131.173
131.215
131.262
395.976
387.958
379.951
371.974
364.038
356.156
348.338
340.595
332.937
325.374
317.914
310.567
303.339
296.239
289.273
282.447
275.766
269.236
262.861
256.644
250.589
244.699
238.976
233.421
228.037
222.823
217.781
212.911
208.211
203.682
199.321
195.129
191.103
187.241
183.54
179.999
176.613
173.381
170.299
167.363
164.569
161.915
159.396
157.008
154.746
152.608
150.588
148.683
146.887
145.198
143.61
142.119
140.721
139.412
138.188
137.045
135.978
134.985
134.061
133.202
132.406
131.668
130.985
130.355
129.773
129.238
128.745
128.293
127.88
127.501
127.156
126.842
126.556
126.298
126.064
125.854
125.665
125.496
125.346
125.213
125.096
124.994
124.906
124.831
124.767
124.715
124.673
124.64
124.616
124.601
124.593
124.593
124.6
124.613
124.633
124.658
124.69
124.727
124.77
124.817
395.902
387.738
379.583
371.458
363.374
355.344
347.377
339.485
331.678
323.964
316.355
308.858
301.481
294.231
287.116
280.143
273.315
266.64
260.121
253.763
247.568
241.541
235.683
229.996
224.482
219.143
213.977
208.987
204.171
199.529
195.06
190.762
186.633
182.673
178.878
175.245
171.773
168.457
165.294
162.282
159.416
156.692
154.106
151.655
149.334
147.139
145.066
143.11
141.267
139.532
137.901
136.371
134.935
133.591
132.334
131.16
130.065
129.045
128.095
127.213
126.395
125.637
124.936
124.288
123.69
123.14
122.634
122.17
121.744
121.355
121
120.677
120.383
120.117
119.877
119.66
119.466
119.292
119.137
119
118.88
118.774
118.683
118.605
118.539
118.484
118.44
118.406
118.381
118.364
118.355
118.354
118.36
118.373
118.392
118.417
118.449
118.486
118.528
118.575
395.83
387.522
379.223
370.953
362.725
354.549
346.438
338.4
330.447
322.589
314.834
307.191
299.669
292.275
285.017
277.9
270.932
264.116
257.459
250.964
244.635
238.476
232.488
226.674
221.036
215.575
210.292
205.186
200.258
195.508
190.933
186.534
182.307
178.252
174.366
170.646
167.089
163.693
160.454
157.367
154.431
151.64
148.991
146.479
144.101
141.851
139.726
137.721
135.832
134.054
132.382
130.813
129.341
127.963
126.674
125.471
124.348
123.301
122.328
121.423
120.584
119.807
119.087
118.423
117.81
117.245
116.726
116.249
115.813
115.413
115.049
114.717
114.415
114.142
113.895
113.672
113.473
113.294
113.134
112.993
112.869
112.76
112.666
112.585
112.517
112.46
112.414
112.378
112.351
112.333
112.323
112.321
112.326
112.338
112.357
112.382
112.413
112.45
112.492
112.539
395.76
387.31
378.871
370.46
362.091
353.774
345.521
337.342
329.248
321.248
313.352
305.569
297.907
290.374
282.977
275.723
268.618
261.667
254.877
248.251
241.792
235.506
229.393
223.457
217.7
212.122
206.725
201.509
196.474
191.619
186.943
182.446
178.125
173.979
170.006
166.201
162.564
159.09
155.777
152.62
149.615
146.76
144.05
141.48
139.046
136.744
134.569
132.517
130.583
128.763
127.052
125.446
123.939
122.529
121.209
119.977
118.827
117.755
116.759
115.833
114.973
114.177
113.44
112.759
112.131
111.553
111.021
110.533
110.085
109.676
109.302
108.962
108.653
108.372
108.119
107.89
107.685
107.501
107.338
107.193
107.065
106.953
106.855
106.772
106.701
106.642
106.594
106.556
106.528
106.509
106.498
106.494
106.499
106.51
106.528
106.552
106.583
106.619
106.661
106.708
395.691
387.105
378.528
369.98
361.474
353.02
344.629
336.313
328.082
319.945
311.913
303.994
296.196
288.528
280.998
273.611
266.375
259.295
252.376
245.623
239.041
232.632
226.4
220.347
214.474
208.785
203.278
197.956
192.817
187.862
183.09
178.499
174.088
169.855
165.797
161.912
158.197
154.648
151.264
148.039
144.969
142.052
139.283
136.657
134.169
131.817
129.594
127.497
125.521
123.66
121.911
120.269
118.729
117.287
115.938
114.678
113.502
112.407
111.388
110.441
109.562
108.747
107.994
107.297
106.655
106.063
105.519
105.019
104.561
104.142
103.76
103.412
103.095
102.808
102.548
102.314
102.103
101.915
101.747
101.598
101.466
101.351
101.251
101.165
101.091
101.03
100.98
100.941
100.911
100.89
100.878
100.873
100.877
100.887
100.904
100.928
100.958
100.994
101.036
101.083
395.624
386.905
378.195
369.514
360.874
352.287
343.763
335.314
326.95
318.681
310.517
302.466
294.538
286.741
279.081
271.567
264.204
257
249.958
243.084
236.382
229.856
223.508
217.342
211.36
205.563
199.952
194.528
189.29
184.239
179.374
174.693
170.195
165.878
161.739
157.777
153.987
150.368
146.914
143.624
140.492
137.516
134.69
132.01
129.471
127.07
124.802
122.661
120.644
118.745
116.959
115.283
113.711
112.238
110.861
109.574
108.374
107.255
106.214
105.247
104.349
103.517
102.747
102.036
101.38
100.775
100.219
99.7085
99.2405
98.8123
98.4213
98.065
97.7411
97.4473
97.1815
96.9418
96.7262
96.5331
96.3609
96.208
96.0729
95.9545
95.8514
95.7626
95.687
95.6237
95.5718
95.5304
95.499
95.4768
95.4632
95.4577
95.46
95.4694
95.4858
95.5088
95.5382
95.5738
95.6153
95.6618
395.56
386.711
377.871
369.061
360.292
351.576
342.924
334.346
325.854
317.457
309.166
300.988
292.934
285.012
277.228
269.591
262.107
254.783
247.622
240.632
233.815
227.177
220.719
214.445
208.357
202.457
196.746
191.224
185.892
180.749
175.794
171.027
166.446
162.048
157.832
153.795
149.935
146.247
142.728
139.375
136.184
133.15
130.269
127.538
124.95
122.503
120.19
118.008
115.951
114.015
112.195
110.485
108.882
107.381
105.976
104.664
103.439
102.298
101.237
100.25
99.3343
98.4857
97.7003
96.9746
96.3049
95.6879
95.1204
94.5992
94.1215
93.6844
93.2851
92.9212
92.5903
92.2901
92.0185
91.7734
91.5529
91.3554
91.179
91.0223
90.8839
90.7623
90.6564
90.565
90.487
90.4215
90.3676
90.3245
90.2915
90.2678
90.2528
90.2462
90.2473
90.2558
90.2713
90.2935
90.3222
90.3572
90.3981
90.4441
395.497
386.523
377.559
368.623
359.729
350.888
342.112
333.41
324.794
316.274
307.86
299.561
291.385
283.343
275.44
267.685
260.084
252.645
245.371
238.269
231.342
224.596
218.032
211.655
205.466
199.467
193.66
188.045
182.621
177.39
172.35
167.501
162.84
158.365
154.076
149.968
146.038
142.285
138.703
135.29
132.042
128.953
126.021
123.24
120.606
118.113
115.759
113.536
111.442
109.47
107.616
105.875
104.242
102.713
101.282
99.9453
98.698
97.5357
96.4541
95.4488
94.5158
93.6511
92.8508
92.1111
91.4286
90.7997
90.2212
89.6899
89.2028
88.757
88.3498
87.9786
87.641
87.3346
87.0573
86.807
86.5818
86.3798
86.1994
86.0391
85.8973
85.7727
85.6639
85.57
85.4897
85.422
85.3662
85.3213
85.2865
85.2614
85.2451
85.2371
85.2371
85.2446
85.2591
85.2805
85.3084
85.3426
85.383
85.4284
395.437
386.341
377.256
368.2
359.186
350.224
341.328
332.506
323.771
315.133
306.6
298.184
289.892
281.734
273.717
265.848
258.136
250.586
243.203
235.994
228.962
222.113
215.448
208.972
202.686
196.593
190.694
184.989
179.479
174.163
169.042
164.113
159.376
154.828
150.467
146.291
142.297
138.481
134.839
131.369
128.065
124.925
121.942
119.114
116.435
113.9
111.505
109.244
107.114
105.108
103.222
101.45
99.7891
98.233
96.7772
95.417
94.1478
92.965
91.8642
90.8411
89.8915
89.0113
88.1967
87.4437
86.7488
86.1086
85.5195
84.9784
84.4823
84.0282
83.6133
83.2351
82.8909
82.5786
82.2958
82.0404
81.8106
81.6044
81.4202
81.2562
81.1112
80.9835
80.872
80.7755
80.6929
80.6231
80.5653
80.5186
80.4822
80.4555
80.4378
80.4286
80.4274
80.4337
80.4472
80.4677
80.4947
80.5282
80.5678
80.6126
395.378
386.166
376.965
367.792
358.662
349.584
340.572
331.636
322.786
314.033
305.387
296.858
288.454
280.185
272.058
264.081
256.262
248.606
241.119
233.808
226.675
219.727
212.965
206.395
200.016
193.833
187.846
182.055
176.462
171.066
165.867
160.863
156.053
151.435
147.007
142.766
138.709
134.833
131.134
127.608
124.253
121.062
118.032
115.158
112.436
109.861
107.427
105.13
102.965
100.926
99.0091
97.209
95.5205
93.9389
92.4591
91.0765
89.7863
88.5838
87.4647
86.4245
85.459
84.5641
83.7356
82.9699
82.2632
81.612
81.0128
80.4623
79.9575
79.4954
79.0732
78.6881
78.3378
78.0197
77.7316
77.4713
77.237
77.0267
76.8387
76.6713
76.523
76.3924
76.2783
76.1793
76.0943
76.0225
75.9627
75.9142
75.8761
75.8478
75.8287
75.8182
75.8157
75.8209
75.8333
75.8527
75.8789
75.9115
75.9503
75.9943
395.322
385.998
376.684
367.4
358.157
348.969
339.845
330.798
321.838
312.975
304.22
295.583
287.072
278.697
270.465
262.384
254.462
246.705
239.119
231.709
224.481
217.438
210.584
203.923
197.456
191.187
185.115
179.243
173.571
168.098
162.824
157.749
152.869
148.184
143.691
139.388
135.272
131.338
127.585
124.007
120.601
117.363
114.288
111.371
108.608
105.993
103.522
101.19
98.992
96.9223
94.9761
93.1483
91.4339
89.8278
88.3251
86.9211
85.6107
84.3896
83.2529
82.1964
81.2157
80.3065
79.4649
78.687
77.969
77.3072
76.6983
76.1388
75.6257
75.1559
74.7266
74.335
73.9786
73.655
73.3618
73.0968
72.8582
72.6439
72.4522
72.2814
72.13
71.9966
71.8797
71.7783
71.6911
71.6171
71.5554
71.5051
71.4654
71.4355
71.4149
71.403
71.3992
71.4032
71.4145
71.4329
71.458
71.4897
71.5276
71.5709
395.268
385.836
376.415
367.022
357.673
348.377
339.147
329.993
320.927
311.96
303.101
294.36
285.746
277.269
268.937
260.757
252.736
244.882
237.201
229.698