/*--------------------------------*- C++ -*----------------------------------*\
  =========                 |
  \\      /  F ield         | OpenFOAM: The Open Source CFD Toolbox
   \\    /   O peration     | Website:  https://openfoam.org
    \\  /    A nd           | Version:  10
     \\/     M anipulation  |
\*---------------------------------------------------------------------------*/
FoamFile
{
    format      ascii;
    class       volScalarField;
    location    "0.4";
    object      T_0;
}
// * * * * * * * * * * * * * * * * * * * * * * * * * * * * * * * * * * * * * //

dimensions      [0 0 -1 0 0 0 0];

internalField   nonuniform List<scalar> 
100
(
0.0719348
0.213255
0.34702
0.468491
0.573367
0.65793
0.719186
0.754964
0.763998
0.745966
0.701508
0.632199
0.540494
0.429642
0.303569
0.166742
0.0240084
-0.119576
-0.258924
-0.389099
-0.505491
-0.603975
-0.681063
-0.734025
-0.760983
-0.760982
-0.734024
-0.681063
-0.603974
-0.50549
-0.389098
-0.258922
-0.119574
0.0240102
0.166744
0.303571
0.429643
0.540496
0.632201
0.701509
0.745967
0.763998
0.754965
0.719186
0.65793
0.573366
0.468491
0.347019
0.213253
0.0719334
-0.0719348
-0.213255
-0.34702
-0.468492
-0.573367
-0.657931
-0.719187
-0.754965
-0.763998
-0.745967
-0.701509
-0.6322
-0.540494
-0.429642
-0.303569
-0.166742
-0.0240086
0.119576
0.258924
0.389099
0.505491
0.603975
0.681063
0.734024
0.760982
0.760982
0.734024
0.681063
0.603974
0.50549
0.389098
0.258922
0.119574
-0.0240101
-0.166744
-0.30357
-0.429643
-0.540495
-0.6322
-0.701509
-0.745966
-0.763998
-0.754964
-0.719185
-0.657929
-0.573366
-0.46849
-0.347018
-0.213253
-0.0719332
)
;

boundaryField
{
    inlet
    {
        type            cyclic;
    }
    outlet
    {
        type            cyclic;
    }
    bottom
    {
        type            slip;
    }
    top
    {
        type            slip;
    }
    frontAndBack
    {
        type            empty;
    }
}


// ************************************************************************* //
