/*--------------------------------*- C++ -*----------------------------------*\
| =========                 |                                                 |
| \\      /  F ield         | OpenFOAM: The Open Source CFD Toolbox           |
|  \\    /   O peration     | Version:  2406                                  |
|   \\  /    A nd           | Website:  www.openfoam.com                      |
|    \\/     M anipulation  |                                                 |
\*---------------------------------------------------------------------------*/
FoamFile
{
    version     2.0;
    format      ascii;
    arch        "LSB;label=32;scalar=64";
    class       volScalarField;
    location    "8";
    object      p;
}
// * * * * * * * * * * * * * * * * * * * * * * * * * * * * * * * * * * * * * //

dimensions      [0 2 -2 0 0 0 0];

internalField   nonuniform List<scalar> 
34560
(
-19.659669
-19.664087
-19.671599
-19.683699
-19.700803
-19.722677
-19.74777
-19.775195
-19.802934
-19.646943
-19.653002
-19.66319
-19.679337
-19.701705
-19.729534
-19.76053
-19.793241
-19.82582
-19.634163
-19.642086
-19.655215
-19.675548
-19.703047
-19.736245
-19.77204
-19.808395
-19.843618
-19.619437
-19.629256
-19.645457
-19.670209
-19.703018
-19.741498
-19.781836
-19.82134
-19.858642
-19.603538
-19.615326
-19.634672
-19.663886
-19.701962
-19.745549
-19.790224
-19.832733
-19.871769
-19.587858
-19.601462
-19.623769
-19.657227
-19.700277
-19.748593
-19.797253
-19.84251
-19.883003
-19.573005
-19.588261
-19.613292
-19.650662
-19.698254
-19.75081
-19.803003
-19.85068
-19.892407
-19.559414
-19.576148
-19.603608
-19.644451
-19.69604
-19.752273
-19.807502
-19.857247
-19.900025
-19.547589
-19.565582
-19.595107
-19.638884
-19.693825
-19.753108
-19.810832
-19.86227
-19.905923
-19.53824
-19.557205
-19.588333
-19.634387
-19.691913
-19.753533
-19.813154
-19.865871
-19.910203
-19.53192
-19.551541
-19.583755
-19.631339
-19.690585
-19.753757
-19.814633
-19.86819
-19.912984
-19.528411
-19.548408
-19.58122
-19.629618
-19.689766
-19.753748
-19.815276
-19.869271
-19.914314
-19.528412
-19.548408
-19.58122
-19.629618
-19.689767
-19.753748
-19.815277
-19.869272
-19.914315
-19.531921
-19.551541
-19.583756
-19.631339
-19.690586
-19.753758
-19.814634
-19.868191
-19.912985
-19.538241
-19.557206
-19.588335
-19.634388
-19.691914
-19.753534
-19.813155
-19.865872
-19.910205
-19.54759
-19.565584
-19.595108
-19.638886
-19.693826
-19.753109
-19.810833
-19.862272
-19.905924
-19.559416
-19.57615
-19.60361
-19.644452
-19.696041
-19.752274
-19.807503
-19.857248
-19.900025
-19.573007
-19.588263
-19.613294
-19.650664
-19.698256
-19.750812
-19.803004
-19.85068
-19.892406
-19.587862
-19.601466
-19.623773
-19.657231
-19.70028
-19.748595
-19.797254
-19.84251
-19.883002
-19.603543
-19.615331
-19.634676
-19.663891
-19.701966
-19.745552
-19.790226
-19.832733
-19.871767
-19.619442
-19.629261
-19.645462
-19.670214
-19.703023
-19.741502
-19.781839
-19.821341
-19.858641
-19.634169
-19.642092
-19.655221
-19.675554
-19.703053
-19.73625
-19.772044
-19.808397
-19.843618
-19.646949
-19.653008
-19.663195
-19.679343
-19.701711
-19.729539
-19.760534
-19.793244
-19.825823
-19.659675
-19.664093
-19.671605
-19.683706
-19.70081
-19.722683
-19.747775
-19.775202
-19.802942
-18.899605
-18.897633
-18.895337
-18.892224
-18.886966
-18.878395
-18.866497
-18.851839
-18.836688
-18.919525
-18.916886
-18.913479
-18.908397
-18.899915
-18.886879
-18.870222
-18.851912
-18.834709
-18.941778
-18.938488
-18.934139
-18.927381
-18.915996
-18.898718
-18.877341
-18.855319
-18.835639
-18.963882
-18.9599
-18.954594
-18.946226
-18.93218
-18.911092
-18.885324
-18.859645
-18.837224
-18.985456
-18.980833
-18.974581
-18.964563
-18.947927
-18.923309
-18.893432
-18.864201
-18.83912
-19.005674
-19.000524
-18.993437
-18.981845
-18.962757
-18.935003
-18.901454
-18.868882
-18.841323
-19.024079
-19.018455
-19.0106
-18.997535
-18.976182
-18.945666
-18.908966
-18.873435
-18.843628
-19.040207
-19.034195
-19.025681
-19.01132
-18.987957
-18.955023
-18.915683
-18.877633
-18.845786
-19.053634
-19.04732
-19.038275
-19.022835
-18.997773
-18.962785
-18.921333
-18.881252
-18.847606
-19.063998
-19.057471
-19.048031
-19.031762
-19.005369
-18.968758
-18.925654
-18.884022
-18.848976
-19.071073
-19.064395
-19.054675
-19.037826
-19.010508
-18.972769
-18.92852
-18.885855
-18.849896
-19.074654
-19.06791
-19.058058
-19.040921
-19.013132
-18.974811
-18.929971
-18.886781
-18.850361
-19.074654
-19.06791
-19.058058
-19.040922
-19.013133
-18.974811
-18.929971
-18.886781
-18.850362
-19.071074
-19.064396
-19.054676
-19.037827
-19.010509
-18.97277
-18.928521
-18.885856
-18.849896
-19.063999
-19.057472
-19.048032
-19.031763
-19.00537
-18.968759
-18.925655
-18.884023
-18.848977
-19.053636
-19.047322
-19.038276
-19.022837
-18.997774
-18.962786
-18.921334
-18.881252
-18.847607
-19.040209
-19.034197
-19.025683
-19.011322
-18.987959
-18.955024
-18.915685
-18.877633
-18.845786
-19.024082
-19.018458
-19.010603
-18.997538
-18.976184
-18.945668
-18.908968
-18.873435
-18.843628
-19.005678
-19.000528
-18.993441
-18.98185
-18.962761
-18.935007
-18.901456
-18.868883
-18.841323
-18.985461
-18.980838
-18.974586
-18.964568
-18.947932
-18.923313
-18.893435
-18.864202
-18.839121
-18.963887
-18.959906
-18.9546
-18.946232
-18.932186
-18.911097
-18.885328
-18.859647
-18.837225
-18.941785
-18.938495
-18.934146
-18.927389
-18.916003
-18.898725
-18.877347
-18.855323
-18.835642
-18.919533
-18.916894
-18.913487
-18.908405
-18.899923
-18.886887
-18.87023
-18.851919
-18.834714
-18.899614
-18.897641
-18.895346
-18.892233
-18.886975
-18.878404
-18.866506
-18.851848
-18.836695
-17.871113
-17.870567
-17.870098
-17.870084
-17.870876
-17.872331
-17.872889
-17.87093
-17.867411
-17.874611
-17.873924
-17.873231
-17.872945
-17.873471
-17.874741
-17.875148
-17.872854
-17.8691
-17.877942
-17.877134
-17.876297
-17.875918
-17.876508
-17.878046
-17.878778
-17.876611
-17.872799
-17.88049
-17.879551
-17.878574
-17.878141
-17.878881
-17.880789
-17.881906
-17.879896
-17.875881
-17.882728
-17.881667
-17.880557
-17.880062
-17.88088
-17.883017
-17.884386
-17.882482
-17.878339
-17.884916
-17.883729
-17.882503
-17.881992
-17.882887
-17.885069
-17.886486
-17.884655
-17.880455
-17.886962
-17.885656
-17.884335
-17.883844
-17.884841
-17.887007
-17.888332
-17.886523
-17.882315
-17.88887
-17.887459
-17.886064
-17.885597
-17.886692
-17.888841
-17.889986
-17.888129
-17.883981
-17.89054
-17.889046
-17.887598
-17.887165
-17.88837
-17.890545
-17.891473
-17.889503
-17.885462
-17.891888
-17.89033
-17.888849
-17.888454
-17.889764
-17.89199
-17.892774
-17.890697
-17.886709
-17.892834
-17.891229
-17.889726
-17.889367
-17.890762
-17.893037
-17.893751
-17.891597
-17.887589
-17.893309
-17.891685
-17.890174
-17.889836
-17.891279
-17.893587
-17.894274
-17.892078
-17.888042
-17.89331
-17.891685
-17.890174
-17.889836
-17.891279
-17.893588
-17.894274
-17.892078
-17.888042
-17.892835
-17.89123
-17.889727
-17.889368
-17.890763
-17.893038
-17.893751
-17.891597
-17.88759
-17.891889
-17.890331
-17.88885
-17.888456
-17.889765
-17.891991
-17.892775
-17.890698
-17.886709
-17.890541
-17.889047
-17.8876
-17.887167
-17.888371
-17.890546
-17.891474
-17.889504
-17.885462
-17.888872
-17.887461
-17.886066
-17.885599
-17.886694
-17.888843
-17.889987
-17.88813
-17.883981
-17.886965
-17.885659
-17.884338
-17.883847
-17.884844
-17.887009
-17.888334
-17.886524
-17.882315
-17.884919
-17.883733
-17.882507
-17.881996
-17.882891
-17.885073
-17.886489
-17.884657
-17.880455
-17.882733
-17.881672
-17.880562
-17.880067
-17.880886
-17.883022
-17.88439
-17.882485
-17.87834
-17.880496
-17.879557
-17.878581
-17.878148
-17.878888
-17.880796
-17.881911
-17.8799
-17.875882
-17.87795
-17.877142
-17.876305
-17.875927
-17.876517
-17.878054
-17.878785
-17.876616
-17.872801
-17.87462
-17.873933
-17.873241
-17.872954
-17.873481
-17.874751
-17.875156
-17.872861
-17.869104
-17.871123
-17.870577
-17.870108
-17.870094
-17.870886
-17.872341
-17.872898
-17.870938
-17.867416
-17.060613
-17.060785
-17.060992
-17.061138
-17.061036
-17.0604
-17.059442
-17.05872
-17.057663
-17.065161
-17.065277
-17.06536
-17.065266
-17.064727
-17.063331
-17.061217
-17.059217
-17.05754
-17.070166
-17.070229
-17.070225
-17.069962
-17.06911
-17.067197
-17.064326
-17.061435
-17.059186
-17.074894
-17.074895
-17.074807
-17.074406
-17.073281
-17.070985
-17.06762
-17.064138
-17.061375
-17.079306
-17.079248
-17.079086
-17.078559
-17.077149
-17.074441
-17.070673
-17.066767
-17.063604
-17.083229
-17.083139
-17.082928
-17.082268
-17.080598
-17.077503
-17.073347
-17.069065
-17.065533
-17.086451
-17.086353
-17.086114
-17.085347
-17.083425
-17.079988
-17.075491
-17.070873
-17.067006
-17.089007
-17.088919
-17.088658
-17.087792
-17.085652
-17.081916
-17.077124
-17.072239
-17.068099
-17.090906
-17.090839
-17.090578
-17.089642
-17.087332
-17.08335
-17.078318
-17.073237
-17.06889
-17.092249
-17.0922
-17.091941
-17.090955
-17.088516
-17.084347
-17.079139
-17.073926
-17.069427
-17.093104
-17.093069
-17.092812
-17.091789
-17.089258
-17.084962
-17.079639
-17.074343
-17.069749
-17.093505
-17.093478
-17.093227
-17.092187
-17.089611
-17.085251
-17.079874
-17.074539
-17.069898
-17.093505
-17.093479
-17.093227
-17.092187
-17.089611
-17.085251
-17.079874
-17.074539
-17.069898
-17.093105
-17.093069
-17.092813
-17.09179
-17.089259
-17.084962
-17.07964
-17.074344
-17.069749
-17.09225
-17.092201
-17.091942
-17.090956
-17.088517
-17.084348
-17.07914
-17.073926
-17.069427
-17.090908
-17.090841
-17.09058
-17.089644
-17.087333
-17.083352
-17.07832
-17.073238
-17.06889
-17.089009
-17.088921
-17.08866
-17.087794
-17.085655
-17.081918
-17.077126
-17.07224
-17.068099
-17.086453
-17.086356
-17.086117
-17.08535
-17.083428
-17.079991
-17.075493
-17.070874
-17.067006
-17.083232
-17.083143
-17.082932
-17.082272
-17.080602
-17.077507
-17.073351
-17.069068
-17.065533
-17.079311
-17.079253
-17.07909
-17.078564
-17.077154
-17.074446
-17.070678
-17.06677
-17.063605
-17.0749
-17.074901
-17.074813
-17.074412
-17.073288
-17.070991
-17.067626
-17.064142
-17.061377
-17.070173
-17.070237
-17.070232
-17.06997
-17.069118
-17.067205
-17.064333
-17.06144
-17.059189
-17.06517
-17.065286
-17.065369
-17.065275
-17.064736
-17.06334
-17.061225
-17.059224
-17.057545
-17.060622
-17.060795
-17.061002
-17.061148
-17.061045
-17.060409
-17.05945
-17.058728
-17.057669
-16.181473
-16.181482
-16.181527
-16.181648
-16.181891
-16.182288
-16.182832
-16.183388
-16.183635
-16.183543
-16.183512
-16.18349
-16.183508
-16.183604
-16.183825
-16.184147
-16.184418
-16.184482
-16.185718
-16.185655
-16.185596
-16.185575
-16.185625
-16.185786
-16.185993
-16.186115
-16.186087
-16.187522
-16.187436
-16.187358
-16.18733
-16.187387
-16.187527
-16.187668
-16.187651
-16.187434
-16.188832
-16.188749
-16.188663
-16.188611
-16.188652
-16.188783
-16.188868
-16.188717
-16.188323
-16.189794
-16.189717
-16.189626
-16.189564
-16.189578
-16.18968
-16.189721
-16.189471
-16.188944
-16.190554
-16.190479
-16.190382
-16.19031
-16.190322
-16.190404
-16.190406
-16.190092
-16.189463
-16.191154
-16.191078
-16.190985
-16.190917
-16.190931
-16.191011
-16.19099
-16.19062
-16.189896
-16.191627
-16.191546
-16.191448
-16.191382
-16.191405
-16.191492
-16.191463
-16.191047
-16.19024
-16.191977
-16.191894
-16.191792
-16.191724
-16.191752
-16.191851
-16.191821
-16.19137
-16.190499
-16.192211
-16.192124
-16.192018
-16.191949
-16.191982
-16.192089
-16.19206
-16.191589
-16.190675
-16.192318
-16.192231
-16.192125
-16.192057
-16.192093
-16.192207
-16.192181
-16.191701
-16.190767
-16.192318
-16.192231
-16.192125
-16.192057
-16.192093
-16.192208
-16.192181
-16.191701
-16.190767
-16.192211
-16.192124
-16.192018
-16.19195
-16.191982
-16.19209
-16.192061
-16.191589
-16.190675
-16.191977
-16.191894
-16.191792
-16.191725
-16.191753
-16.191852
-16.191821
-16.191371
-16.190498
-16.191628
-16.191547
-16.191449
-16.191383
-16.191406
-16.191494
-16.191464
-16.191048
-16.19024
-16.191155
-16.191079
-16.190987
-16.190918
-16.190933
-16.191013
-16.190992
-16.190621
-16.189895
-16.190556
-16.190481
-16.190384
-16.190313
-16.190324
-16.190406
-16.190408
-16.190093
-16.189463
-16.189797
-16.18972
-16.189629
-16.189568
-16.189582
-16.189684
-16.189724
-16.189473
-16.188945
-16.188836
-16.188753
-16.188668
-16.188616
-16.188658
-16.188788
-16.188873
-16.18872
-16.188325
-16.187527
-16.187442
-16.187364
-16.187336
-16.187393
-16.187533
-16.187674
-16.187655
-16.187437
-16.185725
-16.185662
-16.185604
-16.185583
-16.185633
-16.185793
-16.186
-16.186121
-16.186091
-16.183551
-16.183521
-16.183499
-16.183517
-16.183613
-16.183834
-16.184155
-16.184427
-16.184488
-16.181483
-16.181491
-16.181537
-16.181658
-16.181901
-16.182298
-16.182843
-16.183399
-16.183645
-15.351719
-15.351768
-15.351831
-15.351899
-15.351962
-15.352
-15.351996
-15.351952
-15.351758
-15.352345
-15.35239
-15.352437
-15.352459
-15.352425
-15.352306
-15.352109
-15.351865
-15.351568
-15.353126
-15.353168
-15.353198
-15.353177
-15.35306
-15.352827
-15.352529
-15.352216
-15.351933
-15.353943
-15.353975
-15.353986
-15.353927
-15.353753
-15.35346
-15.353106
-15.352749
-15.352446
-15.354859
-15.354876
-15.354866
-15.354778
-15.35457
-15.35424
-15.353828
-15.353406
-15.353056
-15.355835
-15.355835
-15.355807
-15.355707
-15.355495
-15.355146
-15.35468
-15.354184
-15.353768
-15.356783
-15.356769
-15.356727
-15.356625
-15.356419
-15.356065
-15.355564
-15.355006
-15.354517
-15.357652
-15.357627
-15.357577
-15.357474
-15.357274
-15.35692
-15.356396
-15.355784
-15.355222
-15.358393
-15.358361
-15.358306
-15.358201
-15.358005
-15.357656
-15.357115
-15.356458
-15.355827
-15.358973
-15.358937
-15.358877
-15.358773
-15.358584
-15.358239
-15.357686
-15.356992
-15.356304
-15.359374
-15.359334
-15.359273
-15.359169
-15.358985
-15.358643
-15.358083
-15.357362
-15.356633
-15.359576
-15.359535
-15.359472
-15.359369
-15.359188
-15.358849
-15.358285
-15.357552
-15.356802
-15.359576
-15.359535
-15.359472
-15.359369
-15.359188
-15.35885
-15.358285
-15.357552
-15.356801
-15.359374
-15.359334
-15.359273
-15.359169
-15.358985
-15.358644
-15.358083
-15.357362
-15.356632
-15.358973
-15.358937
-15.358878
-15.358773
-15.358584
-15.35824
-15.357687
-15.356992
-15.356303
-15.358393
-15.358361
-15.358306
-15.358201
-15.358006
-15.357657
-15.357116
-15.356458
-15.355826
-15.357653
-15.357628
-15.357578
-15.357476
-15.357275
-15.356921
-15.356397
-15.355784
-15.35522
-15.356784
-15.35677
-15.356729
-15.356627
-15.356421
-15.356067
-15.355566
-15.355006
-15.354516
-15.355837
-15.355838
-15.35581
-15.35571
-15.355498
-15.355149
-15.354683
-15.354185
-15.353767
-15.354862
-15.35488
-15.35487
-15.354783
-15.354575
-15.354245
-15.353832
-15.353408
-15.353056
-15.353949
-15.353981
-15.353992
-15.353933
-15.35376
-15.353466
-15.353112
-15.352753
-15.352447
-15.353133
-15.353176
-15.353206
-15.353185
-15.353068
-15.352836
-15.352537
-15.352222
-15.351936
-15.352354
-15.3524
-15.352447
-15.352469
-15.352435
-15.352316
-15.352118
-15.351873
-15.351573
-15.35173
-15.351779
-15.351842
-15.35191
-15.351973
-15.352012
-15.352007
-15.351963
-15.351767
-14.513358
-14.513367
-14.513385
-14.513421
-14.513487
-14.513597
-14.513747
-14.513922
-14.514029
-14.513927
-14.513927
-14.513929
-14.51394
-14.513973
-14.514035
-14.514116
-14.514192
-14.514222
-14.514512
-14.514506
-14.514501
-14.514503
-14.514524
-14.514563
-14.514603
-14.514625
-14.514631
-14.515018
-14.515008
-14.514999
-14.515
-14.515018
-14.515043
-14.515049
-14.515027
-14.51499
-14.515429
-14.515418
-14.515409
-14.515409
-14.515419
-14.515419
-14.515388
-14.515321
-14.515235
-14.515742
-14.515732
-14.515724
-14.51572
-14.515713
-14.515683
-14.515615
-14.515504
-14.51537
-14.515954
-14.515947
-14.515938
-14.515924
-14.515898
-14.515843
-14.515743
-14.515593
-14.515416
-14.516099
-14.516093
-14.516081
-14.516057
-14.516014
-14.515937
-14.515807
-14.515621
-14.515407
-14.516203
-14.516196
-14.51618
-14.51615
-14.516092
-14.515993
-14.515835
-14.51562
-14.515376
-14.516277
-14.516268
-14.51625
-14.516213
-14.516144
-14.516026
-14.515846
-14.515608
-14.515343
-14.516325
-14.516315
-14.516294
-14.516253
-14.516174
-14.516044
-14.51585
-14.515596
-14.515316
-14.516346
-14.516336
-14.516315
-14.516271
-14.516188
-14.516052
-14.515851
-14.51559
-14.515302
-14.516346
-14.516336
-14.516314
-14.516271
-14.516188
-14.516052
-14.515851
-14.51559
-14.515302
-14.516324
-14.516315
-14.516294
-14.516253
-14.516174
-14.516044
-14.51585
-14.515596
-14.515315
-14.516276
-14.516268
-14.51625
-14.516213
-14.516144
-14.516026
-14.515846
-14.515607
-14.515341
-14.516202
-14.516195
-14.51618
-14.51615
-14.516093
-14.515993
-14.515835
-14.515618
-14.515374
-14.516099
-14.516093
-14.516081
-14.516058
-14.516015
-14.515938
-14.515807
-14.51562
-14.515404
-14.515954
-14.515947
-14.515939
-14.515926
-14.5159
-14.515845
-14.515744
-14.515592
-14.515412
-14.515743
-14.515734
-14.515726
-14.515723
-14.515716
-14.515686
-14.515617
-14.515504
-14.515367
-14.515432
-14.515422
-14.515413
-14.515414
-14.515424
-14.515424
-14.515391
-14.515322
-14.515233
-14.515024
-14.515014
-14.515005
-14.515006
-14.515025
-14.51505
-14.515054
-14.515029
-14.514988
-14.51452
-14.514515
-14.51451
-14.514512
-14.514533
-14.514572
-14.51461
-14.51463
-14.514631
-14.513937
-14.513938
-14.51394
-14.513952
-14.513984
-14.514046
-14.514126
-14.514199
-14.514225
-14.513369
-14.513378
-14.513397
-14.513433
-14.513499
-14.513609
-14.513759
-14.513931
-14.514035
-13.685152
-13.685163
-13.685177
-13.685196
-13.685218
-13.685241
-13.685268
-13.685302
-13.685305
-13.68533
-13.685338
-13.685348
-13.685354
-13.685353
-13.685341
-13.685326
-13.685312
-13.685291
-13.685546
-13.685552
-13.685557
-13.685554
-13.685536
-13.685505
-13.685469
-13.685442
-13.68543
-13.68576
-13.685764
-13.685764
-13.685754
-13.685727
-13.685688
-13.685646
-13.685613
-13.685599
-13.685986
-13.685986
-13.685982
-13.685965
-13.685933
-13.68589
-13.685842
-13.685801
-13.685779
-13.686231
-13.686228
-13.686219
-13.6862
-13.686166
-13.686119
-13.686064
-13.686013
-13.68598
-13.686476
-13.68647
-13.686459
-13.686439
-13.686406
-13.686359
-13.6863
-13.68624
-13.686194
-13.686705
-13.686697
-13.686685
-13.686666
-13.686635
-13.68659
-13.686529
-13.686462
-13.686401
-13.686904
-13.686895
-13.686882
-13.686863
-13.686836
-13.686794
-13.686733
-13.686659
-13.686585
-13.687063
-13.687052
-13.687039
-13.687021
-13.686997
-13.686959
-13.686898
-13.686818
-13.686731
-13.687173
-13.687162
-13.687148
-13.687132
-13.68711
-13.687074
-13.687014
-13.68693
-13.686833
-13.687229
-13.687218
-13.687204
-13.687188
-13.687168
-13.687133
-13.687073
-13.686987
-13.686885
-13.687229
-13.687218
-13.687204
-13.687188
-13.687168
-13.687133
-13.687073
-13.686986
-13.686885
-13.687172
-13.687161
-13.687148
-13.687132
-13.68711
-13.687074
-13.687014
-13.686929
-13.686832
-13.687061
-13.687051
-13.687038
-13.687021
-13.686997
-13.686959
-13.686898
-13.686817
-13.686729
-13.686903
-13.686893
-13.686881
-13.686863
-13.686836
-13.686794
-13.686733
-13.686658
-13.686581
-13.686704
-13.686696
-13.686684
-13.686666
-13.686635
-13.68659
-13.686529
-13.68646
-13.686398
-13.686475
-13.68647
-13.686459
-13.68644
-13.686407
-13.68636
-13.6863
-13.686238
-13.68619
-13.686232
-13.686229
-13.686221
-13.686202
-13.686169
-13.686121
-13.686065
-13.686012
-13.685976
-13.685988
-13.685989
-13.685985
-13.685969
-13.685938
-13.685894
-13.685844
-13.685801
-13.685776
-13.685764
-13.685769
-13.68577
-13.68576
-13.685733
-13.685693
-13.68565
-13.685614
-13.685597
-13.685553
-13.68556
-13.685565
-13.685562
-13.685545
-13.685512
-13.685475
-13.685446
-13.68543
-13.68534
-13.685348
-13.685358
-13.685364
-13.685363
-13.685351
-13.685334
-13.685318
-13.685294
-13.685163
-13.685174
-13.685188
-13.685207
-13.685229
-13.685253
-13.685279
-13.685311
-13.685311
-12.853962
-12.853963
-12.853967
-12.853976
-12.853994
-12.854023
-12.854064
-12.854111
-12.85414
-12.854102
-12.854101
-12.854101
-12.854104
-12.854112
-12.854129
-12.854149
-12.854168
-12.854175
-12.854247
-12.854245
-12.854243
-12.854243
-12.854248
-12.854256
-12.854264
-12.854268
-12.854271
-12.854371
-12.854368
-12.854366
-12.854366
-12.854369
-12.854372
-12.854371
-12.854365
-12.85436
-12.854472
-12.854469
-12.854466
-12.854466
-12.854466
-12.854464
-12.854454
-12.854439
-12.854425
-12.854552
-12.854549
-12.854546
-12.854543
-12.85454
-12.854531
-12.854515
-12.85449
-12.854465
-12.85461
-12.854607
-12.854603
-12.854598
-12.854591
-12.854578
-12.854554
-12.85452
-12.854485
-12.854652
-12.854649
-12.854645
-12.854638
-12.854628
-12.854609
-12.854578
-12.854535
-12.854489
-12.854684
-12.854681
-12.854675
-12.854667
-12.854653
-12.85463
-12.854591
-12.85454
-12.854486
-12.854707
-12.854704
-12.854697
-12.854688
-12.854671
-12.854643
-12.854599
-12.854542
-12.85448
-12.854722
-12.854718
-12.854712
-12.854701
-12.854683
-12.854651
-12.854604
-12.854541
-12.854475
-12.854729
-12.854725
-12.854718
-12.854707
-12.854688
-12.854655
-12.854605
-12.85454
-12.854472
-12.854729
-12.854725
-12.854718
-12.854707
-12.854688
-12.854655
-12.854605
-12.85454
-12.854471
-12.854721
-12.854717
-12.854711
-12.854701
-12.854682
-12.854651
-12.854603
-12.85454
-12.854473
-12.854706
-12.854702
-12.854696
-12.854687
-12.854671
-12.854643
-12.854599
-12.85454
-12.854478
-12.854683
-12.854679
-12.854674
-12.854667
-12.854653
-12.854629
-12.854591
-12.854538
-12.854482
-12.854651
-12.854648
-12.854644
-12.854638
-12.854627
-12.854609
-12.854577
-12.854533
-12.854485
-12.854609
-12.854606
-12.854603
-12.854599
-12.854592
-12.854578
-12.854554
-12.854518
-12.85448
-12.854552
-12.854549
-12.854547
-12.854545
-12.854542
-12.854533
-12.854515
-12.854489
-12.854461
-12.854474
-12.854471
-12.854469
-12.854469
-12.85447
-12.854467
-12.854456
-12.854439
-12.854421
-12.854375
-12.854372
-12.85437
-12.85437
-12.854374
-12.854377
-12.854374
-12.854366
-12.854358
-12.854253
-12.854251
-12.854249
-12.85425
-12.854255
-12.854263
-12.854269
-12.854271
-12.854271
-12.85411
-12.854109
-12.854109
-12.854112
-12.854121
-12.854137
-12.854157
-12.854174
-12.854178
-12.85397
-12.853972
-12.853976
-12.853985
-12.854003
-12.854033
-12.854073
-12.85412
-12.854146
-12.02498
-12.024982
-12.024985
-12.024989
-12.024994
-12.025002
-12.025013
-12.025027
-12.025034
-12.02503
-12.025031
-12.025033
-12.025033
-12.025033
-12.025032
-12.025033
-12.025036
-12.025037
-12.025089
-12.02509
-12.02509
-12.025088
-12.025084
-12.02508
-12.025076
-12.025075
-12.025079
-12.025148
-12.025148
-12.025147
-12.025144
-12.025138
-12.025132
-12.025126
-12.025123
-12.025125
-12.025207
-12.025207
-12.025205
-12.025201
-12.025194
-12.025185
-12.025177
-12.02517
-12.025169
-12.025267
-12.025265
-12.025263
-12.025258
-12.025251
-12.02524
-12.025228
-12.025218
-12.025213
-12.025321
-12.025319
-12.025317
-12.025312
-12.025304
-12.025293
-12.025278
-12.025265
-12.025256
-12.02537
-12.025368
-12.025365
-12.02536
-12.025352
-12.02534
-12.025324
-12.025308
-12.025295
-12.02541
-12.025408
-12.025405
-12.025401
-12.025393
-12.025381
-12.025364
-12.025346
-12.025329
-12.025442
-12.02544
-12.025437
-12.025432
-12.025425
-12.025413
-12.025395
-12.025375
-12.025356
-12.025464
-12.025462
-12.025459
-12.025454
-12.025447
-12.025435
-12.025417
-12.025396
-12.025375
-12.025475
-12.025473
-12.02547
-12.025465
-12.025458
-12.025446
-12.025428
-12.025406
-12.025384
-12.025475
-12.025472
-12.025469
-12.025465
-12.025458
-12.025446
-12.025428
-12.025405
-12.025383
-12.025463
-12.025461
-12.025458
-12.025454
-12.025447
-12.025435
-12.025416
-12.025395
-12.025373
-12.025441
-12.025439
-12.025436
-12.025432
-12.025424
-12.025412
-12.025394
-12.025374
-12.025354
-12.025409
-12.025407
-12.025404
-12.0254
-12.025392
-12.02538
-12.025363
-12.025343
-12.025326
-12.025368
-12.025366
-12.025364
-12.025359
-12.025352
-12.02534
-12.025323
-12.025306
-12.025291
-12.02532
-12.025318
-12.025316
-12.025312
-12.025304
-12.025293
-12.025278
-12.025263
-12.025251
-12.025266
-12.025265
-12.025263
-12.025259
-12.025252
-12.025242
-12.025229
-12.025216
-12.025208
-12.025209
-12.025208
-12.025207
-12.025203
-12.025197
-12.025188
-12.025178
-12.02517
-12.025165
-12.025151
-12.025151
-12.025151
-12.025148
-12.025143
-12.025136
-12.025129
-12.025124
-12.025122
-12.025094
-12.025095
-12.025096
-12.025094
-12.025091
-12.025085
-12.02508
-12.025078
-12.025078
-12.025037
-12.025039
-12.02504
-12.025041
-12.025041
-12.02504
-12.025039
-12.025041
-12.025038
-12.024987
-12.02499
-12.024993
-12.024997
-12.025003
-12.02501
-12.02502
-12.025034
-12.025039
-11.195394
-11.195394
-11.195395
-11.195397
-11.195402
-11.195409
-11.195418
-11.195429
-11.195435
-11.195428
-11.195428
-11.195428
-11.195428
-11.19543
-11.195434
-11.195438
-11.195441
-11.195442
-11.195464
-11.195464
-11.195464
-11.195463
-11.195464
-11.195465
-11.195465
-11.195465
-11.195466
-11.195497
-11.195496
-11.195495
-11.195495
-11.195494
-11.195494
-11.195492
-11.19549
-11.19549
-11.195524
-11.195523
-11.195522
-11.195521
-11.19552
-11.195518
-11.195515
-11.195512
-11.195509
-11.195548
-11.195547
-11.195545
-11.195544
-11.195542
-11.195539
-11.195535
-11.19553
-11.195525
-11.195568
-11.195567
-11.195565
-11.195563
-11.195561
-11.195557
-11.195552
-11.195545
-11.195538
-11.195585
-11.195583
-11.195581
-11.195579
-11.195576
-11.195572
-11.195566
-11.195558
-11.195548
-11.195598
-11.195597
-11.195594
-11.195592
-11.195589
-11.195585
-11.195578
-11.195568
-11.195556
-11.195608
-11.195607
-11.195604
-11.195602
-11.195599
-11.195594
-11.195587
-11.195575
-11.195562
-11.195615
-11.195613
-11.195611
-11.195608
-11.195605
-11.195601
-11.195592
-11.19558
-11.195566
-11.195618
-11.195617
-11.195614
-11.195612
-11.195608
-11.195604
-11.195595
-11.195582
-11.195567
-11.195618
-11.195616
-11.195614
-11.195611
-11.195608
-11.195603
-11.195595
-11.195582
-11.195567
-11.195614
-11.195613
-11.19561
-11.195608
-11.195605
-11.1956
-11.195592
-11.195579
-11.195564
-11.195607
-11.195605
-11.195603
-11.195601
-11.195598
-11.195594
-11.195586
-11.195574
-11.195559
-11.195596
-11.195595
-11.195593
-11.195591
-11.195588
-11.195584
-11.195577
-11.195566
-11.195553
-11.195583
-11.195582
-11.19558
-11.195578
-11.195576
-11.195572
-11.195566
-11.195556
-11.195545
-11.195567
-11.195566
-11.195564
-11.195563
-11.195561
-11.195558
-11.195552
-11.195543
-11.195534
-11.195548
-11.195547
-11.195546
-11.195545
-11.195544
-11.195541
-11.195536
-11.195528
-11.195521
-11.195525
-11.195525
-11.195524
-11.195524
-11.195523
-11.195521
-11.195517
-11.195511
-11.195506
-11.1955
-11.195499
-11.195499
-11.195499
-11.195499
-11.195498
-11.195495
-11.195491
-11.195487
-11.195469
-11.195469
-11.195469
-11.195469
-11.19547
-11.19547
-11.195469
-11.195467
-11.195465
-11.195435
-11.195435
-11.195435
-11.195436
-11.195438
-11.195441
-11.195444
-11.195446
-11.195444
-11.195401
-11.195402
-11.195403
-11.195405
-11.195409
-11.195416
-11.195426
-11.195436
-11.195439
-10.366129
-10.366129
-10.36613
-10.366131
-10.366132
-10.366135
-10.366139
-10.366144
-10.366147
-10.366144
-10.366144
-10.366144
-10.366144
-10.366144
-10.366145
-10.366147
-10.366149
-10.36615
-10.366161
-10.366161
-10.366161
-10.36616
-10.36616
-10.366159
-10.366159
-10.36616
-10.366162
-10.366177
-10.366177
-10.366176
-10.366176
-10.366175
-10.366174
-10.366173
-10.366173
-10.366174
-10.366192
-10.366192
-10.366191
-10.36619
-10.366189
-10.366187
-10.366185
-10.366184
-10.366184
-10.366206
-10.366205
-10.366205
-10.366204
-10.366202
-10.366199
-10.366197
-10.366194
-10.366193
-10.366218
-10.366217
-10.366217
-10.366215
-10.366213
-10.36621
-10.366206
-10.366202
-10.366199
-10.366228
-10.366227
-10.366227
-10.366226
-10.366223
-10.36622
-10.366215
-10.366209
-10.366205
-10.366236
-10.366236
-10.366235
-10.366234
-10.366231
-10.366227
-10.366221
-10.366215
-10.366209
-10.366243
-10.366242
-10.366241
-10.36624
-10.366238
-10.366233
-10.366226
-10.366219
-10.366213
-10.366247
-10.366246
-10.366246
-10.366244
-10.366242
-10.366237
-10.36623
-10.366222
-10.366215
-10.366249
-10.366248
-10.366248
-10.366246
-10.366244
-10.366239
-10.366231
-10.366223
-10.366215
-10.366249
-10.366248
-10.366247
-10.366246
-10.366244
-10.366239
-10.366231
-10.366223
-10.366215
-10.366246
-10.366246
-10.366245
-10.366244
-10.366241
-10.366237
-10.366229
-10.366221
-10.366213
-10.366242
-10.366241
-10.366241
-10.36624
-10.366237
-10.366233
-10.366226
-10.366218
-10.366211
-10.366235
-10.366235
-10.366234
-10.366233
-10.366231
-10.366227
-10.366221
-10.366213
-10.366207
-10.366227
-10.366227
-10.366226
-10.366225
-10.366223
-10.36622
-10.366214
-10.366208
-10.366202
-10.366217
-10.366217
-10.366216
-10.366216
-10.366214
-10.366211
-10.366206
-10.366201
-10.366196
-10.366206
-10.366206
-10.366205
-10.366205
-10.366203
-10.366201
-10.366197
-10.366193
-10.36619
-10.366193
-10.366193
-10.366193
-10.366192
-10.366191
-10.366189
-10.366187
-10.366184
-10.366182
-10.36618
-10.36618
-10.36618
-10.366179
-10.366179
-10.366177
-10.366176
-10.366174
-10.366173
-10.366166
-10.366166
-10.366166
-10.366166
-10.366165
-10.366164
-10.366163
-10.366163
-10.366162
-10.36615
-10.366151
-10.366151
-10.366151
-10.366151
-10.366151
-10.366152
-10.366153
-10.366152
-10.366136
-10.366136
-10.366137
-10.366138
-10.366139
-10.366142
-10.366146
-10.366151
-10.366151
-9.5368494
-9.5368494
-9.5368497
-9.5368502
-9.5368511
-9.5368526
-9.5368547
-9.5368574
-9.5368591
-9.5368578
-9.5368577
-9.5368577
-9.5368577
-9.5368579
-9.5368583
-9.5368591
-9.5368602
-9.5368609
-9.536867
-9.5368669
-9.5368667
-9.5368665
-9.5368662
-9.5368659
-9.5368659
-9.5368663
-9.5368671
-9.5368759
-9.5368757
-9.5368754
-9.5368749
-9.5368744
-9.5368738
-9.5368734
-9.5368733
-9.5368739
-9.5368845
-9.5368842
-9.5368838
-9.5368832
-9.5368825
-9.5368818
-9.536881
-9.5368805
-9.5368806
-9.5368928
-9.5368924
-9.5368919
-9.5368912
-9.5368905
-9.5368897
-9.5368888
-9.5368879
-9.5368874
-9.5369005
-9.5369
-9.5368994
-9.5368987
-9.536898
-9.5368973
-9.5368963
-9.5368951
-9.5368941
-9.5369072
-9.5369067
-9.536906
-9.5369054
-9.5369047
-9.5369041
-9.5369031
-9.5369017
-9.5369002
-9.5369128
-9.5369123
-9.5369116
-9.536911
-9.5369104
-9.5369099