/*--------------------------------*- C++ -*----------------------------------*\
| =========                 |                                                 |
| \\      /  F ield         | OpenFOAM: The Open Source CFD Toolbox           |
|  \\    /   O peration     | Version:  2406                                  |
|   \\  /    A nd           | Website:  www.openfoam.com                      |
|    \\/     M anipulation  |                                                 |
\*---------------------------------------------------------------------------*/
FoamFile
{
    version     2.0;
    format      ascii;
    arch        "LSB;label=32;scalar=64";
    class       surfaceScalarField;
    location    "8";
    object      phi;
}
// * * * * * * * * * * * * * * * * * * * * * * * * * * * * * * * * * * * * * //

dimensions      [0 3 -1 0 0 0 0];

oriented        oriented;

internalField   nonuniform List<scalar> 
101088
(
0.0001311617
-9.8538457e-06
7.0257541e-06
8.500807e-06
0.00029487067
-4.3596903e-05
3.3026528e-05
3.8346362e-05
0.00048087532
-0.00010762535
8.5942901e-05
9.6117771e-05
0.00066401312
-0.00020831203
0.00017630524
0.00018914216
0.00080783722
-0.00033684476
0.00030249494
0.00031139627
0.00088125548
-0.00046130059
0.00043775648
0.00043496295
0.0008794322
-0.00053501178
0.00053428087
0.0005149285
0.00082373395
-0.00053201547
0.00055468282
0.00052481029
-0.00046007836
0.00049859674
0.0004732388
0.00074012442
0.00015960591
-1.0889859e-05
9.2854798e-06
0.00035477773
-4.7463639e-05
4.3280277e-05
0.0005694902
-0.00011548075
0.00011178866
0.00076939302
-0.00021955241
0.00022731977
0.00091001462
-0.00034862285
0.00038593068
0.00095940234
-0.00046835112
0.0005524883
0.00092104889
-0.00053292293
0.000669329
0.00082658725
-0.00051740953
0.00069506909
-0.00043714639
0.00063220576
0.00071709118
0.00018801835
-1.1452351e-05
1.1707824e-05
0.00041355586
-4.921126e-05
5.4086606e-05
0.00065445745
-0.00011824974
0.00013858192
0.00086806048
-0.00022148315
0.00027914068
0.0010037579
-0.0003463592
0.00046849215
0.0010310872
-0.00045756368
0.00066245572
0.00096256155
-0.00051190418
0.00079454675
0.00084043464
-0.00048729147
0.00082157099
-0.00040505354
0.00075036543
0.00071043879
0.00021554936
-1.1583797e-05
1.4303847e-05
0.00046990719
-4.9036605e-05
6.5423533e-05
0.00073469314
-0.0001163317
0.00016612565
0.00095932725
-0.00021478891
0.00033122002
0.0010885007
-0.00033145385
0.00054933001
0.0010950687
-0.00043167157
0.00076706693
0.0010010747
-0.00047617788
0.00091026885
0.00085796405
-0.00044658741
0.00093545822
-0.0003667241
0.00085439313
0.00071272012
0.0002413738
-1.1169052e-05
1.6924496e-05
0.0005221018
-4.6740182e-05
7.6720746e-05
0.00080795776
-0.00010977991
0.00019322903
0.0010414395
-0.00020037192
0.00038170424
0.0011638009
-0.00030609469
0.00062624192
0.0011518802
-0.00039417909
0.00086456396
0.0010365546
-0.00042984824
0.0010157759
0.00087649074
-0.00039853979
0.0010370693
-0.00032400015
0.00094523268
0.00071914862
0.00026526662
-1.0350837e-05
1.950259e-05
0.00057021471
-4.286355e-05
8.7694984e-05
0.00087517094
-9.9734371e-05
0.00021923727
0.0011164253
-0.00018014551
0.00042947438
0.0012324522
-0.00027286021
0.00069780386
0.0012041071
-0.00034803866
0.00095369504
0.0010701896
-0.00037573563
0.0011105568
0.00089537278
-0.00034506019
0.0011266649
-0.00027786281
0.0010237002
0.00072753091
0.00028635254
-9.1951805e-06
2.1960621e-05
0.00061229438
-3.7693533e-05
9.8006956e-05
0.00093333098
-8.6940735e-05
0.00024333883
0.0011805605
-0.00015557837
0.00047308525
0.0012904702
-0.00023397217
0.00076209145
0.001247859
-0.00029604912
0.0010325158
0.001098423
-0.00031683342
0.0011931648
0.00091148924
-0.0002885615
0.0012036152
-0.00023009219
0.0010900066
0.00073524306
0.00030436065
-7.7377153e-06
2.4159476e-05
0.00064800507
-3.1438673e-05
0.00010716149
0.00098232364
-7.1973502e-05
0.00026457755
0.001234144
-0.00012779702
0.00051118494
0.0013384533
-0.00019109878
0.00081773638
0.0012836238
-0.00024022287
0.0011000579
0.0011212029
-0.00025520688
0.001263263
0.00092415138
-0.0002306893
0.001268224
-0.00018209024
0.0011449386
0.00074117333
0.0003190548
-6.0164386e-06
2.6009857e-05
0.000677008
-2.4295604e-05
0.00011482878
0.0010218888
-5.5321879e-05
0.00028229119
0.0012771058
-9.7675114e-05
0.0005428092
0.0013765025
-0.00014546004
0.00086366203
0.0013114755
-0.00018194172
0.001155448
0.0011383785
-0.00019215328
0.0013203333
0.00093305994
-0.00017253467
0.0013204432
-0.00013487755
0.0011888397
0.00074492716
0.00033027786
-4.1203339e-06
2.7455783e-05
0.00069912797
-1.6576136e-05
0.00012080425
0.0010519715
-3.7577035e-05
0.00029605784
0.0013095796
-6.6040996e-05
0.00056729543
0.0014049345
-9.8021416e-05
0.00089905095
0.0013318256
-0.00012212043
0.001197891
0.0011503482
-0.00012837979
0.0013637981
0.00093865757
-0.00011463231
0.0013599308
-8.8884986e-05
0.0012216977
0.00074684034
0.00033774867
-2.1180239e-06
2.8500343e-05
0.00071365659
-8.4543515e-06
0.00012504587
0.0010714082
-1.9067912e-05
0.0003056704
0.0013301311
-3.3369272e-05
0.00058412087
0.0014224077
-4.9380503e-05
0.00092302584
0.0013437714
-6.1340713e-05
0.0012263105
0.0011568215
-6.4282307e-05
0.0013926241
0.00094122056
-5.7178866e-05
0.0013859021
-4.408923e-05
0.0012431242
0.00074744226
0.00034150398
1.6713243e-11
2.8984385e-05
0.00072097852
3.5348205e-11
0.00012705559
0.0010812392
3.8520848e-11
0.00031031668
0.0013405537
4.0724745e-11
0.00059240213
0.0014312554
-5.6596445e-11
0.00093499188
0.001349746
-3.5763546e-10
0.0012406164
0.0011599292
-7.9001881e-10
0.0014071888
0.00094229614
-8.7749772e-10
0.0013990265
-6.6224006e-10
0.0012539405
0.00074752451
0.00034150383
2.1180543e-06
2.8984381e-05
0.00072097834
8.4544065e-06
0.00012705558
0.0010812389
1.9067934e-05
0.00031031664
0.0013405533
3.3369248e-05
0.00059240204
0.0014312549
4.9380217e-05
0.00093499176
0.0013497456
6.133977e-05
0.0012406163
0.0011599292
6.4280578e-05
0.0014071887
0.00094229627
5.717699e-05
0.0013990264
4.4087709e-05
0.0012539404
0.00074752492
0.00033774861
4.1203606e-06
2.8500343e-05
0.00071365659
1.6576156e-05
0.00012504587
0.0010714078
3.7577033e-05
0.00030567038
0.0013301308
6.6040979e-05
0.00058412084
0.0014224071
9.8020928e-05
0.0009230258
0.0013437709
0.00012211914
0.0012263105
0.0011568217
0.00012837793
0.0013926241
0.00094122095
0.00011463026
0.001385902
8.8882862e-05
0.0012431241
0.00074744315
0.00033027824
6.0164582e-06
2.7455776e-05
0.00069912828
2.429551e-05
0.00012080422
0.0010519709
5.5321845e-05
0.00029605778
0.0013095792
9.7675251e-05
0.00056729532
0.0014049336
0.00014545953
0.00089905079
0.0013318251
0.00018194034
0.0011978908
0.0011503482
0.0001921515
0.0013637978
0.00093865784
0.00017253241
0.0013599306
0.0001348745
0.0012216975
0.00074684099
0.00031905538
7.7376466e-06
2.6009853e-05
0.00067700804
3.1438256e-05
0.00011482876
0.0010218877
7.1973132e-05
0.00028229116
0.0012771053
0.00012779709
0.00054280915
0.001376502
0.00019109844
0.00086366194
0.0013114753
0.00024022178
0.0011554478
0.0011383783
0.00025520518
0.0013203331
0.00093305976
0.00023068695
0.001320443
0.00018208687
0.0011888395
0.00074492695
0.0003043608
9.1951252e-06
2.4159475e-05
0.00064800439
3.7693236e-05
0.00010716148
0.00098232283
8.694056e-05
0.00026457755
0.0012341438
0.00015557886
0.00051118494
0.0013384531
0.00023397243
0.00081773635
0.0012836236
0.0002960484
0.0011000578
0.0011212024
0.00031683154
0.0012632629
0.00092415082
0.00028855939
0.0012682239
0.00023008968
0.0011449385
0.00074117255
0.0002863522
1.0350901e-05
2.1960624e-05
0.00061229366
4.28637e-05
9.8006967e-05
0.00093333074
9.9734501e-05
0.00024333885
0.00118056
0.00018014565
0.00047308529
0.0012904695
0.00027285998
0.00076209148
0.0012478582
0.00034803789
0.0010325158
0.0010984225
0.00037573399
0.0011931648
0.00091148863
0.00034505899
0.0012036152
0.00027786151
0.0010900065
0.0007352423
0.0002652669
1.1169121e-05
1.9502597e-05
0.00057021529
4.6740367e-05
8.7695007e-05
0.00087517089
0.00010977973
0.00021923732
0.0011164251
0.00020037141
0.00042947446
0.0012324512
0.00030609403
0.00069780397
0.0012041061
0.00039417851
0.00095369513
0.0010701892
0.00042984739
0.0011105569
0.00089537202
0.00039853952
0.0011266649
0.00032399945
0.0010237002
0.00072752981
0.00024137365
1.1583789e-05
1.6924497e-05
0.0005221013
4.9036518e-05
7.672075e-05
0.00080795668
0.00011633146
0.00019322904
0.0010414389
0.00021478873
0.00038170425
0.0011637995
0.00033145377
0.00062624193
0.0011518792
0.00043167208
0.00086456391
0.0010365541
0.00047617763
0.0010157758
0.00087649005
0.00044658695
0.0010370692
0.0003667241
0.00094523261
0.00071914741
0.00021554935
1.1452366e-05
1.4303847e-05
0.00046990751
4.9211245e-05
6.5423531e-05
0.00073469349
0.00011824982
0.00016612564
0.00095932712
0.00022148311
0.00033121999
0.0010885005
0.00034635891
0.00054932996
0.001095068
0.00045756339
0.00076706686
0.0010010746
0.00051190438
0.00091026874
0.00085796377
0.00048729056
0.00093545814
0.00040505472
0.00085439306
0.00071272068
0.00018801846
1.088983e-05
1.1707823e-05
0.00041355623
4.7463514e-05
5.4086602e-05
0.00065445776
0.00011548057
0.0001385819
0.00086806021
0.00021955197
0.00027914066
0.0010037577
0.00034862231
0.00046849211
0.0010310872
0.00046835158
0.00066245565
0.00096256076
0.00053292421
0.00079454667
0.00084043374
0.00051740796
0.00082157098
0.00043714624
0.00075036545
0.00071043941
0.00015960593
9.8538422e-06
9.2854838e-06
0.00035477791
4.359688e-05
4.3280292e-05
0.00056949062
0.00010762527
0.00011178869
0.0007693935
0.0002083117
0.00022731982
0.0009100149
0.00033684449
0.00038593072
0.00095940309
0.00046130154
0.00055248834
0.00092104879
0.00053501322
0.00066932909
0.00082658777
0.00053201395
0.00069506921
0.00046007718
0.00063220578
0.0007170931
0.00013116176
7.0257606e-06
8.5007954e-06
0.00029487094
3.3026554e-05
3.834629e-05
0.00048087594
8.594296e-05
9.6117602e-05
0.00066401449
0.00017630534
0.00018914188
0.00080783918
0.00030249507
0.00031139599
0.0008812569
0.00043775664
0.00043496313
0.00087943366
0.000534281
0.00051492998
0.00082373589
0.00055468292
0.00052480922
0.00049859679
0.00047323735
0.00074012561
2.9468768e-06
2.2692099e-06
4.0967758e-06
-2.2871124e-06
1.5017511e-05
6.5219939e-06
2.1635651e-05
-7.2018244e-06
4.2385667e-05
4.5035496e-06
6.2304652e-05
-8.2336507e-06
9.0679155e-05
-2.1716296e-05
0.00014058301
9.1447886e-06
0.00015991571
-9.5628517e-05
0.00026264211
6.6244685e-05
0.00023927926
-0.00022131582
0.00040792639
0.00017178242
0.00030961198
-0.00036044691
0.00052491703
0.0002994778
0.00036016145
-0.00045347249
0.00056387652
0.00039372916
-0.00046512859
0.00051485254
0.00041835151
0.00039068287
4.0260495e-06
2.5290978e-06
4.9995209e-06
2.0519409e-05
6.5191676e-06
2.678962e-05
5.735478e-05
1.5546034e-06
7.7902047e-05
0.00011965695
-3.3342775e-05
0.00017664407
0.00020189281
-0.00012178991
0.00032985651
0.00028444246
-0.00026129379
0.00050991654
0.00034374265
-0.00040349383
0.00065307561
0.0003727703
-0.00048978869
0.00070235778
-0.00048949444
0.00064943256
0.00037990935
5.584529e-06
2.8115495e-06
5.8407905e-06
2.769499e-05
6.7745671e-06
3.1720616e-05
7.5223656e-05
-4.1300604e-07
9.3020865e-05
0.00015143215
-4.2068285e-05
0.00021165797
0.0002442493
-0.00014050534
0.00039439039
0.00032645204
-0.00028646074
0.00060541975
0.00037314386
-0.0004248187
0.00076917951
0.00038234981
-0.00050170059
0.00082427682
-0.00049264226
0.00076608629
0.00036977654
7.4393496e-06
2.9636795e-06
6.7123452e-06
3.6114322e-05
6.7780072e-06
3.6744959e-05
9.5626624e-05
-2.0139536e-06
0.00010821418
0.00018623441
-4.7760765e-05
0.00024630485
0.00028839592
-0.00015028495
0.0004569481
0.00036865709
-0.00029521745
0.00069556292
0.00040323084
-0.00042458584
0.00087546175
0.00039521669
-0.000490725
0.00093249703
-0.00047618622
0.00086725858
0.000365895
9.3373196e-06
2.9950609e-06
7.5558499e-06
4.4613206e-05
6.6084753e-06
4.1614579e-05
0.0001159538
-3.0336151e-06
0.0001229084
0.0002203422
-5.0056883e-05
0.00027961175
0.00033099657
-0.00015105166
0.00051635464
0.00040923654
-0.0002884859
0.00077959202
0.00043354546
-0.00040532374
0.00097220457
0.0004121899
-0.00046076483
0.0010284649
-0.00044379995
0.00095479467
0.00037024143
1.1224296e-05
2.8927614e-06
8.3805626e-06
5.2994262e-05
6.2080898e-06
4.6325332e-05
0.00013581305
-3.6093828e-06
0.00013699466
0.00025326732
-4.9267498e-05
0.00031123104
0.00037180976
-0.00014385561
0.00057206586
0.00044870337
-0.00026866456
0.00085698002
0.00046509913
-0.00037068758
0.0010595245
0.00043381178
-0.00041596193
0.0011131493
-0.00039904482
0.0010301653
0.00038259156
1.3009019e-05
2.6451447e-06
9.1993263e-06
6.0816231e-05
5.5474363e-06
5.0860519e-05
0.00015406741
-3.7911266e-06
0.00015026923
0.00028300918
-4.5637503e-05
0.00034051376
0.00040828962
-0.00012986707
0.0006228226
0.00048427931
-0.00023835948
0.00092622099
0.00049473876
-0.0003242878
0.0011363055
0.00045662368
-0.00036051775
0.0011862861
-0.00034543584
0.0010939609
0.00039906049
1.4589476e-05
2.2720595e-06
9.9429294e-06
6.7681652e-05
4.6762817e-06
5.4940879e-05
0.00016993458
-3.5888822e-06
0.00016212261
0.00030858809
-3.9580293e-05
0.00036647401
0.00043947221
-0.00011041894
0.00066740399
0.00051483865
-0.00020000863
0.00098634041
0.00052086703
-0.00026920717
0.0012021541
0.00047789442
-0.00029754632
0.0012482252
-0.00028498622
0.0011471219
0.00041526168
1.5911412e-05
1.7954614e-06
1.0574748e-05
7.3376456e-05
3.6436867e-06
5.83966e-05
0.00018297772
-3.0360205e-06
0.00017213762
0.00032935641
-3.1514428e-05
0.00038836444
0.00046448014
-8.6632959e-05
0.00070475248
0.00053901903
-0.00015541209
0.0010363125
0.00054156257
-0.00020781701
0.0012563997
0.00049467842
-0.00022903309
0.0012988142
-0.00021870141
0.0011899919
0.00042724155
1.692776e-05
1.246983e-06
1.1076375e-05
7.7732447e-05
2.5089895e-06
6.1134294e-05
0.00019289097
-2.1864295e-06
0.00018004998
0.00034497987
-2.1907373e-05
0.00040559922
0.0004830634
-5.9625701e-05
0.00073396046
0.00055674418
-0.00010628765
0.0010750861
0.00055614889
-0.00014157573
0.0012981523
0.00050509029
-0.00015554187
0.0013374984
-0.00014785766
0.0012224207
0.00043352384
1.7637239e-05
6.2544312e-07
1.1484681e-05
8.0733271e-05
1.229156e-06
6.3229682e-05
0.00019959878
-1.230223e-06
0.00018584891
0.00035532706
-1.1332775e-05
0.00041781809
0.00049506801
-3.0473194e-05
0.00075413274
0.00056773223
-5.4007303e-05
0.0011013663
0.00056442894
-7.1728463e-05
0.0013260804
0.0005102201
-7.8595873e-05
0.0013631653
-7.4440714e-05
0.0012437425
0.00043618518
1.7960938e-05
1.9465481e-11
1.1648897e-05
8.2096874e-05
5.2406705e-11
6.4148788e-05
0.00020264447
8.5426209e-11
0.00018853908
0.00036000302
4.218092e-11
0.00042371117
0.00050042805
-1.7465816e-10
0.00076409415
0.00057252625
-5.8990083e-10
0.0011145117
0.00056783958
-9.806272e-10
0.0013401482
0.00051211785
-1.1237745e-09
0.0013761538
-9.731998e-10
0.0012545497
0.00043706918
1.7960934e-05
-6.2539716e-07
1.1648895e-05
8.2096924e-05
-1.2290448e-06
6.4148779e-05
0.00020264442
1.2303563e-06
0.00018853905
0.00036000287
1.1332753e-05
0.0004237111
0.0005004278
3.0472685e-05
0.00076409404
0.00057252605
5.4005961e-05
0.0011145116
0.00056783951
7.1726421e-05
0.0013401481
0.00051211783
7.8593577e-05
0.0013761537
7.4438718e-05
0.0012545497
0.00043706926
1.7637252e-05
-1.2469392e-06
1.148468e-05
8.0733393e-05
-2.5089027e-06
6.3229678e-05
0.00019959872
2.1865063e-06
0.0001858489
0.00035532696
2.1907272e-05
0.00041781806
0.0004950677
5.9625033e-05
0.00075413268
0.00056773197
0.00010628613
0.0011013662
0.00056442886
0.00014157366
0.0013260803
0.00051022006
0.00015553953
0.0013631652
0.00014785546
0.0012437423
0.00043618528
1.6927893e-05
-1.7954198e-06
1.1076372e-05
7.7732563e-05
-3.6436412e-06
6.1134276e-05
0.00019289073
3.0360966e-06
0.00018004993
0.00034497973
3.1514465e-05
0.00040559912
0.00048306303
8.6632386e-05
0.00073396029
0.00055674384
0.00015541063
0.0010750858
0.00055614864
0.000207815
0.001298152
0.00050509005
0.00022903066
0.0013374981
0.00021869873
0.0012224205
0.0004335237
1.5911704e-05
-2.2720352e-06
1.0574745e-05
7.3376513e-05
-4.6763169e-06
5.8396587e-05
0.00018297729
3.5889138e-06
0.00017213759
0.00032935623
3.9580503e-05
0.00038836438
0.00046447983
0.00011041866
0.00070475237
0.0005390187
0.00020000751
0.0010363124
0.00054156213
0.00026920531
0.0012563995
0.0004946779
0.0002975439
0.001298814
0.00028498333
0.0011899917
0.00042724104
1.4589632e-05
-2.6451154e-06
9.9429272e-06
6.7681392e-05
-5.5474378e-06
5.494087e-05
0.00016993411
3.7912724e-06
0.00016212259
0.00030858778
4.5637957e-05
0.00036647398
0.00043947183
0.00012986712
0.00066740392
0.00051483816
0.00023835869
0.0009863403
0.00052086638
0.00032428603
0.0012021539
0.00047789368
0.00036051562
0.001248225
0.00034543344
0.0011471216
0.00041526092
1.3008917e-05
-2.8926961e-06
9.1993255e-06
6.0815911e-05
-6.2079152e-06
5.0860517e-05
0.00015406716
3.609724e-06
0.00015026923
0.00028300873
4.9267931e-05
0.00034051376
0.00040828897
0.00014385572
0.00062282258
0.00048427851
0.00026866402
0.00092622093
0.00049473798
0.00037068614
0.0011363054
0.00045662284
0.0004159604
0.001186286
0.00039904309
0.0010939607
0.00039905967
1.1224328e-05
-2.9949692e-06
8.3805643e-06
5.299427e-05
-6.608221e-06
4.6325341e-05
0.00013581265
3.0338524e-06
0.00013699469
0.00025326675
5.0057036e-05
0.0003112311
0.00037180875
0.00015105168
0.00057206592
0.00044870225
0.00028848566
0.00085698007
0.00046509824
0.0004053229
0.0010595245
0.00043381079
0.00046076388
0.0011131492
0.00044379847
0.0010301651
0.00038259049
9.3372973e-06
-2.963618e-06
7.55585e-06
4.4613047e-05
-6.7778575e-06
4.161458e-05
0.0001159533
2.0141615e-06
0.0001229084
0.00022034173
4.7761093e-05
0.00027961175
0.00033099549
0.00015028525
0.00051635463
0.00040923543
0.00029521779
0.00077959195
0.00043354448
0.00042458543
0.00097220447
0.00041218886
0.00049072411
0.0010284648
0.00047618506
0.00095479451
0.00037024013
7.4393718e-06
-2.8114991e-06
6.7123463e-06
3.6114483e-05
-6.7744444e-06
3.6744961e-05
9.5626764e-05
4.1330992e-07
0.00010821418
0.00018623427
4.2068732e-05
0.00024630484
0.00028839556
0.00014050572
0.00045694805
0.00036865639
0.00028646101
0.00069556283
0.00040323024
0.00042481886
0.00087546162
0.0003952158
0.0005016998
0.0009324969
0.00049264166
0.00086725845
0.00036589433
5.5846084e-06
-2.529066e-06
5.8407918e-06
2.7695237e-05
-6.5190871e-06
3.1720617e-05
7.5223926e-05
-1.5544102e-06
9.3020864e-05
0.00015143217
3.3342987e-05
0.00021165795
0.00024424928
0.00012179009
0.00039439035
0.00032645209
0.0002612943
0.00060541967
0.00037314326
0.00040349493
0.0007691794
0.00038234859
0.00048978832
0.00082427674
0.00048949317
0.00076608625
0.00036977586
4.0260896e-06
-2.2691868e-06
4.9995249e-06
2.0519589e-05
-6.52193e-06
2.6789635e-05
5.7355133e-05
-4.5034551e-06
7.7902078e-05
0.00011965747
2.1716275e-05
0.00017664411
0.00020189355
9.5628444e-05
0.00032985655
0.00028444382
0.00022131621
0.00050991657
0.00034374399
0.00036044777
0.00065307565
0.00037277214
0.00045347215
0.00070235783
0.00046512742
0.0006494326
0.00037991136
2.9469161e-06
4.0967813e-06
-2.2871345e-06
1.5017696e-05
2.1635672e-05
-7.201912e-06
4.2386142e-05
6.2304701e-05
-8.2338517e-06
9.0680314e-05
0.00014058308
9.1443862e-06
0.00015991772
0.0002626422
6.6244073e-05
0.00023928165
0.00040792649
0.00017178186
0.00030961513
0.00052491712
0.00029947812
0.00036016483
0.00056387663
0.00039372923
0.00051485264
0.00041835182
0.00039068449
6.7167329e-07
2.3955933e-07
3.8828563e-06
-6.9731345e-07
3.7380543e-06
2.4577966e-07
2.0536001e-05
-2.2125184e-06
1.139049e-05
-2.5107423e-06
5.9579296e-05
-2.4163498e-06
2.6659985e-05
-1.5148038e-05
0.00013586947
4.5920654e-06
5.2932115e-05
-5.2234122e-05
0.0002570011
3.1602999e-05
9.2133547e-05
-0.00012929844
0.00040443168
9.3591709e-05
0.00014176804
-0.0002384139
0.00052625881
0.00018743756
0.00019320578
-0.0003291336
0.00056940699
0.00027216531
-0.00035813157
0.00052145224
0.0003092705
0.00023546707
8.6668994e-07
-1.6359734e-07
4.5359845e-06
5.0436141e-06
-1.6500184e-06
2.4508463e-05
1.5641015e-05
-7.4624757e-06
7.2256341e-05
3.6265704e-05
-2.571343e-05
0.00016658476
6.9309818e-05
-7.2214347e-05
0.00031679265
0.00011283618
-0.00016190277
0.00049899447
0.00015914549
-0.00028071524
0.00064906756
0.00019945901
-0.00037171976
0.00070463034
-0.00039266318
0.00065421897
0.00022920417
1.1199476e-06
-5.1032069e-07
5.0675608e-06
6.4979077e-06
-3.2667923e-06
2.7959373e-05
2.0071146e-05
-1.168641e-05
8.3671482e-05
4.597571e-05
-3.4681817e-05
0.00019472172
8.5251348e-05
-8.8755476e-05
0.00037165577
0.00013156441
-0.00018739507
0.00058459889
0.00017265394
-0.00031015867
0.00075753325
0.00020066611
-0.00039667361
0.00082121836
-0.00040878952
0.00076723322
0.00021564549
1.3912045e-06
-7.7622513e-07
5.5870451e-06
8.0762628e-06
-4.5043877e-06
3.129749e-05
2.4828954e-05
-1.4857392e-05
9.4632513e-05
5.6165703e-05
-4.1199427e-05
0.00022148578
0.00010147276
-0.00010025451
0.00042314004
0.00014976358
-0.00020347497
0.00066335193
0.00018501794
-0.00032468508
0.00085473358
0.00020118386
-0.00040330068
0.00092295811
-0.00040702329
0.00086381137
0.0002028648
1.6340401e-06
-9.1650364e-07
6.0620697e-06
9.5460905e-06
-5.1956846e-06
3.4393779e-05
2.9380576e-05
-1.6647045e-05
0.00010486354
6.604107e-05
-4.4734827e-05
0.00024648662
0.00011701093
-0.00010588382
0.00047101416
0.00016665901
-0.00020910245
0.00073557134
0.00019624438
-0.00032406605
0.00094199999
0.00020222378
-0.00039287496
0.0010120597
-0.00038976395
0.00094635566
0.00019340338
1.9181645e-06
-9.7361205e-07
6.5195098e-06
1.1187121e-05
-5.4726698e-06
3.7333372e-05
3.4331695e-05
-1.7289667e-05
0.00011449274
7.6591545e-05
-4.5619067e-05
0.00026985537
0.00013321761
-0.00010587748
0.00051543341
0.00018371081
-0.00020421431
0.00080159854
0.000207652
-0.00030863043
0.0010201474
0.00020457332
-0.0003665755
0.0010899285
-0.00035841603
0.0010165788
0.00018681185
2.1940209e-06
-9.5258725e-07
6.9842677e-06
1.276085e-05
-5.348365e-06
4.0169406e-05
3.9003691e-05
-1.677759e-05
0.00012351435
8.6314974e-05
-4.3762352e-05
0.00029134579
0.00014758061
-9.9970168e-05
0.00055564953
0.0001980523
-0.00018889429
0.00086042908
0.00021674172
-0.00027949513
0.0010884806
0.00020611975
-0.00032626751
0.0011566
-0.00031498693
0.0010752397
0.00018141186
2.4456049e-06
-8.6124811e-07
7.4059545e-06
1.4176731e-05
-4.8440072e-06
4.2705422e-05
4.3153308e-05
-1.5142965e-05
0.00013151138
9.476231e-05
-3.9188553e-05
0.00031029115
0.00015964356
-8.8302082e-05
0.00059085451
0.0002095305
-0.00016388104
0.00091144005
0.00022352225
-0.0002382577
0.0011469248
0.00020694923
-0.0002741091
0.0012126398
-0.00026194792
0.0011234541
0.00017757795
2.658171e-06
-7.0593445e-07
7.7612218e-06
1.5362742e-05
-3.9848697e-06
4.4832945e-05
4.6592505e-05
-1.2445515e-05
0.00013821043
0.00010165127
-3.2037682e-05
0.00032615478
0.00016922446
-7.1402135e-05
0.00062027928
0.00021843613
-0.0001306124
0.00095383217
0.00022855871
-0.00018701688
0.0011950363
0.00020773786
-0.00021257514
0.0012581012
-0.00020205109
0.0011618302
0.00017600289
2.8279647e-06
-5.0035817e-07
8.0428116e-06
1.6301208e-05
-2.8351941e-06
4.6511435e-05
4.9284634e-05
-8.8566976e-06
0.00014347779
0.0001069604
-2.2714417e-05
0.00033860022
0.00017643226
-5.0193994e-05
0.00064328054
0.000224926
-9.0774784e-05
0.0009867548
0.00023246326
-0.00012844843
0.0012320467
0.00020962588
-0.00014490746
0.0012926683
-0.00013743554
0.0011905689
0.00017686223
2.9590193e-06
-2.6331581e-07
8.2886083e-06
1.699728e-05
-1.486063e-06
4.7842373e-05
5.1213468e-05
-4.6245128e-06
0.00014740068
0.00011063815
-1.1805489e-05
0.00034748464
0.00018125581
-2.5914677e-05
0.00065923596
0.00022922102
-4.6501943e-05
0.0010091284
0.00023535131
-6.530035e-05
0.0012568022
0.00021146192
-7.3354367e-05
0.0013155018
-6.9510719e-05
0.0012093119
0.00017796779
3.0097557e-06
1.8950044e-11
8.3758046e-06
1.7285674e-05
5.0024607e-11
4.8386865e-05
5.2047555e-05
7.317169e-11
0.00014915282
0.00011225865
5.1249019e-13
0.0003516948
0.00018336112
-2.743545e-10
0.0006670775
0.00023103442
-7.1107447e-10
0.0010203374
0.00023657097
-1.09599e-09
0.0012693126
0.00021229126
-1.2189669e-09
0.0013270806
-1.0458361e-09
0.0012188142
0.0001785172
3.0097695e-06
2.633614e-07
8.3758034e-06
1.7285673e-05
1.4861792e-06
4.8386859e-05
5.2047503e-05
4.6246729e-06
0.0001491528
0.00011225853
1.1805486e-05
0.00035169475
0.00018336094
2.5914093e-05
0.00066707742
0.00023103422
4.6500469e-05
0.0010203373
0.00023657079
6.5298121e-05
0.0012693125
0.00021229109
7.33519e-05
0.0013270805
6.9508627e-05
0.0012188142
0.00017851703
2.9590548e-06
5.0040408e-07
8.2886084e-06
1.69973e-05
2.83531e-06
4.7842373e-05
5.121342e-05
8.8568568e-06
0.00014740067
0.000110638
2.2714408e-05
0.00034748463
0.00018125552
5.0193388e-05
0.00065923593
0.00022922064
9.0773294e-05
0.0010091284
0.00023535088
0.00012844621
0.0012568021
0.00021146145
0.00014490498
0.0013155017
0.00013743343
0.0012093117
0.0001779673
2.8279913e-06
7.0598461e-07
8.04281e-06
1.6301167e-05
3.9850046e-06
4.6511425e-05
4.9284493e-05
1.2445721e-05
0.00014347776
0.00010696012
3.2037769e-05
0.00033860016
0.00017643178
7.140166e-05
0.00064328042
0.00022492535
0.00013061106
0.00098675459
0.00023246248
0.00018701476
0.0012320464
0.00020962502
0.00021257267
0.001292668
0.00020204888
0.0011905687
0.00017686136
2.6581966e-06
8.6130881e-07
7.7612213e-06
1.5362656e-05
4.8441817e-06
4.4832942e-05
4.6592286e-05
1.5143259e-05
0.00013821042
0.00010165087
3.9188824e-05
0.00032615475
0.00016922383
8.8301889e-05
0.00062027921
0.00021843524
0.00016388002
0.00095383203
0.00022855756
0.00023825582
0.0011950361
0.00020773654
0.00027410676
0.0012581009
0.00026194568
0.0011618299
0.00017600153
2.4456181e-06
9.526618e-07
7.4059549e-06
1.4176642e-05
5.3485909e-06
4.2705424e-05
4.3153075e-05
1.6778013e-05
0.00013151138
9.4761823e-05
4.3762861e-05
0.00031029115
0.00015964277
9.9970297e-05
0.00059085449
0.0002095294
0.00018889364
0.00091143998
0.00022352083
0.00027949362
0.0011469246
0.00020694752
0.00032626549
0.0012126396
0.00031498491
0.0011234539
0.00017757612
2.1940258e-06
9.7369505e-07
6.9842688e-06
1.2760774e-05
5.4729267e-06
4.0169412e-05
3.9003429e-05
1.7290166e-05
0.00012351437
8.6314414e-05
4.5619717e-05
0.00029134582
0.00014757972
0.00010587787
0.00055564956
0.00019805107
0.00020421404
0.00086042908
0.00021674018
0.00030862938
0.0010884805
0.00020611783
0.00036657399
0.0011565999
0.0003584144
0.0010752394
0.00018140972
1.9181415e-06
9.1660171e-07
6.5195127e-06
1.1187002e-05
5.1959784e-06
3.7333387e-05
3.433139e-05
1.6647604e-05
0.00011449278
7.659103e-05
4.473561e-05
0.00026985545
0.00013321675
0.00010588445
0.00051543352
0.00018370963
0.00020910252
0.00080159864
0.0002076506
0.00032406545
0.0010201475
0.00020457149
0.00039287402
0.0010899284
0.00038976267
0.0010165786
0.00018680975
1.6340425e-06
7.7633072e-07
6.0620711e-06
9.5460634e-06
4.5047043e-06
3.4393785e-05
2.9380426e-05
1.4857998e-05
0.00010486356
6.6040737e-05
4.1200297e-05
0.00024648664
0.00011701025
0.00010025526
0.00047101417
0.00016665805
0.00020347523
0.0007355713
0.00019624327
0.00032468475
0.00094199988
0.00020222231
0.00040330019
0.0010120596
0.00040702236
0.00094635548
0.0001934016
1.39122e-06
5.1040859e-07
5.5870456e-06
8.0763138e-06
3.2670522e-06
3.129749e-05
2.482898e-05
1.1686945e-05
9.463251e-05
5.6165627e-05
3.4682616e-05
0.00022148576
0.00010147253
8.8756234e-05
0.00042313999
0.00014976315
0.00018739546
0.00066335183
0.00018501743
0.00031015862
0.00085473342
0.00020118311
0.00039667346
0.00092295793
0.00040878898
0.00086381122
0.00020286369
1.1199753e-06
1.6366046e-07
5.0675608e-06
6.4980234e-06
1.6502058e-06
2.795937e-05
2.0071376e-05
7.4628628e-06
8.367147e-05
4.5976063e-05
2.5713983e-05
0.00019472168
8.5251881e-05
7.2214837e-05
0.00037165568
0.00013156508
0.00016190307
0.00058459874
0.0001726544
0.00028071554
0.00075753308
0.00020066609
0.00037172021
0.00082121822
0.00039266294
0.00076723316
0.00021564505
8.6672478e-07
-2.3953249e-07
4.535986e-06
5.0437618e-06
-2.4571141e-07
2.4508468e-05
1.564139e-05
2.5108443e-06
7.2256347e-05
3.6266522e-05
1.5148063e-05
0.00016658476
6.9311304e-05
5.2233914e-05
0.00031679261
0.00011283834
0.00012929816
0.0004989944
0.00015914781
0.00023841402
0.0006490675
0.00019946115
0.00032913433
0.00070463034
0.00035813218
0.00065421902
0.00022920553
6.7170247e-07
3.8828594e-06
-6.9732893e-07
3.7381708e-06
2.0536013e-05
-2.2125834e-06
1.1390789e-05
5.9579319e-05
-2.4165059e-06
2.6660666e-05
0.0001358695
4.591701e-06
5.2933348e-05
0.00025700111
3.1602269e-05
9.2135468e-05
0.00040443168
9.3590666e-05
0.0001417711
0.00052625882
0.00018743666
0.00019321027
0.00056940707
0.00027216491
0.00052145235
0.00030927233
0.00023547048
-2.6737915e-07
1.7981537e-07
4.1913486e-06
-2.2092846e-07
-1.3138895e-06
8.1461645e-08
2.1897279e-05
-3.9622376e-07
-3.1266525e-06
-2.1311746e-06
6.2726836e-05
7.9641526e-07
-4.0837035e-06
-1.1027774e-05
0.00014123635
6.6179667e-06
2.3701069e-07
-3.5216629e-05
0.00026436678
2.3530253e-05
1.5989577e-05
-8.3693489e-05
0.00041324491
5.9127696e-05
4.5042789e-05
-0.00015022285
0.00053623015
0.00011119829
8.1514816e-05
-0.00021054931
0.00058007032
0.00016341392
-0.00023800783
0.00053110329
0.00019360382
0.00011626772
-3.1285266e-07
1.8074062e-07
4.8479143e-06
-1.4183978e-06
-1.6338078e-07
2.5858848e-05
-3.0508199e-06
-3.4750279e-06
7.523261e-05
-3.0617337e-06
-1.5625794e-05
0.00017119369
3.4072024e-06
-4.7117412e-05
0.00032222448
2.176236e-05
-0.0001076364
0.0005045822
5.1585264e-05
-0.0001862646
0.00065528638
8.4950014e-05
-0.00025127228
0.00071198853
-0.00027538821
0.00066152344
0.00011502596
-2.7233735e-07
1.636512e-07
5.3569876e-06
-1.1922859e-06
-4.5593831e-07
2.9171858e-05
-2.2281137e-06
-4.8851223e-06
8.6117356e-05
-6.8467615e-07
-2.0213002e-05
0.00019776542
8.6521647e-06
-5.8485233e-05
0.0003736867
2.9756545e-05
-0.0001289981
0.00058485616
5.9301737e-05
-0.00021581898
0.00075754238
8.839112e-05
-0.00028190906
0.00082276569
-0.0003006143
0.00076987428
0.00011097622
-1.6596208e-07
8.4580652e-08
5.8320727e-06
-6.3580275e-07
-9.5344165e-07
3.2264817e-05
-5.4528401e-07
-6.5916561e-06
9.6248526e-05
3.2685788e-06
-2.4848381e-05
0.00022230728
1.6206013e-05
-6.8895974e-05
0.00042061331
4.0006405e-05
-0.00014603339
0.00065658672
6.8595577e-05
-0.00023632079
0.00084664612
9.2649174e-05