/*--------------------------------*- C++ -*----------------------------------*\
| =========                 |                                                 |
| \\      /  F ield         | OpenFOAM: The Open Source CFD Toolbox           |
|  \\    /   O peration     | Version:  2406                                  |
|   \\  /    A nd           | Website:  www.openfoam.com                      |
|    \\/     M anipulation  |                                                 |
\*---------------------------------------------------------------------------*/
FoamFile
{
    version     2.0;
    format      ascii;
    arch        "LSB;label=32;scalar=64";
    class       volVectorField;
    location    "8";
    object      U;
}
// * * * * * * * * * * * * * * * * * * * * * * * * * * * * * * * * * * * * * //

dimensions      [0 1 -1 0 0 0 0];

internalField   nonuniform List<vector> 
34560
(
(0.054422879 0.00044974236 -0.012858751)
(0.17698586 0.0023674229 -0.042110775)
(0.33081827 0.0043542916 -0.076960683)
(0.51070331 0.0069939013 -0.1150738)
(0.70418135 0.0093109374 -0.15041312)
(0.89148308 0.010541102 -0.17632037)
(1.0494995 0.010608932 -0.18774866)
(1.165636 0.0096762077 -0.18499618)
(1.243808 0.0093907085 -0.17292191)
(0.06679386 0.00014934848 -0.015252665)
(0.21380806 0.0018230354 -0.04957861)
(0.39316601 0.0036615853 -0.089334856)
(0.59542087 0.0064053045 -0.13116521)
(0.80356635 0.0089440839 -0.16762539)
(0.99503237 0.010430915 -0.19119295)
(1.1471194 0.010866154 -0.19751666)
(1.2507296 0.010751229 -0.18850083)
(1.3168692 0.010916691 -0.16948612)
(0.079486393 0.00014501031 -0.017137337)
(0.25077402 0.0020307622 -0.055586593)
(0.45429449 0.0040572902 -0.099228822)
(0.67610657 0.006930142 -0.14389226)
(0.89518049 0.0093870409 -0.18115031)
(1.0875853 0.010553182 -0.20282114)
(1.2324616 0.010565114 -0.20548588)
(1.3242491 0.010381193 -0.1921264)
(1.3800732 0.01019498 -0.17010463)
(0.092625593 2.7574666e-05 -0.018951803)
(0.28822687 0.0019358076 -0.061290865)
(0.51487482 0.0040679324 -0.10839818)
(0.7540905 0.0070614835 -0.15531686)
(0.98150628 0.0094868418 -0.19286796)
(1.1728944 0.010454733 -0.21247232)
(1.3098198 0.010228915 -0.21180784)
(1.3910143 0.010036411 -0.19533015)
(1.4374241 0.0098820882 -0.17132475)
(0.10552101 1.2022969e-05 -0.020519213)
(0.32450707 0.0020361271 -0.066280422)
(0.57278278 0.0043059235 -0.11634436)
(0.82749405 0.0073669197 -0.16506721)
(1.0614835 0.0096941806 -0.20271801)
(1.2509605 0.010479055 -0.22039193)
(1.3800893 0.010114667 -0.21689117)
(1.4517341 0.0099437102 -0.19802532)
(1.4895005 0.009833152 -0.17263724)
(0.11789262 2.4639103e-06 -0.021842272)
(0.35888143 0.0020344314 -0.070548149)
(0.6269842 0.0043427745 -0.12311389)
(0.89531028 0.0073669225 -0.17329554)
(1.1344353 0.0095536352 -0.21096478)
(1.3215772 0.010203464 -0.22691406)
(1.4433829 0.0098006211 -0.2210024)
(1.5064957 0.0096506881 -0.20026286)
(1.5364158 0.0095985008 -0.17380457)
(0.12949332 -7.8163692e-06 -0.022989289)
(0.39070169 0.0019412141 -0.074242386)
(0.6765464 0.0041884164 -0.12891004)
(0.95655059 0.0070684364 -0.18024042)
(1.199656 0.0090616771 -0.21781902)
(1.3843433 0.0095898775 -0.23219857)
(1.4994687 0.0091910636 -0.22419907)
(1.5550421 0.0090458347 -0.20195104)
(1.5779457 0.0090533364 -0.17461453)
(0.1397214 -2.2270675e-05 -0.0239378)
(0.41855297 0.0017379825 -0.077323237)
(0.71963658 0.0037988661 -0.13371984)
(1.0094423 0.0063983963 -0.18595687)
(1.2557786 0.008132361 -0.22339617)
(1.4383347 0.0085451136 -0.23639006)
(1.5477852 0.0081763694 -0.22661131)
(1.5968364 0.0080503081 -0.20309552)
(1.6136131 0.0081241026 -0.17498983)
(0.14822607 -2.2224617e-05 -0.024683321)
(0.44159551 0.0014682953 -0.079775195)
(0.75513694 0.003226285 -0.13754205)
(1.0528555 0.0054079508 -0.19047934)
(1.30183 0.0068117968 -0.22775945)
(1.4827405 0.0071050067 -0.23957179)
(1.5876497 0.0067804354 -0.22830832)
(1.6312516 0.0066829159 -0.20372559)
(1.6428876 0.0068045144 -0.1749618)
(0.15480768 -1.6514022e-05 -0.025230137)
(0.45936424 0.0011077596 -0.081597673)
(0.7824226 0.0024392234 -0.14038643)
(1.0861216 0.0040732138 -0.19383745)
(1.3371308 0.005095385 -0.23095409)
(1.5168483 0.0052865852 -0.24181305)
(1.6183398 0.0050384066 -0.2293736)
(1.6576594 0.0049838881 -0.20393998)
(1.6652862 0.0051244026 -0.17467152)
(0.15950765 -3.7395687e-05 -0.025625)
(0.47187155 0.00061944138 -0.08287898)
(0.80138571 0.0014286155 -0.14234486)
(1.108977 0.002439063 -0.19610433)
(1.3612338 0.0030746193 -0.23303695)
(1.5400457 0.0032028112 -0.24318927)
(1.6391733 0.0030663992 -0.22991759)
(1.6755092 0.0030567076 -0.20389555)
(1.6803826 0.0031765687 -0.17430421)
(0.16169982 1.6480516e-06 -0.02580404)
(0.47780247 0.00026836854 -0.08348855)
(0.81050639 0.00057777164 -0.14328647)
(1.120112 0.00094136081 -0.19720065)
(1.3731099 0.0011517229 -0.23404425)
(1.5515846 0.00117173 -0.24384002)
(1.6496035 0.001097343 -0.23014318)
(1.6844577 0.0010711552 -0.2038208)
(1.6879524 0.0010967588 -0.17407334)
(0.16169981 -1.630863e-06 -0.025804036)
(0.47780247 -0.00026834661 -0.083488533)
(0.81050638 -0.00057776722 -0.14328645)
(1.120112 -0.00094137933 -0.19720062)
(1.3731099 -0.0011517965 -0.23404421)
(1.5515845 -0.0011719036 -0.24383998)
(1.6496035 -0.0010976225 -0.23014316)
(1.6844577 -0.0010714491 -0.20382081)
(1.6879524 -0.0010970016 -0.17407339)
(0.15950765 3.7412185e-05 -0.025625014)
(0.47187155 -0.00061941511 -0.082878973)
(0.80138568 -0.0014285973 -0.14234486)
(1.108977 -0.0024390721 -0.19610428)
(1.3612337 -0.003074707 -0.23303689)
(1.5400456 -0.0032030011 -0.24318918)
(1.6391732 -0.0030666788 -0.22991755)
(1.6755092 -0.003057011 -0.20389558)
(1.6803825 -0.0031768719 -0.17430433)
(0.15480768 1.652885e-05 -0.025230216)
(0.45936425 -0.0011077158 -0.081597786)
(0.7824226 -0.002439172 -0.14038654)
(1.0861217 -0.0040732137 -0.19383746)
(1.3371308 -0.0050955004 -0.23095405)
(1.5168483 -0.0052867894 -0.24181296)
(1.6183397 -0.0050386737 -0.22937354)
(1.6576593 -0.0049842062 -0.20393998)
(1.6652861 -0.0051248079 -0.17467164)
(0.14822607 2.2239852e-05 -0.02468342)
(0.44159551 -0.0014682579 -0.07977535)
(0.75513695 -0.0032262428 -0.13754212)
(1.0528556 -0.0054079857 -0.19047928)
(1.30183 -0.0068119417 -0.2277594)
(1.4827405 -0.0071052084 -0.23957172)
(1.5876496 -0.0067806874 -0.22830824)
(1.6312515 -0.006683247 -0.20372549)
(1.6428876 -0.0068049714 -0.17496181)
(0.1397214 2.22649e-05 -0.023937793)
(0.41855296 -0.001738027 -0.077323212)
(0.71963658 -0.0037988914 -0.13371969)
(1.0094424 -0.0063984509 -0.18595673)
(1.2557786 -0.0081324715 -0.22339614)
(1.4383346 -0.0085452809 -0.23638999)
(1.5477852 -0.0081766172 -0.22661118)
(1.5968364 -0.0080506295 -0.20309532)
(1.6136131 -0.0081244756 -0.17498972)
(0.12949332 7.8221224e-06 -0.022989187)
(0.3907017 -0.0019412716 -0.074242304)
(0.6765464 -0.0041884392 -0.12890989)
(0.95655062 -0.0070684449 -0.18024036)
(1.199656 -0.009061705 -0.217819)
(1.3843432 -0.0095899769 -0.23219842)
(1.4994687 -0.0091912858 -0.22419885)
(1.5550422 -0.0090460908 -0.2019508)
(1.5779457 -0.0090535822 -0.17461442)
(0.11789262 -2.4420545e-06 -0.021842282)
(0.35888141 -0.0020344154 -0.070548179)
(0.62698415 -0.0043427802 -0.12311388)
(0.89531021 -0.0073669105 -0.17329549)
(1.1344352 -0.0095536567 -0.21096468)
(1.321577 -0.010203492 -0.2269138)
(1.4433828 -0.009800749 -0.22100213)
(1.5064957 -0.0096508497 -0.20026263)
(1.5364157 -0.009598748 -0.1738044)
(0.10552101 -1.1998697e-05 -0.020519179)
(0.32450708 -0.002036119 -0.066280358)
(0.57278278 -0.0043059505 -0.11634427)
(0.82749405 -0.0073669216 -0.1650671)
(1.0614835 -0.0096941932 -0.2027179)
(1.2509604 -0.010479013 -0.22039173)
(1.3800892 -0.010114657 -0.21689091)
(1.451734 -0.0099438347 -0.198025)
(1.4895004 -0.0098335021 -0.17263683)
(0.092625597 -2.7571629e-05 -0.018951799)
(0.28822688 -0.0019358868 -0.061290993)
(0.51487483 -0.0040680289 -0.10839834)
(0.75409049 -0.0070615862 -0.15531701)
(0.98150626 -0.0094868927 -0.19286799)
(1.1728944 -0.010454698 -0.21247218)
(1.3098197 -0.010228701 -0.21180756)
(1.3910142 -0.010036541 -0.19532953)
(1.4374239 -0.0098823871 -0.17132444)
(0.0794864 -0.00014500909 -0.017137366)
(0.25077404 -0.0020308122 -0.055586732)
(0.45429452 -0.0040573288 -0.099228932)
(0.67610663 -0.0069302132 -0.14389232)
(0.89518057 -0.0093870868 -0.18115027)
(1.0875853 -0.010553213 -0.20282111)
(1.2324616 -0.010564929 -0.20548542)
(1.3242492 -0.010380961 -0.1921257)
(1.3800732 -0.010194821 -0.17010489)
(0.066793874 -0.00014935594 -0.015252665)
(0.2138081 -0.0018230955 -0.049578629)
(0.39316607 -0.0036616594 -0.089334842)
(0.59542093 -0.0064054154 -0.13116522)
(0.80356639 -0.008944187 -0.16762536)
(0.99503239 -0.010430987 -0.19119277)
(1.1471195 -0.010866202 -0.1975162)
(1.2507297 -0.010750551 -0.18850079)
(1.3168691 -0.010916082 -0.16948652)
(0.054422902 -0.00044974821 -0.012858737)
(0.17698593 -0.0023674769 -0.04211075)
(0.33081838 -0.0043543668 -0.076960644)
(0.51070347 -0.0069939851 -0.11507375)
(0.70418152 -0.0093109836 -0.15041296)
(0.89148325 -0.010541111 -0.17632013)
(1.0494996 -0.01060895 -0.18774887)
(1.165636 -0.0096758109 -0.18499636)
(1.2438079 -0.0093903556 -0.17292166)
(0.029068195 0.001669187 0.0012841668)
(0.10837341 0.0041795534 0.0023032939)
(0.22951841 0.0054054723 -0.00061299107)
(0.39971957 0.0034534682 -0.010293547)
(0.61243525 -0.0032174886 -0.027979095)
(0.84263631 -0.014361385 -0.050694934)
(1.0552006 -0.027604605 -0.071712706)
(1.2226519 -0.039531561 -0.085185996)
(1.3297956 -0.047528456 -0.089776011)
(0.033625146 0.0016330538 0.00099926829)
(0.12571519 0.0036652488 0.0010772136)
(0.26601327 0.0038192315 -0.0038393773)
(0.46020214 8.6942203e-05 -0.01675938)
(0.69507591 -0.0086631777 -0.038073018)
(0.936145 -0.021272528 -0.062996775)
(1.1444259 -0.034610671 -0.083168751)
(1.298545 -0.045400744 -0.093696897)
(1.3930392 -0.051551397 -0.094286444)
(0.037951691 0.0018933932 0.00090939473)
(0.14225132 0.0040536474 0.00044783112)
(0.30081886 0.0038384569 -0.0059925777)
(0.51742187 -0.00084278485 -0.021419747)
(0.77160672 -0.010622641 -0.045184378)
(1.0195306 -0.023515339 -0.071057057)
(1.2202337 -0.036004751 -0.08970924)
(1.3604858 -0.045484072 -0.097768503)
(1.4442279 -0.050414444 -0.095744559)
(0.042549324 0.002018873 0.00069650624)
(0.15937162 0.0041761233 -0.00046360862)
(0.33610043 0.003667254 -0.0084866639)
(0.57424406 -0.0015816144 -0.026221958)
(0.84584653 -0.011732156 -0.051815015)
(1.0984724 -0.024221199 -0.077895317)
(1.2908216 -0.035463337 -0.094799597)
(1.4172024 -0.043515574 -0.10056065)
(1.4905107 -0.047539407 -0.096637475)
(0.04703913 0.0020768008 0.00045712316)
(0.17601907 0.0042008552 -0.0013835065)
(0.3702268 0.0035130868 -0.01084392)
(0.62879845 -0.0019640113 -0.030561023)
(0.91629664 -0.011978602 -0.057436354)
(1.1726787 -0.023630961 -0.083464808)
(1.356939 -0.033468194 -0.098716942)
(1.4703759 -0.040112767 -0.10264382)
(1.5335462 -0.043309408 -0.097540406)
(0.05140367 0.0020599756 0.00018777967)
(0.19204308 0.0041158506 -0.002318755)
(0.4027736 0.0033511283 -0.013042927)
(0.68030718 -0.0020361562 -0.034365928)
(0.98203034 -0.011458762 -0.0619915)
(1.2413881 -0.021941444 -0.08766519)
(1.4184352 -0.030297127 -0.10165894)
(1.5203153 -0.035642767 -0.10424094)
(1.5740201 -0.038143691 -0.098616939)
(0.055710424 0.0019371526 -9.2829318e-05)
(0.20749932 0.0038262274 -0.0032367331)
(0.43359433 0.0030381585 -0.015070069)
(0.72829722 -0.0019907793 -0.037685533)
(1.0423727 -0.010460816 -0.065733989)
(1.3039516 -0.019547346 -0.090922562)
(1.4747174 -0.026419187 -0.10393953)
(1.5666337 -0.03061895 -0.10555616)
(1.6119411 -0.03258722 -0.099811379)
(0.059589106 0.0017243165 -0.00035946161)
(0.22134786 0.0033764138 -0.004068777)
(0.46106259 0.0026307004 -0.016816174)
(0.7707938 -0.0018108503 -0.040400038)
(1.0955235 -0.0090701269 -0.068664996)
(1.3589336 -0.01664496 -0.093322206)
(1.5245378 -0.022125414 -0.10553434)
(1.6083882 -0.025376744 -0.10652987)
(1.6466336 -0.026946215 -0.10075932)
(0.062858652 0.00142811 -0.00059643888)
(0.23301667 0.002776454 -0.0047810042)
(0.48419253 0.0021262947 -0.018243568)
(0.80653397 -0.0015415317 -0.042516388)
(1.140102 -0.0073980649 -0.070826879)
(1.405061 -0.013389528 -0.094953884)
(1.5665536 -0.017613129 -0.10636181)
(1.644293 -0.02006755 -0.10702686)
(1.6768378 -0.021255417 -0.10101426)
(0.065432604 0.0010709409 -0.00078757832)
(0.24221783 0.002072324 -0.0053385023)
(0.50242832 0.0015658472 -0.019316206)
(0.83465807 -0.0011787813 -0.044031392)
(1.175029 -0.0054855142 -0.072276409)
(1.4411417 -0.0098362825 -0.095901885)
(1.5995382 -0.012874649 -0.10664979)
(1.6728232 -0.014619442 -0.10690376)
(1.7009629 -0.015417371 -0.10032814)
(0.06750402 0.00066646009 -0.00092381385)
(0.24928986 0.0012868768 -0.005729395)
(0.51594217 0.00096404194 -0.020046541)
(0.85487819 -0.00073515596 -0.045007266)
(1.1995446 -0.0033693822 -0.073139086)
(1.466123 -0.006014956 -0.096342036)
(1.6222533 -0.0078635774 -0.10654816)
(1.6925261 -0.008913896 -0.10634323)
(1.7176568 -0.0093522943 -0.099392055)
(0.068353023 0.00020873737 -0.000990229)
(0.25239762 0.00038643314 -0.0059149744)
(0.52218699 0.00025536305 -0.020382848)
(0.86457844 -0.0003294282 -0.045445416)
(1.2115959 -0.0012147872 -0.073502864)
(1.4785806 -0.0020899776 -0.096478607)
(1.6336794 -0.0026902142 -0.10639943)
(1.7024913 -0.0030184526 -0.10590965)
(1.7261242 -0.0031393301 -0.098790185)
(0.068353022 -0.00020871321 -0.00099022877)
(0.25239762 -0.00038638915 -0.0059149841)
(0.52218698 -0.0002553188 -0.02038286)
(0.86457841 0.00032942494 -0.045445416)
(1.2115958 0.001214688 -0.073502852)
(1.4785805 0.0020897536 -0.096478586)
(1.6336794 0.0026899004 -0.10639941)
(1.7024913 0.0030181086 -0.10590964)
(1.7261242 0.0031390165 -0.098790189)
(0.067504015 -0.00066642822 -0.00092381858)
(0.24928985 -0.0012868182 -0.0057294198)
(0.51594213 -0.00096399054 -0.020046571)
(0.85487813 0.000735143 -0.045007275)
(1.1995445 0.0033692647 -0.073139073)
(1.466123 0.0060147218 -0.096341993)
(1.6222532 0.0078632695 -0.10654812)
(1.692526 0.0089135559 -0.10634319)
(1.7176566 0.0093519664 -0.09939206)
(0.065432598 -0.0010709086 -0.00078760341)
(0.24221781 -0.0020722607 -0.0053385682)
(0.50242828 -0.0015657851 -0.019316269)
(0.83465803 0.0011787722 -0.044031431)
(1.1750289 0.0054853872 -0.072276425)
(1.4411416 0.0098360449 -0.095901843)
(1.5995381 0.012874352 -0.10664972)
(1.672823 0.014619104 -0.10690368)
(1.7009627 0.015417006 -0.10032812)
(0.062858646 -0.0014280829 -0.00059648375)
(0.23301665 -0.0027764028 -0.0047811096)
(0.4841925 -0.0021262316 -0.018243635)
(0.80653395 0.0015415359 -0.042516423)
(1.140102 0.0073979523 -0.070826896)
(1.4050609 0.013389313 -0.094953838)
(1.5665534 0.017612848 -0.10636172)
(1.6442928 0.02006722 -0.10702671)
(1.6768376 0.021255026 -0.1010142)
(0.059589096 -0.0017242917 -0.00035948435)
(0.22134782 -0.0033763806 -0.0040688409)
(0.46106254 -0.0026306456 -0.016816178)
(0.77079375 0.0018108713 -0.040400045)
(1.0955234 0.0090700584 -0.068664996)
(1.3589334 0.016644799 -0.093322137)
(1.5245377 0.022125164 -0.1055342)
(1.608388 0.025376452 -0.10652963)
(1.6466334 0.026945871 -0.10075919)
(0.055710418 -0.0019371191 -9.2817246e-05)
(0.2074993 -0.0038261839 -0.0032367563)
(0.43359429 -0.0030380814 -0.015070063)
(0.72829716 0.0019908401 -0.037685559)
(1.0423725 0.010460822 -0.065733983)
(1.3039514 0.019547262 -0.090922447)
(1.4747173 0.026418992 -0.1039393)
(1.5666336 0.030618729 -0.10555585)
(1.6119409 0.032586962 -0.099811188)
(0.051403668 -0.0020599316 0.00018776956)
(0.19204307 -0.0041157861 -0.0023188253)
(0.40277356 -0.0033510351 -0.013042973)
(0.68030712 0.0020362491 -0.034365959)
(0.98203022 0.011458818 -0.061991466)
(1.2413879 0.021941436 -0.087665001)
(1.4184351 0.030297027 -0.10165866)
(1.5203152 0.03564263 -0.10424057)
(1.5740199 0.038143486 -0.098616641)
(0.047039131 -0.002076749 0.00045710365)
(0.17601907 -0.0042007811 -0.0013835983)
(0.3702268 -0.0035129928 -0.010844006)
(0.62879843 0.0019641039 -0.030561104)
(0.91629661 0.011978668 -0.057436342)
(1.1726786 0.023631037 -0.083464622)
(1.3569388 0.033468207 -0.098716634)
(1.4703758 0.040112697 -0.10264336)
(1.5335461 0.043309241 -0.097539972)
(0.042549339 -0.0020188361 0.00069647552)
(0.15937167 -0.0041760936 -0.00046375594)
(0.3361005 -0.0036672035 -0.0084868438)
(0.57424413 0.0015816706 -0.026222122)
(0.84584657 0.011732221 -0.051815054)
(1.0984724 0.024221328 -0.077895161)
(1.2908215 0.03546353 -0.094799254)
(1.4172024 0.043515663 -0.10056012)
(1.4905106 0.047539351 -0.096637076)
(0.03795171 -0.0018933695 0.00090936633)
(0.14225137 -0.0040536432 0.00044770703)
(0.30081895 -0.0038384236 -0.0059927114)
(0.51742198 0.00084283115 -0.021419858)
(0.77160684 0.010622725 -0.045184394)
(1.0195307 0.023515488 -0.071056976)
(1.2202337 0.036005104 -0.089708976)
(1.360486 0.045484484 -0.097767985)
(1.444228 0.050414507 -0.095744119)
(0.033625176 -0.0016330382 0.00099925394)
(0.12571527 -0.0036652526 0.0010771548)
(0.26601341 -0.0038192278 -0.0038394411)
(0.46020232 -8.6940346e-05 -0.016759449)
(0.69507608 0.0086632003 -0.038073058)
(0.93614515 0.021272613 -0.062996781)
(1.1444261 0.034610916 -0.083168537)
(1.2985452 0.045401321 -0.093696188)
(1.3930394 0.051551719 -0.094285846)
(0.029068232 -0.0016691856 0.0012841684)
(0.10837351 -0.0041795663 0.0023032925)
(0.22951859 -0.0054055003 -0.00061299634)
(0.3997198 -0.0034535204 -0.010293553)
(0.61243548 0.0032174363 -0.027979074)
(0.84263656 0.014361423 -0.050694826)
(1.0552008 0.027604836 -0.07171247)
(1.2226522 0.03953209 -0.085185215)
(1.3297959 0.04752874 -0.089775236)
(0.020124082 0.00037363966 0.000283893)
(0.079872149 0.00088428618 0.00043094156)
(0.17895561 0.0009206888 -0.0005861471)
(0.3296511 -0.00046337919 -0.0039558735)
(0.53436611 -0.0048785813 -0.011045144)
(0.77467764 -0.013798278 -0.022400085)
(1.0094904 -0.026622972 -0.036365576)
(1.1976368 -0.039360586 -0.047839927)
(1.3175947 -0.048386742 -0.053650016)
(0.021424152 2.3389345e-05 -5.1939673e-05)
(0.087027823 -0.00022249265 -0.0006258124)
(0.1978156 -0.0010772969 -0.0025891581)
(0.36668884 -0.0034852529 -0.0072177132)
(0.59283812 -0.0091258335 -0.015892)
(0.84986005 -0.019351386 -0.028833187)
(1.0887274 -0.032910906 -0.043366795)
(1.2683008 -0.045179185 -0.053839148)
(1.3774785 -0.052681414 -0.057741183)
(0.022202824 -0.00018177229 -0.00021237694)
(0.092414574 -0.00090486412 -0.0011745317)
(0.21321584 -0.0023421472 -0.0037342618)
(0.39799098 -0.0054025585 -0.0092222583)
(0.64259265 -0.011716673 -0.018958889)
(0.91269199 -0.022378417 -0.032786986)
(1.1524351 -0.035626749 -0.047192636)
(1.3231084 -0.046801982 -0.05637013)
(1.4236938 -0.052977848 -0.058409187)
(0.023106941 -0.00038248236 -0.0003331888)
(0.097954426 -0.0015423261 -0.0015849936)
(0.22839949 -0.0034654869 -0.0046248877)
(0.42810473 -0.0070101672 -0.010831922)
(0.68953882 -0.013741811 -0.021423585)
(0.97085544 -0.024501555 -0.035851671)
(1.2100558 -0.037052291 -0.049754121)
(1.371858 -0.046944888 -0.057400993)
(1.4642968 -0.051922305 -0.057746922)
(0.023985972 -0.00050133689 -0.00037700253)
(0.10327071 -0.0019405853 -0.0017615886)
(0.24289559 -0.0041867575 -0.005115784)
(0.45676992 -0.0080433309 -0.011881386)
(0.73411105 -0.014977172 -0.023199909)
(1.025705 -0.025582631 -0.03795135)
(1.263958 -0.03720242 -0.051143096)
(1.4172585 -0.045735391 -0.057291518)
(1.5016557 -0.04956177 -0.056223622)
(0.024947125 -0.00055597304 -0.00037369128)
(0.10862704 -0.0021335725 -0.0017878135)
(0.25705406 -0.0045382375 -0.0053414993)
(0.48437352 -0.0085153812 -0.012528152)
(0.77688129 -0.015392822 -0.024446439)
(1.0777992 -0.025486872 -0.039274352)
(1.3148381 -0.035959865 -0.051433034)
(1.4602172 -0.043112766 -0.056194771)
(1.5367858 -0.045916452 -0.053949705)
(0.026116666 -0.00056977726 -0.00035100954)
(0.11430452 -0.0021801292 -0.0017420451)
(0.27116401 -0.0046037793 -0.005411149)
(0.51101775 -0.0085121063 -0.012883165)
(0.81752947 -0.015043577 -0.025177536)
(1.1266897 -0.024250778 -0.039804242)
(1.362374 -0.033369034 -0.050766155)
(1.5005335 -0.039159826 -0.054255821)
(1.5696614 -0.041076228 -0.051058763)
(0.027260485 -0.00053830787 -0.00031376304)
(0.1196405 -0.0020656567 -0.0016392811)
(0.28417343 -0.0043562689 -0.0053420563)
(0.53539993 -0.0079861625 -0.012978569)
(0.85445796 -0.013869368 -0.025405762)
(1.1709363 -0.021853421 -0.039651557)
(1.4053959 -0.029445493 -0.049416757)
(1.5372132 -0.033946041 -0.051757546)
(1.5995631 -0.035134403 -0.047909736)
(0.028274366 -0.00046726279 -0.00027100504)
(0.12428851 -0.0018007549 -0.001507981)
(0.29543275 -0.0038013832 -0.0051831509)
(0.55653252 -0.0069315328 -0.012879025)
(0.88631714 -0.011871101 -0.025268943)
(1.2090539 -0.018351139 -0.039038509)
(1.4425764 -0.024274572 -0.047830262)
(1.5690055 -0.027591305 -0.049122121)
(1.6255222 -0.028264153 -0.045031847)
(0.02911466 -0.00036022821 -0.00022978598)
(0.12808102 -0.001396249 -0.0013744119)
(0.30454253 -0.0029559522 -0.0049894766)
(0.57357517 -0.0053751903 -0.012672863)
(0.91189656 -0.0091120405 -0.024943462)
(1.2395454 -0.013876091 -0.03825161)
(1.4722909 -0.01807503 -0.046236052)
(1.5945328 -0.020318036 -0.046884419)
(1.6464477 -0.020673388 -0.04296544)
(0.029931293 -0.0002285348 -0.00019930428)
(0.13131851 -0.00088751035 -0.0012730444)
(0.31171748 -0.0018820143 -0.0048332385)
(0.58630919 -0.003414202 -0.012482539)
(0.93035693 -0.005741809 -0.024623193)
(1.2610831 -0.0086447614 -0.037565262)
(1.4930581 -0.011133927 -0.045006744)
(1.6123749 -0.012424852 -0.045359141)
(1.6610804 -0.012602213 -0.041567312)
(0.030197179 -8.1269007e-05 -0.00018307705)
(0.13258247 -0.00031245008 -0.0012171377)
(0.31483618 -0.00065522977 -0.0047397043)
(0.59225552 -0.0011775785 -0.012357371)
(0.93935012 -0.0019659249 -0.024416944)
(1.2718128 -0.0029408229 -0.037164049)
(1.5035221 -0.0037651617 -0.044329485)
(1.6214449 -0.0041846314 -0.044568468)
(1.6685461 -0.0042362181 -0.04082832)
(0.030197178 8.1294436e-05 -0.00018307888)
(0.13258246 0.00031249597 -0.0012171488)
(0.31483617 0.00065527484 -0.004739716)
(0.59225551 0.0011775709 -0.012357378)
(0.93935009 0.001965806 -0.02441694)
(1.2718128 0.0029405777 -0.037164032)
(1.503522 0.0037648287 -0.044329458)
(1.6214448 0.0041842729 -0.044568432)
(1.668546 0.0042358941 -0.040828288)
(0.02993129 0.00022856413 -0.00019930843)
(0.1313185 0.00088756491 -0.0012730689)
(0.31171745 0.0018820684 -0.0048332629)
(0.58630914 0.0034141985 -0.012482554)
(0.93035685 0.0057416904 -0.024623183)
(1.261083 0.0086445181 -0.037565213)
(1.493058 0.0111336 -0.045006663)
(1.6123747 0.012424501 -0.045359029)
(1.6610802 0.012601896 -0.041567211)
(0.029114656 0.0003602604 -0.00022979289)
(0.12808101 0.0013963109 -0.0013744558)
(0.3045425 0.0029560207 -0.0049895137)
(0.57357513 0.0053752034 -0.012672893)
(0.91189648 0.0091119391 -0.024943455)
(1.2395453 0.013875866 -0.038251539)
(1.4722907 0.018074723 -0.046235915)
(1.5945325 0.020317702 -0.04688422)
(1.6464474 0.020673081 -0.042965257)
(0.028274362 0.00046729806 -0.00027101632)
(0.1242885 0.0018008203 -0.0015080479)
(0.29543273 0.0038014679 -0.0051832054)
(0.55653248 0.006931578 -0.012879075)
(0.88631707 0.011871042 -0.025268938)
(1.2090537 0.018350958 -0.039038411)
(1.4425761 0.024274303 -0.047830063)
(1.5690052 0.02759101 -0.049121817)
(1.6255219 0.028263871 -0.045031565)
(0.027260481 0.00053834664 -0.00031377728)
(0.11964049 0.0020657272 -0.0016393597)
(0.28417341 0.0043563724 -0.0053421309)
(0.53539989 0.0079862465 -0.012978639)
(0.85445788 0.013869364 -0.025405753)
(1.1709361 0.021853306 -0.039651429)
(1.4053957 0.02944529 -0.049416495)
(1.5372128 0.033945818 -0.051757139)
(1.5995627 0.035134183 -0.047909355)
(0.026116662 0.00056982311 -0.00035103184)
(0.11430451 0.0021802148 -0.0017421384)
(0.27116398 0.004603909 -0.0054112486)
(0.51101771 0.0085122291 -0.012883252)
(0.81752938 0.015043633 -0.025177527)
(1.1266895 0.024250739 -0.039804093)
(1.3623738 0.033368917 -0.050765845)
(1.5005332 0.039159708 -0.054255333)
(1.569661 0.041076096 -0.051058307)
(0.024947123 0.00055602748 -0.00037371211)
(0.10862703 0.0021336698 -0.0017879103)
(0.25705404 0.0045383863 -0.0053416078)
(0.48437349 0.0085155321 -0.012528255)
(0.7768812 0.015392925 -0.024446447)
(1.077799 0.025486898 -0.039274199)
(1.3148378 0.035959835 -0.051432704)
(1.460217 0.043112753 -0.056194231)
(1.5367855 0.045916403 -0.053949211)
(0.023985972 0.00050139958 -0.00037703587)
(0.10327071 0.0019406913 -0.0017617217)
(0.24289559 0.0041869218 -0.0051159412)
(0.45676991 0.0080435042 -0.011881544)
(0.73411101 0.014977306 -0.023199958)
(1.0257049 0.025582713 -0.037951216)
(1.2639578 0.03720246 -0.051142772)
(1.4172582 0.045735442 -0.057290932)
(1.5016555 0.049561775 -0.056223093)
(0.023106945 0.00038254586 -0.00033322647)
(0.097954439 0.0015424295 -0.0015851332)
(0.22839951 0.0034656467 -0.0046250607)
(0.42810475 0.0070103412 -0.010832098)
(0.68953883 0.013741959 -0.021423655)
(0.97085539 0.024501679 -0.035851563)
(1.2100557 0.037052386 -0.049753786)
(1.3718578 0.046944953 -0.057400341)
(1.4642966 0.051922339 -0.057746338)
(0.022202831 0.00018182061 -0.00021240874)
(0.092414594 0.0009049324 -0.0011746517)
(0.21321588 0.002342258 -0.0037344178)
(0.39799102 0.0054026804 -0.0092224278)
(0.64259268 0.011716789 -0.018958974)
(0.91269198 0.022378552 -0.032786891)
(1.152435 0.035626921 -0.047192259)
(1.3231083 0.046802116 -0.056369404)
(1.4236937 0.052977885 -0.058408516)
(0.021424165 -2.33608e-05 -5.1961769e-05)
(0.08702786 0.0002225218 -0.00062589102)
(0.19781566 0.00107734 -0.0025892572)
(0.36668891 0.0034852829 -0.0072178111)
(0.59283817 0.0091258395 -0.015892025)
(0.84986007 0.019351418 -0.028833044)
(1.0887275 0.032911056 -0.043366332)
(1.2683009 0.045179493 -0.053838321)
(1.3774786 0.052681654 -0.057740553)
(0.020124102 -0.00037363669 0.00028389182)
(0.079872204 -0.00088429026 0.00043093763)
(0.1789557 -0.00092070349 -0.0005861475)
(0.32965119 0.00046333687 -0.0039558441)
(0.53436617 0.0048785023 -0.011045037)
(0.77467769 0.013798218 -0.02239982)
(1.0094904 0.026623017 -0.036365058)
(1.1976369 0.039360834 -0.047839034)
(1.317595 0.048386971 -0.053649628)
(0.024765745 0.00014224442 0.00014946798)
(0.094106467 0.00011431217 0.00023866705)
(0.20327183 -0.00061725862 -5.7494959e-05)
(0.36204826 -0.0026989613 -0.0011916919)
(0.57035215 -0.0069051716 -0.003921147)
(0.81012753 -0.013711768 -0.0090126508)
(1.0441245 -0.022346241 -0.015611171)
(1.2341953 -0.031129356 -0.022082246)
(1.3554288 -0.038178061 -0.026700829)
(0.026275326 9.2992035e-05 9.3091154e-05)
(0.10152899 -0.00013185625 4.3063868e-05)
(0.22165811 -0.0012611344 -0.00049204476)
(0.39647171 -0.0040683489 -0.0020728508)
(0.62268023 -0.0094242239 -0.0055991561)
(0.87566306 -0.01766687 -0.011817107)
(1.1115883 -0.027421093 -0.01941134)
(1.2925416 -0.036299462 -0.026072575)
(1.403721 -0.042467061 -0.030195461)
(0.027184613 0.00011332951 9.2929724e-05)
(0.1068699 -0.0001714342 9.718627e-06)
(0.23588936 -0.0015396849 -0.00065002277)
(0.42396472 -0.0048580694 -0.002534969)
(0.66475203 -0.01100608 -0.0066507581)
(0.92743909 -0.020126035 -0.013724633)
(1.1626839 -0.030296545 -0.021952508)
(1.3344838 -0.038762083 -0.028621142)
(1.4376952 -0.044031456 -0.032119781)
(0.02816312 8.2197747e-05 5.4956979e-05)
(0.11214176 -0.00033047857 -0.000118751)
(0.24942987 -0.0019516372 -0.00094308589)
(0.44950844 -0.0057050977 -0.003136404)
(0.70313316 -0.012450702 -0.0078139705)
(0.97381811 -0.022062182 -0.015520545)
(1.207735 -0.032174976 -0.024018948)
(1.3711426 -0.039973445 -0.030426071)
(1.4670704 -0.044332307 -0.033152865)
(0.029048026 1.6361201e-05 5.0566607e-06)
(0.11697049 -0.00057107217 -0.00027252464)
(0.2618906 -0.0024547156 -0.0012559209)
(0.47308211 -0.006587622 -0.0037215799)
(0.73869718 -0.013793714 -0.0089243969)
(1.0167483 -0.023481689 -0.016853889)
(1.2495708 -0.033158442 -0.025286667)
(1.4054698 -0.040081429 -0.031165442)
(1.4942985 -0.043417424 -0.032972013)
(0.029959289 -9.4493257e-05 -5.1920178e-05)
(0.12167075 -0.00091385445 -0.00042754344)
(0.27373244 -0.0030637242 -0.0015168066)
(0.49525585 -0.0074710166 -0.0041395645)
(0.77199634 -0.014740793 -0.0094104595)
(1.0570102 -0.024096427 -0.017239145)
(1.289023 -0.032995186 -0.025278686)
(1.4381355 -0.038835362 -0.030379712)
(1.5199694 -0.041174336 -0.031332505)
(0.031033618 -0.0002234436 -9.4058883e-05)
(0.12656993 -0.001278666 -0.0005181619)
(0.28537466 -0.0036308161 -0.0016042427)
(0.51641278 -0.0081075092 -0.0041596785)
(0.80307667 -0.015100505 -0.0091959031)
(1.0944333 -0.023739013 -0.016654368)
(1.3258059 -0.031554662 -0.024047079)
(1.468872 -0.036231164 -0.028333358)
(1.5439844 -0.037649818 -0.028609733)
(0.032037282 -0.00032535634 -0.00010658917)
(0.13102826 -0.0015352797 -0.00050785934)
(0.29583225 -0.0039457872 -0.0014834406)
(0.53530177 -0.0082094974 -0.0037626081)
(0.83080591 -0.014584016 -0.008375953)
(1.1279498 -0.022160691 -0.015281166)
(1.3589721 -0.028673209 -0.021926632)
(1.4968361 -0.03217356 -0.025460388)
(1.5657721 -0.032824796 -0.025317672)
(0.032878478 -0.00036459903 -8.9761818e-05)
(0.1347501 -0.0015717153 -0.0004015788)
(0.30456458 -0.0038085047 -0.0011646836)
(0.55106848 -0.0075717176 -0.003065229)
(0.85421931 -0.012991938 -0.0071618957)
(1.156475 -0.019209438 -0.013432091)
(1.3874004 -0.024279493 -0.019355656)
(1.5209677 -0.026692665 -0.022294624)
(1.5845373 -0.026821728 -0.02204382)
(0.033545458 -0.00033018001 -5.5532267e-05)
(0.13768847 -0.0013594484 -0.00024782533)
(0.31144196 -0.0031796218 -0.00077073429)
(0.56347508 -0.0061402888 -0.0022775634)
(0.87269652 -0.010286811 -0.0058562542)
(1.1790474 -0.014902678 -0.011522877)
(1.4099497 -0.018484111 -0.016826227)
(1.5401551 -0.019989454 -0.019396369)
(1.5994167 -0.019863882 -0.019301272)
(0.0342216 -0.00023091512 -2.057973e-05)
(0.1402567 -0.00092478055 -0.00010281747)
(0.31690947 -0.0021170164 -0.00042383884)
(0.57273735 -0.0040128529 -0.0016112332)
(0.88597163 -0.0066168628 -0.0047775835)
(1.1949118 -0.0094519636 -0.0099770474)
(1.4256088 -0.011567587 -0.014846313)
(1.5534002 -0.012370347 -0.017249809)
(1.6096526 -0.01220864 -0.017349572)
(0.034409262 -8.303721e-05 -2.2425478e-09)
(0.14116654 -0.00032869317 -1.9218162e-05)
(0.31914126 -0.00074547199 -0.00022556616)
(0.57688361 -0.0014009927 -0.0012326084)