/*--------------------------------*- C++ -*----------------------------------*\
  =========                 |
  \\      /  F ield         | OpenFOAM: The Open Source CFD Toolbox
   \\    /   O peration     | Website:  https://openfoam.org
    \\  /    A nd           | Version:  10
     \\/     M anipulation  |
\*---------------------------------------------------------------------------*/
FoamFile
{
    format      ascii;
    class       volScalarField;
    location    "0.1";
    object      T;
}
// * * * * * * * * * * * * * * * * * * * * * * * * * * * * * * * * * * * * * //

dimensions      [0 0 0 1 0 0 0];

internalField   nonuniform List<scalar> 
100
(
1
1
1
1
1
0.965752
0.868432
0.744045
0.611671
0.485321
0.37346
0.279844
0.204875
0.146946
0.103496
0.0717173
0.0489739
0.0330029
0.0219738
0.0144703
0.00943318
0.00609246
0.00390108
0.00247801
0.00156239
0.000978265
0.000608553
0.000376261
0.000231307
0.000141429
8.60336e-05
5.20835e-05
3.13866e-05
1.88322e-05
1.12528e-05
6.69756e-06
3.97139e-06
2.34646e-06
1.38166e-06
8.10897e-07
4.74428e-07
2.76739e-07
1.6096e-07
9.33601e-08
5.40069e-08
3.11619e-08
1.7936e-08
1.0299e-08
5.90021e-09
3.3727e-09
1.92379e-09
1.09507e-09
6.22092e-10
3.52718e-10
1.99612e-10
1.1276e-10
6.35858e-11
3.5795e-11
2.01171e-11
1.12878e-11
6.32373e-12
3.53735e-12
1.97579e-12
1.10199e-12
6.13776e-13
3.41389e-13
1.89633e-13
1.052e-13
5.82872e-14
3.22549e-14
1.78278e-14
9.84225e-15
5.42744e-15
2.98959e-15
1.64497e-15
9.04152e-16
4.96449e-16
2.72313e-16
1.49221e-16
8.16904e-17
4.46787e-17
2.44133e-17
1.33278e-17
7.26948e-18
3.9616e-18
2.15708e-18
1.17355e-18
6.37937e-19
3.46503e-19
1.88059e-19
1.01988e-19
5.52676e-20
2.99276e-20
1.61941e-20
8.75653e-21
4.73154e-21
2.5549e-21
1.37863e-21
7.43818e-22
3.85479e-22
)
;

boundaryField
{
    top
    {
        type            zeroGradient;
    }
    bottom
    {
        type            zeroGradient;
    }
    in
    {
        type            fixedValue;
        value           uniform 1;
    }
    out
    {
        type            zeroGradient;
    }
    frontAndBack
    {
        type            empty;
    }
}


// ************************************************************************* //
