/*--------------------------------*- C++ -*----------------------------------*\
  =========                 |
  \\      /  F ield         | OpenFOAM: The Open Source CFD Toolbox
   \\    /   O peration     | Website:  https://openfoam.org
    \\  /    A nd           | Version:  10
     \\/     M anipulation  |
\*---------------------------------------------------------------------------*/
FoamFile
{
    format      ascii;
    class       volScalarField;
    location    "11.5";
    object      ddt0(T);
}
// * * * * * * * * * * * * * * * * * * * * * * * * * * * * * * * * * * * * * //

dimensions      [0 0 -1 1 0 0 0];

internalField   nonuniform List<scalar> 
10000
(
3718.49
1395.73
1488.81
1518.16
1520.94
1521.22
1521.37
1521.44
1521.47
1521.49
1521.5
1521.51
1521.52
1521.52
1521.53
1521.54
1521.54
1521.55
1521.56
1521.56
1521.57
1521.57
1521.58
1521.58
1521.59
1521.59
1521.6
1521.6
1521.6
1521.61
1521.61
1521.61
1521.62
1521.62
1521.62
1521.63
1521.63
1521.63
1521.63
1521.63
1521.63
1521.64
1521.64
1521.64
1521.64
1521.64
1521.64
1521.64
1521.64
1521.64
1521.64
1521.64
1521.64
1521.64
1521.64
1521.64
1521.64
1521.64
1521.64
1521.64
1521.64
1521.63
1521.63
1521.63
1521.63
1521.63
1521.63
1521.63
1521.63
1521.63
1521.63
1521.62
1521.62
1521.62
1521.62
1521.62
1521.62
1521.62
1521.62
1521.62
1521.61
1521.61
1521.61
1521.61
1521.61
1521.61
1521.61
1521.61
1521.61
1521.61
1521.61
1521.61
1521.61
1521.6
1521.6
1521.55
1520.98
1515.81
1486.85
1630.08
1651.14
-677.19
-408.361
-350.226
-346.546
-346.782
-346.735
-346.647
-346.595
-346.563
-346.538
-346.515
-346.494
-346.473
-346.453
-346.433
-346.414
-346.395
-346.377
-346.36
-346.343
-346.327
-346.312
-346.297
-346.282
-346.269
-346.256
-346.244
-346.232
-346.221
-346.21
-346.201
-346.191
-346.183
-346.175
-346.167
-346.16
-346.154
-346.148
-346.143
-346.139
-346.135
-346.131
-346.128
-346.126
-346.123
-346.122
-346.121
-346.12
-346.119
-346.119
-346.12
-346.12
-346.121
-346.123
-346.124
-346.126
-346.128
-346.13
-346.133
-346.135
-346.138
-346.141
-346.144
-346.147
-346.15
-346.153
-346.157
-346.16
-346.163
-346.167
-346.17
-346.174
-346.177
-346.18
-346.183
-346.187
-346.19
-346.193
-346.196
-346.199
-346.202
-346.204
-346.207
-346.21
-346.212
-346.214
-346.216
-346.218
-346.22
-346.222
-346.224
-346.225
-346.225
-346.217
-346.198
-346.452
-350.02
-371.14
-336.763
1713.06
-449.504
-128.894
-63.5095
-59.6341
-59.9885
-59.9455
-59.8366
-59.7655
-59.7175
-59.6778
-59.6409
-59.6053
-59.5706
-59.5367
-59.5037
-59.4715
-59.4404
-59.4102
-59.3811
-59.353
-59.326
-59.3
-59.2751
-59.2513
-59.2285
-59.2068
-59.1861
-59.1665
-59.1479
-59.1303
-59.1138
-59.0983
-59.0838
-59.0704
-59.0579
-59.0464
-59.0359
-59.0264
-59.0177
-59.01
-59.0032
-58.9973
-58.9922
-58.9879
-58.9843
-58.9816
-58.9795
-58.9782
-58.9775
-58.9774
-58.9779
-58.979
-58.9805
-58.9826
-58.9851
-58.9881
-58.9914
-58.9951
-58.9991
-59.0034
-59.0079
-59.0127
-59.0177
-59.0228
-59.0281
-59.0336
-59.0391
-59.0446
-59.0502
-59.0559
-59.0615
-59.0671
-59.0727
-59.0783
-59.0837
-59.0891
-59.0943
-59.0995
-59.1045
-59.1093
-59.114
-59.1185
-59.1229
-59.127
-59.131
-59.1347
-59.1382
-59.1415
-59.1446
-59.1475
-59.1503
-59.1531
-59.155
-59.1457
-59.0797
-58.9373
-60.0154
-70.4233
-54.652
1736.19
-399.348
-71.6893
-5.86877
-2.1962
-2.60757
-2.5547
-2.42639
-2.33791
-2.27437
-2.22002
-2.16895
-2.11948
-2.0712
-2.02406
-1.97809
-1.93336
-1.88996
-1.84792
-1.80729
-1.76811
-1.73037
-1.6941
-1.6593
-1.62597
-1.5941
-1.5637
-1.53476
-1.50729
-1.48127
-1.4567
-1.43358
-1.4119
-1.39165
-1.37282
-1.35539
-1.33934
-1.32465
-1.3113
-1.29926
-1.2885
-1.27899
-1.27069
-1.26357
-1.25758
-1.25268
-1.24884
-1.246
-1.24412
-1.24316
-1.24307
-1.2438
-1.2453
-1.24754
-1.25045
-1.25399
-1.25812
-1.26279
-1.26795
-1.27356
-1.27958
-1.28595
-1.29265
-1.29963
-1.30684
-1.31426
-1.32184
-1.32955
-1.33736
-1.34522
-1.35312
-1.36102
-1.36888
-1.3767
-1.38443
-1.39206
-1.39956
-1.40691
-1.41409
-1.42109
-1.42788
-1.43445
-1.44078
-1.44685
-1.45267
-1.4582
-1.46345
-1.4684
-1.47305
-1.47739
-1.48148
-1.48551
-1.49024
-1.4972
-1.50444
-1.47729
-1.27935
-0.965729
-3.01681
2.78936
1738.38
-396.118
-68.2567
-2.63471
0.951449
0.53611
0.605875
0.751978
0.856522
0.934995
1.00372
1.06883
1.13207
1.19385
1.25422
1.31311
1.37043
1.4261
1.48003
1.53218
1.5825
1.63097
1.67758
1.72231
1.76516
1.80612
1.8452
1.88239
1.9177
1.95113
1.98269
2.01238
2.04022
2.06621
2.09039
2.11275
2.13334
2.15217
2.16929
2.18472
2.19851
2.21069
2.22132
2.23043
2.23809
2.24435
2.24926
2.25287
2.25525
2.25646
2.25655
2.25558
2.25362
2.25073
2.24697
2.24239
2.23706
2.23105
2.22439
2.21717
2.20942
2.20121
2.19259
2.18362
2.17433
2.16479
2.15504
2.14512
2.13509
2.12497
2.11482
2.10466
2.09455
2.0845
2.07456
2.06476
2.05512
2.04567
2.03644
2.02745
2.01872
2.01028
2.00215
1.99434
1.98686
1.97975
1.973
1.96663
1.96066
1.95508
1.94988
1.94491
1.93945
1.93113
1.91513
1.89519
1.93644
2.18396
2.36197
4.32944
1738.6
-396.307
-68.5537
-2.98669
0.595581
0.19571
0.283344
0.445915
0.565704
0.658755
0.741681
0.82072
0.897639
0.972843
1.04636
1.11809
1.18793
1.25578
1.32154
1.38513
1.44652
1.50567
1.56255
1.61714
1.66944
1.71944
1.76714
1.81253
1.85562
1.89641
1.9349
1.97112
2.00507
2.03676
2.06622
2.09348
2.11856
2.14151
2.16235
2.18114
2.19791
2.21274
2.22566
2.23674
2.24604
2.25363
2.25958
2.26395
2.26681
2.26824
2.26831
2.26709
2.26466
2.2611
2.25647
2.25085
2.24432
2.23694
2.22879
2.21994
2.21046
2.20041
2.18987
2.17889
2.16753
2.15586
2.14394
2.13182
2.11955
2.10719
2.09478
2.08237
2.07001
2.05773
2.04559
2.03361
2.02183
2.01029
1.99901
1.98803
1.97738
1.96707
1.95713
1.94759
1.93846
1.92977
1.92153
1.91375
1.90646
1.89966
1.89335
1.88751
1.8818
1.87475
1.86171
1.83556
1.80726
1.85163
2.10394
2.80971
1738.73
-396.261
-68.5112
-2.93455
0.66441
0.282338
0.386574
0.564576
0.699091
0.806465
0.903439
0.996287
1.08677
1.17529
1.26183
1.3463
1.42855
1.50846
1.58593
1.66088
1.73323
1.80295
1.87001
1.93438
1.99604
2.05499
2.11122
2.16473
2.21552
2.2636
2.30897
2.35164
2.39163
2.42896
2.46365
2.49575
2.52527
2.55227
2.57679
2.59889
2.61861
2.63603
2.65121
2.66422
2.67513
2.68402
2.69097
2.69607
2.69939
2.70102
2.70104
2.69955
2.69664
2.69238
2.68687
2.6802
2.67244
2.6637
2.65404
2.64356
2.63234
2.62045
2.60797
2.59498
2.58155
2.56775
2.55366
2.53933
2.52483
2.51021
2.49555
2.48089
2.46628
2.45178
2.43744
2.42329
2.40938
2.39574
2.38243
2.36946
2.35687
2.3447
2.33297
2.3217
2.31093
2.30066
2.29093
2.28175
2.27314
2.26511
2.25768
2.25087
2.24464
2.23849
2.23008
2.21325
2.18184
2.15246
2.23552
2.56092
1738.79
-396.182
-68.4117
-2.81614
0.800452
0.434791
0.554448
0.747229
0.896132
1.01763
1.1285
1.23501
1.33893
1.44063
1.54007
1.63713
1.73166
1.82352
1.91258
1.99875
2.08195
2.16213
2.23925
2.31329
2.38421
2.45201
2.51669
2.57823
2.63663
2.69191
2.74406
2.79311
2.83907
2.88197
2.92183
2.95869
2.99259
3.02358
3.05173
3.07707
3.0997
3.11966
3.13705
3.15194
3.16442
3.17458
3.1825
3.18828
3.19203
3.19383
3.19379
3.192
3.18857
3.1836
3.1772
3.16945
3.16046
3.15033
3.13916
3.12704
3.11406
3.10032
3.0859
3.0709
3.05539
3.03947
3.02319
3.00665
2.98992
2.97306
2.95614
2.93923
2.92239
2.90566
2.88912
2.8728
2.85676
2.84104
2.82569
2.81074
2.79623
2.7822
2.76868
2.75569
2.74327
2.73144
2.72023
2.70965
2.69973
2.69047
2.6819
2.67405
2.66695
2.66059
2.65425
2.64474
2.62414
2.583
2.56636
2.8081
1738.82
-396.134
-68.3451
-2.73226
0.900326
0.549892
0.684277
0.891451
1.0545
1.18994
1.31455
1.43458
1.55179
1.66651
1.7787
1.88821
1.99488
2.09853
2.19904
2.2963
2.39021
2.48072
2.56779
2.65136
2.73143
2.80798
2.88098
2.95045
3.01636
3.07874
3.13759
3.19293
3.24477
3.29315
3.33809
3.37964
3.41785
3.45277
3.48447
3.51301
3.53847
3.56093
3.58047
3.5972
3.61119
3.62257
3.63142
3.63786
3.64199
3.64393
3.64379
3.64168
3.63771
3.63201
3.62468
3.61584
3.6056
3.59408
3.58137
3.5676
3.55286
3.53726
3.5209
3.50387
3.48629
3.46822
3.44977
3.43102
3.41206
3.39295
3.37378
3.35462
3.33554
3.31659
3.29785
3.27937
3.26121
3.24341
3.22603
3.2091
3.19268
3.1768
3.16149
3.14679
3.13273
3.11935
3.10666
3.09468
3.08345
3.07298
3.06329
3.05438
3.04632
3.03918
3.03299
3.02663
3.01405
2.97479
2.90126
3.16225
1738.84
-396.103
-68.2985
-2.67009
0.977436
0.641592
0.790317
1.01163
1.18863
1.33783
1.476
1.60939
1.73972
1.86729
1.99206
2.11386
2.23249
2.34779
2.45959
2.56778
2.67226
2.77296
2.86982
2.96281
3.05189
3.13705
3.21827
3.29554
3.36886
3.43823
3.50367
3.56519
3.62282
3.67658
3.72652
3.77268
3.81511
3.85388
3.88906
3.92072
3.94895
3.97383
3.99548
4.01398
4.02944
4.04199
4.05172
4.05877
4.06325
4.06529
4.06502
4.06255
4.05802
4.05156
4.04329
4.03333
4.02182
4.00888
3.99463
3.97919
3.96268
3.94521
3.92689
3.90785
3.88817
3.86797
3.84734
3.82638
3.80518
3.78383
3.76241
3.741
3.71968
3.69852
3.67759
3.65695
3.63667
3.6168
3.59739
3.5785
3.56016
3.54244
3.52535
3.50895
3.49326
3.47833
3.46417
3.45081
3.43828
3.4266
3.41579
3.40586
3.39683
3.38881
3.38203
3.37653
3.36842
3.33212
3.21506
3.5282
1738.85
-396.078
-68.2591
-2.61595
1.04599
0.724386
0.887191
1.12242
1.31318
1.47596
1.62752
1.77408
1.91733
2.05758
2.19474
2.32864
2.45906
2.58581
2.70873
2.82769
2.94257
3.0533
3.15981
3.26206
3.36001
3.45365
3.54294
3.62788
3.70848
3.78473
3.85664
3.92424
3.98754
4.04659
4.10142
4.15209
4.19866
4.24119
4.27977
4.31447
4.34539
4.37264
4.39631
4.41653
4.4334
4.44706
4.45763
4.46524
4.47003
4.47213
4.47169
4.46883
4.4637
4.45645
4.44721
4.43612
4.42331
4.40894
4.39312
4.376
4.35771
4.33836
4.31808
4.297
4.27524
4.25289
4.23008
4.20691
4.18347
4.15988
4.13621
4.11255
4.089
4.06563
4.04252
4.01973
3.99733
3.97539
3.95397
3.93311
3.91288
3.89332
3.87446
3.85637
3.83906
3.82258
3.80696
3.79222
3.7784
3.76552
3.7536
3.74266
3.7327
3.72381
3.71628
3.71073
3.7051
3.67148
3.51679
3.88747
1738.85
-396.056
-68.2221
-2.56471
1.11134
0.803712
0.980373
1.22932
1.43363
1.60979
1.77452
1.93404
2.09002
2.24274
2.3921
2.5379
2.67991
2.81793
2.95178
3.08131
3.20641
3.327
3.44299
3.55434
3.66101
3.76296
3.86019
3.95267
4.0404
4.12339
4.20165
4.2752
4.34406
4.40828
4.4679
4.52298
4.57358
4.61978
4.66167
4.69933
4.73287
4.7624
4.78803
4.80989
4.82811
4.84283
4.85417
4.8623
4.86734
4.86946
4.8688
4.86552
4.85976
4.85168
4.84144
4.82919
4.81508
4.79925
4.78185
4.76303
4.74294
4.7217
4.69946
4.67634
4.65247
4.62798
4.60298
4.57759
4.55193
4.52609
4.50017
4.47428
4.4485
4.42292
4.39763
4.37269
4.34819
4.32419
4.30076
4.27795
4.25582
4.23443
4.21382
4.19404
4.17512
4.15711
4.14003
4.12393
4.10883
4.09476
4.08174
4.06978
4.05891
4.04918
4.04087
4.03494
4.03075
3.9996
3.81351
4.23608
1738.86
-396.034
-68.1863
-2.51492
1.17498
0.881103
1.0714
1.33383
1.55148
1.74079
1.91848
2.09074
2.25922
2.42419
2.58552
2.74301
2.8964
3.04547
3.19005
3.32997
3.4651
3.59536
3.72065
3.84092
3.95613
4.06625
4.17124
4.2711
4.36582
4.45541
4.53988
4.61925
4.69355
4.76281
4.82711
4.88648
4.94101
4.99078
5.03587
5.0764
5.11247
5.1442
5.17171
5.19515
5.21465
5.23035
5.24242
5.251
5.25625
5.25834
5.25742
5.25367
5.24724
5.23832
5.22705
5.2136
5.19815
5.18084
5.16185
5.14132
5.11941
5.09627
5.07205
5.04688
5.02091
4.99427
4.96708
4.93948
4.91158
4.8835
4.85534
4.82721
4.7992
4.77142
4.74396
4.71688
4.69028
4.66423
4.6388
4.61404
4.59003
4.56682
4.54447
4.523
4.50249
4.48295
4.46444
4.44698
4.43061
4.41535
4.40124
4.38829
4.37651
4.36595
4.35688
4.35042
4.34701
4.31803
4.10783
4.57259
1738.87
-396.013
-68.1513
-2.46623
1.23727
0.956906
1.16059
1.43628
1.66702
1.86924
2.05965
2.24441
2.42516
2.60213
2.77521
2.94414
3.10868
3.2686
3.42369
3.57378
3.71874
3.85846
3.99286
4.12187
4.24544
4.36353
4.47613
4.5832
4.68476
4.78079
4.87132
4.95637
5.03596
5.11015
5.17899
5.24254
5.30088
5.35411
5.40231
5.44561
5.48411
5.51795
5.54727
5.5722
5.5929
5.60953
5.62225
5.63122
5.63663
5.63863
5.63741
5.63315
5.62602
5.6162
5.60387
5.58921
5.57239
5.55358
5.53297
5.51071
5.48697
5.46192
5.4357
5.40848
5.3804
5.3516
5.32223
5.29241
5.26228
5.23195
5.20155
5.17119
5.14097
5.11099
5.08136
5.05215
5.02346
4.99536
4.96794
4.94125
4.91537
4.89035
4.86625
4.84313
4.82102
4.79998
4.78003
4.76123
4.7436
4.72717
4.71198
4.69803
4.68536
4.67399
4.66417
4.65712
4.654
4.62678
4.39994
4.89623
1738.88
-395.992
-68.1171
-2.4186
1.29825
1.03113
1.24795
1.53663
1.7802
1.99508
2.19795
2.39495
2.5877
2.77643
2.961
3.14114
3.3166
3.48711
3.65248
3.81252
3.96708
4.11606
4.25936
4.3969
4.52864
4.65453
4.77455
4.88867
4.99688
5.0992
5.19563
5.28621
5.37095
5.44992
5.52317
5.59077
5.6528
5.70937
5.76058
5.80653
5.84737
5.88323
5.91426
5.94061
5.96243
5.97991
5.99322
6.00253
6.00802
6.00989
6.00832
6.0035
5.99562
5.98487
5.97145
5.95554
5.93733
5.917
5.89475
5.87074
5.84516
5.81818
5.78996
5.76067
5.73047
5.69951
5.66795
5.63591
5.60355
5.57098
5.53834
5.50575
5.47332
5.44115
5.40936
5.37803
5.34726
5.31713
5.28772
5.25911
5.23136
5.20455
5.17872
5.15394
5.13026
5.10772
5.08636
5.06622
5.04735
5.02976
5.0135
4.99857
4.98501
4.97285
4.9623
4.95461
4.95144
4.92553
4.68905
5.20658
1738.88
-395.972
-68.0837
-2.37208
1.35784
1.1037
1.33336
1.63476
1.89088
2.11814
2.33319
2.54216
2.74664
2.94687
3.14266
3.33375
3.51986
3.70073
3.87614
4.04589
4.20983
4.36784
4.51982
4.66569
4.80539
4.93888
5.06612
5.1871
5.3018
5.41023
5.5124
5.60834
5.69808
5.78168
5.8592
5.93072
5.99632
6.0561
6.11019
6.1587
6.20177
6.23955
6.2722
6.29987
6.32274
6.341
6.35482
6.36439
6.36992
6.3716
6.36962
6.36419
6.35552
6.34381
6.32925
6.31206
6.29243
6.27056
6.24664
6.22086
6.19342
6.1645
6.13427
6.10291
6.07059
6.03746
6.0037
5.96945
5.93485
5.90005
5.86518
5.83036
5.79572
5.76137
5.72743
5.69398
5.66114
5.62898
5.59761
5.56708
5.53748
5.50888
5.48134
5.45492
5.42967
5.40564
5.38288
5.36143
5.34132
5.32259
5.30527
5.28938
5.27495
5.26199
5.25074
5.2424
5.23891
5.21394
4.97393
5.50341
1738.89
-395.953
-68.0511
-2.32671
1.41596
1.17449
1.41671
1.73052
1.9989
2.23824
2.46518
2.68583
2.90177
3.1132
3.31994
3.52171
3.71821
3.90918
4.09437
4.27358
4.44666
4.61347
4.7739
4.92787
5.07532
5.2162
5.35047
5.47811
5.5991
5.71346
5.8212
5.92233
6.01692
6.10499
6.18664
6.26193
6.33096
6.39384
6.45068
6.50163
6.54683
6.58642
6.62059
6.6495
6.67333
6.69228
6.70654
6.71631
6.72181
6.72323
6.72079
6.71471
6.7052
6.69248
6.67676
6.65825
6.63717
6.61372
6.58812
6.56056
6.53124
6.50036
6.46811
6.43466
6.40021
6.36492
6.32896
6.29249
6.25566
6.21862
6.18152
6.14448
6.10764
6.07112
6.03503
5.99948
5.96458
5.93041
5.89707
5.86464
5.83321
5.80284
5.77359
5.74554
5.71874
5.69324
5.66909
5.64633
5.625
5.60513
5.58677
5.56993
5.55464
5.54092
5.52897
5.51998
5.51599
5.49166
5.25326
5.78662
1738.9
-395.934
-68.0194
-2.28258
1.47253
1.24342
1.49787
1.82378
2.10411
2.35522
2.59374
2.82577
3.05286
3.27521
3.49261
3.70477
3.91139
4.11218
4.30688
4.4953
4.67726
4.85263
5.02128
5.18312
5.3381
5.48615
5.62723
5.76133
5.88843
6.00852
6.12164
6.2278
6.32705
6.41945
6.50506
6.58398
6.6563
6.72213
6.78161
6.83488
6.88209
6.92339
6.95898
6.98903
7.01373
7.03329
7.04791
7.05781
7.0632
7.06431
7.06136
7.05457
7.04418
7.0304
7.01348
6.99362
6.97106
6.94601
6.91869
6.88933
6.85812
6.82527
6.79098
6.75545
6.71886
6.68139
6.64323
6.60454
6.56548
6.52621
6.48689
6.44764
6.4086
6.36991
6.33169
6.29404
6.25709
6.22092
6.18563
6.15131
6.11805
6.08592
6.05499
6.02532
5.99698
5.97002
5.94449
5.92044
5.8979
5.87692
5.85753
5.83976
5.82362
5.80915
5.79653
5.78688
5.78225
5.75838
5.52572
6.0562
1738.9
-395.916
-67.9887
-2.23974
1.52748
1.31039
1.57675
1.91443
2.20638
2.46894
2.71872
2.96181
3.19974
3.4327
3.66046
3.88273
4.09917
4.3095
4.51345
4.71081
4.90139
5.08505
5.26167
5.43115
5.59342
5.74841
5.8961
6.03644
6.16943
6.29508
6.41338
6.52439
6.62813
6.72468
6.8141
6.89649
6.97196
7.04061
7.10259
7.15805
7.20715
7.25005
7.28695
7.31804
7.34352
7.36361
7.37851
7.38846
7.39369
7.39442
7.39089
7.38335
7.37202
7.35715
7.33897
7.31773
7.29366
7.26698
7.23793
7.20674
7.17362
7.13878
7.10245
7.06481
7.02608
6.98644
6.94608
6.90517
6.86388
6.82239
6.78084
6.73938
6.69816
6.65731
6.61697
6.57723
6.53824
6.50008
6.46285
6.42666
6.39158
6.3577
6.3251
6.29383
6.26396
6.23556
6.20867
6.18334
6.15961
6.13753
6.11712
6.09843
6.08146
6.06625
6.05297
6.04268
6.03731
6.01378
5.79006
6.31217
1738.91
-395.898
-67.9589
-2.19821
1.58076
1.37534
1.65326
2.00237
2.3056
2.57927
2.83999
3.09381
3.34227
3.58552
3.82334
4.0554
4.28137
4.50095
4.71386
4.91987
5.11881
5.31051
5.49484
5.6717
5.84102
6.00273
6.15679
6.30316
6.44184
6.57282
6.69613
6.81179
6.91985
7.02037
7.11344
7.19914
7.2776
7.34893
7.41328
7.4708
7.52166
7.56605
7.60416
7.63619
7.66235
7.68287
7.69798
7.7079
7.71289
7.71317
7.70901
7.70065
7.68834
7.67233
7.65287
7.6302
7.60458
7.57625
7.54545
7.5124
7.47735
7.44052
7.40213
7.36239
7.3215
7.27968
7.23711
7.19398
7.15047
7.10676
7.06299
7.01933
6.97594
6.93294
6.89048
6.84867
6.80765
6.76751
6.72836
6.69031
6.65343
6.61782
6.58355
6.55069
6.51932
6.48948
6.46124
6.43465
6.40975
6.38658
6.36517
6.34557
6.32779
6.31186
6.29794
6.287
6.28084
6.25757
6.04516
6.5546
1738.91
-395.881
-67.9301
-2.15804
1.63232
1.43822
1.72734
2.08752
2.40168
2.68613
2.95744
3.22167
3.48032
3.73354
3.98109
4.22263
4.45783
4.68635
4.90793
5.12233
5.32933
5.5288
5.72058
5.90457
6.08069
6.24887
6.40907
6.56125
6.70539
6.84151
6.96961
7.08973
7.20192
7.30624
7.40278
7.49164
7.57293
7.64679
7.71336
7.77282
7.82533
7.87108
7.91028
7.94315
7.9699
7.99076
8.00598
8.0158
8.02047
8.02025
8.0154
8.00616
7.99282
7.97562
7.95483
7.93071
7.90351
7.87349
7.84091
7.80599
7.769
7.73015
7.68969
7.64783
7.60479
7.56078
7.51601
7.47066
7.42493
7.37899
7.33302
7.28717
7.24161
7.19647
7.1519
7.10804
7.06499
7.02289
6.98184
6.94193
6.90327
6.86594
6.83003
6.7956
6.76273
6.73148
6.7019
6.67406
6.648
6.62375
6.60136
6.58086
6.56228
6.54565
6.5311
6.51953
6.51254
6.4895
6.29
6.78357
1738.92
-395.864
-67.9024
-2.11924
1.68215
1.49899
1.79895
2.16985
2.49458
2.78945
3.071
3.34528
3.61379
3.87664
4.1336
4.38431
4.62841
4.86558
5.09553
5.31801
5.53281
5.73975
5.93872
6.12958
6.31224
6.48665
6.65275
6.8105
6.95989
7.10092
7.23361
7.35799
7.47412
7.58206
7.6819
7.77374
7.85771
7.93395
8.00261
8.06385
8.11788
8.16488
8.20506
8.23866
8.26589
8.28701
8.30225
8.31189
8.31618
8.31538
8.30976
8.2996
8.28517
8.26674
8.24458
8.21896
8.19015
8.15842
8.12403
8.08722
8.04826
8.00739
7.96485
7.92086
7.87566
7.82947
7.78249
7.73493
7.68698
7.63882
7.59064
7.54261
7.49489
7.44763
7.40097
7.35505
7.31
7.26595
7.223
7.18126
7.14083
7.1018
7.06425
7.02827
6.99392
6.96127
6.93038
6.9013
6.87409
6.84878
6.82542
6.80405
6.78468
6.76735
6.75218
6.74
6.73217
6.70933
6.52368
6.99917
1738.92
-395.848
-67.8756
-2.08181
1.73022
1.55763
1.86805
2.24929
2.58424
2.88916
3.1806
3.46459
3.7426
4.01476
4.28079
4.54033
4.79303
5.03853
5.27654
5.5068
5.72909
5.94324
6.14911
6.34657
6.53552
6.7159
6.88766
7.05074
7.20515
7.35088
7.48795
7.61639
7.73625
7.84762
7.95058
8.04524
8.13173
8.21019
8.28078
8.34369
8.3991
8.44722
8.48827
8.52248
8.5501
8.57138
8.58657
8.59594
8.59976
8.59831
8.59188
8.58073
8.56516
8.54545
8.52188
8.49473
8.46428
8.4308
8.39457
8.35586
8.31492
8.272
8.22737
8.18125
8.13388
8.0855
8.03631
7.98654
7.93637
7.88601
7.83563
7.78543
7.73555
7.68617
7.63744
7.58948
7.54245
7.49646
7.45163
7.40807
7.36588
7.32517
7.28601
7.24848
7.21267
7.17863
7.14644
7.11615
7.0878
7.06145
7.03714
7.01489
6.99475
6.97674
6.96098
6.94819
6.93952
6.91686
6.74547
7.20149
1738.93
-395.833
-67.8498
-2.04577
1.77652
1.61411
1.93462
2.32583
2.67061
2.98522
3.2862
3.57953
3.8667
4.14781
4.42257
4.69063
4.95158
5.20509
5.45085
5.68859
5.91808
6.13915
6.35164
6.55542
6.7504
6.93649
7.11365
7.28184
7.44103
7.59123
7.73246
7.86475
7.98816
8.10277
8.20867
8.30597
8.39481
8.47534
8.54772
8.61214
8.6688
8.71792
8.75972
8.79445
8.82235
8.84368
8.85872
8.86774
8.87103
8.86887
8.86154
8.84936
8.83259
8.81155
8.78653
8.75781
8.72568
8.69043
8.65235
8.6117
8.56876
8.52379
8.47705
8.4288
8.37926
8.32868
8.27729
8.2253
8.17292
8.12036
8.0678
8.01543
7.96341
7.91193
7.86112
7.81115
7.76214
7.71423
7.66753
7.62217
7.57825
7.53586
7.4951
7.45606
7.41879
7.38339
7.34991
7.31842
7.28895
7.26157
7.23632
7.21323
7.19233
7.17364
7.1573
7.14392
7.13443
7.11194
6.95475
7.39062
1738.93
-395.818
-67.825
-2.01112
1.82104
1.66843
1.99864
2.39944
2.75368
3.07761
3.38774
3.69007
3.98604
4.27575
4.5589
4.83512
5.10401
5.36521
5.6184
5.8633
6.0997
6.32739
6.54621
6.75604
6.95677
7.14832
7.33063
7.50367
7.66741
7.82186
7.96703
8.10296
8.22971
8.34737
8.45602
8.55579
8.64682
8.72925
8.80327
8.86907
8.92685
8.97683
9.01926
9.05439
9.08246
9.10376
9.11857
9.12716
9.12983
9.12688
9.11861
9.10532
9.08731
9.0649
9.03837
9.00804
8.97421
8.93716
8.8972
8.8546
8.80964
8.7626
8.71375
8.66335
8.61164
8.55887
8.50527
8.45107
8.39649
8.34173
8.28699
8.23246
8.17832
8.12474
8.07188
8.0199
7.96893
7.91912
7.87057
7.82343
7.77778
7.73374
7.6914
7.65085
7.61216
7.57541
7.54066
7.50797
7.47741
7.44902
7.42283
7.3989
7.37726
7.35792
7.34101
7.32706
7.31678
7.29444
7.15103
7.56663
1738.94
-395.804
-67.8012
-1.97785
1.86379
1.72058
2.0601
2.47011
2.83343
3.1663
3.48522
3.79616
4.10058
4.39853
4.68973
4.97377
5.25026
5.51882
5.77912
6.03088
6.27386
6.50787
6.73274
6.94833
7.15454
7.35128
7.5385
7.71614
7.88419
8.04265
8.19154
8.3309
8.4608
8.58131
8.69253
8.79459
8.88763
8.97181
9.04732
9.11434
9.1731
9.22383
9.26678
9.30219
9.33034
9.3515
9.36598
9.37406
9.37604
9.37223
9.36294
9.34849
9.32919
9.30535
9.27729
9.24532
9.20974
9.17087
9.12899
9.08442
9.03743
8.98832
8.93735
8.88478
8.8309
8.77593
8.72013
8.66372
8.60694
8.54999
8.49309
8.43641
8.38016
8.3245
8.2696
8.21563
8.16272
8.11101
8.06064
8.01172
7.96438
7.9187
7.8748
7.83276
7.79265
7.75457
7.71857
7.68471
7.65306
7.62367
7.59658
7.57183
7.54945
7.52947
7.512
7.4975
7.48646
7.46426
7.33398
7.72962
1738.94
-395.79
-67.7784
-1.94597
1.90474
1.77055
2.11899
2.53781
2.90983
3.25127
3.5786
3.8978
4.21029
4.51613
4.81502
5.10654
5.39029
5.66587
5.93296
6.19126
6.44053
6.68056
6.91118
7.13225
7.34367
7.54533
7.73718
7.91918
8.0913
8.25354
8.40593
8.54851
8.68134
8.8045
8.9181
9.02227
9.11716
9.20293
9.27977
9.34788
9.40749
9.45884
9.50217
9.53775
9.56587
9.58681
9.60087
9.60834
9.60956
9.60482
9.59446
9.57879
9.55814
9.53283
9.50319
9.46953
9.43218
9.39145
9.34766
9.30109
9.25206
9.20085
9.14774
9.09302
9.03695
8.97979
8.92179
8.86318
8.80421
8.74508
8.68601
8.62721
8.56885
8.51113
8.45421
8.39826
8.34342
8.28984
8.23766
8.18699
8.13796
8.09067
8.04522
8.00171
7.96021
7.92081
7.88357
7.84857
7.81585
7.78547
7.75748
7.73192
7.70883
7.68823
7.67021
7.65518
7.64342
7.62136
7.50333
7.87964
1738.95
-395.777
-67.7567
-1.91548
1.94391
1.81834
2.17531
2.60256
2.98289
3.3325
3.66787
3.99495
4.31515
4.62853
4.93475
5.23341
5.52407
5.80635
6.0799
6.34442
6.59966
6.84541
7.08149
7.30775
7.52409
7.73041
7.92664
8.11274
8.28868
8.45448
8.61014
8.75572
8.89127
9.0169
9.13269
9.2388
9.33536
9.42255
9.50057
9.56962
9.62994
9.68178
9.72538
9.76103
9.78901
9.80962
9.82317
9.82997
9.83033
9.8246
9.8131
9.79615
9.7741
9.74728
9.71601
9.68064
9.64149
9.59887
9.55312
9.50455
9.45345
9.40014
9.3449
9.28801
9.22976
9.17041
9.1102
9.0494
8.98824
8.92694
8.86573
8.8048
8.74436
8.68458
8.62566
8.56774
8.511
8.45557
8.40159
8.34919
8.29849
8.24961
8.20263
8.15766
8.11479
8.07409
8.03564
7.9995
7.96573
7.93439
7.90552
7.87917
7.85537
7.83415
7.8156
7.80007
7.78764
7.7657
7.65896
8.01678
1738.95
-395.764
-67.7359
-1.88638
1.9813
1.86394
2.22905
2.66433
3.05259
3.41
3.75303
4.08762
4.41516
4.73571
5.04891
5.35435
5.65159
5.94022
6.21991
6.49033
6.75123
7.00239
7.24364
7.47481
7.69579
7.90649
8.10684
8.29679
8.47632
8.64543
8.80414
8.9525
9.09058
9.21846
9.33626
9.44412
9.54218
9.63064
9.70969
9.77954
9.84043
9.89262
9.93638
9.97198
9.99972
10.0199
10.0329
10.0389
10.0383
10.0315
10.0188
10.0006
9.97705
9.94866
9.91574
9.87861
9.83762
9.7931
9.74538
9.69478
9.64161
9.58618
9.52879
9.46974
9.4093
9.34775
9.28536
9.22237
9.15903
9.09557
9.03222
8.96918
8.90667
8.84486
8.78394
8.72408
8.66545
8.60818
8.55243
8.49832
8.44597
8.39551
8.34702
8.30062
8.25639
8.21442
8.17477
8.13751
8.10271
8.07041
8.04068
8.01355
7.98906
7.96725
7.94818
7.93216
7.9191
7.89729
7.80082
8.14113
1738.96
-395.753
-67.7161
-1.85866
2.0169
1.90737
2.28021
2.72314
3.11893
3.48376
3.83408
4.1758
4.51032
4.83767
5.1575
5.46937
5.77284
6.0675
6.35298
6.62899
6.89523
7.15151
7.39762
7.63341
7.85876
8.07357
8.27777
8.47132
8.65419
8.82638
8.98792
9.13885
9.27924
9.40918
9.5288
9.63823
9.73763
9.82719
9.90711
9.97761
10.0389
10.0914
10.1352
10.1706
10.198
10.2177
10.2299
10.2351
10.2336
10.2256
10.2117
10.192
10.167
10.137
10.1024
10.0635
10.0206
9.97415
9.92443
9.87178
9.81653
9.75897
9.69944
9.63821
9.57559
9.51185
9.44727
9.3821
9.31659
9.25098
9.18551
9.12038
9.0558
8.99197
8.92908
8.8673
8.80679
8.74771
8.6902
8.6344
8.58042
8.5284
8.47843
8.43062
8.38505
8.34182
8.30098
8.26263
8.22681
8.19358
8.163
8.13511
8.10995
8.08755
8.06798
8.05149
8.03785
8.01616
7.92893
8.25276
1738.96
-395.741
-67.6972
-1.83232
2.05073
1.94861
2.32881
2.77899
3.18193
3.5538
3.91101
4.25949
4.60062
4.93442
5.26051
5.57847
5.88783
6.18817
6.47914
6.7604
7.03168
7.29276
7.54344
7.78356
8.013
8.23165
8.43945
8.63634
8.82231
8.99735
9.16149
9.31477
9.45727
9.58908
9.71033
9.82115
9.92172
10.0122
10.0929
10.1639
10.2255
10.278
10.3217
10.3569
10.3839
10.4029
10.4144
10.4187
10.4161
10.4069
10.3916
10.3705
10.3439
10.3123
10.2759
10.2352
10.1905
10.1421
10.0903
10.0356
9.97826
9.91858
9.85688
9.79348
9.72868
9.66275
9.59599
9.52864
9.46097
9.39323
9.32564
9.25843
9.19181
9.12599
9.06114
8.99745
8.93509
8.87421
8.81497
8.75749
8.70191
8.64835
8.59692
8.54771
8.50083
8.45635
8.41436
8.37492
8.3381
8.30396
8.27255
8.24391
8.21809
8.19512
8.17506
8.15812
8.14396
8.12239
8.0434
8.35179
1738.96
-395.731
-67.6794
-1.80736
2.08277
1.98769
2.37484
2.83189
3.24159
3.62011
3.98385
4.33872
4.68609
5.02597
5.35798
5.68167
5.99658
6.30227
6.59839
6.88459
7.1606
7.42617
7.68113
7.92529
8.15854
8.38077
8.5919
8.79189
8.98071
9.15837
9.32488
9.4803
9.62471
9.75819
9.88088
9.99292
10.0945
10.1858
10.267
10.3384
10.4002
10.4527
10.4962
10.531
10.5574
10.5757
10.5864
10.5896
10.5859
10.5755
10.5588
10.5362
10.508
10.4747
10.4365
10.3939
10.3473
10.2969
10.2431
10.1863
10.1269
10.0651
10.0012
9.93563
9.86864
9.80054
9.73159
9.66208
9.59227
9.5224
9.45271
9.38344
9.3148
9.24699
9.1802
9.11462
9.05043
8.98778
8.92682
8.86769
8.81053
8.75545
8.70257
8.65199
8.60381
8.55811
8.51498
8.47448
8.43668
8.40164
8.36942
8.34005
8.31358
8.29005
8.26952
8.25214
8.2375
8.21607
8.14437
8.43834
1738.97
-395.721
-67.6625
-1.78377
2.11306
2.02461
2.41832
2.88185
3.29794
3.68272
4.05262
4.41351
4.76675
5.11235
5.44992
5.779
6.09911
6.40983
6.71077
7.00159
7.28201
7.55179
7.81072
8.05865
8.29543
8.52097
8.73518
8.93801
9.12945
9.30949
9.47816
9.63551
9.78161
9.91658
10.0405
10.1536
10.256
10.3479
10.4296
10.5012
10.563
10.6154
10.6586
10.6929
10.7186
10.7362
10.7459
10.748
10.7431
10.7313
10.7132
10.689
10.6592
10.6242
10.5842
10.5398
10.4911
10.4388
10.383
10.3241
10.2625
10.1985
10.1325
10.0648
9.9956
9.92532
9.8542
9.78254
9.71058
9.6386
9.56684
9.49552
9.42487
9.35509
9.28639
9.21894
9.15294
9.08853
9.02587
8.96512
8.90639
8.84982
8.79551
8.74358
8.69413
8.64723
8.60297
8.56143
8.52267
8.48675
8.45373
8.42365
8.39655
8.37248
8.35148
8.3337
8.31861
8.29731
8.23204
8.51256
1738.97
-395.711
-67.6466
-1.76154
2.14158
2.05938
2.45927
2.92889
3.35098
3.74166
4.11733
4.48387
4.84263
5.1936
5.53638
5.8705
6.19549
6.51089
6.81633
7.11146
7.39599
7.66967
7.93229
8.18369
8.42374
8.65231
8.86935
9.07478
9.2686
9.4508
9.6214
9.78047
9.92807
10.0643
10.1893
10.3033
10.4064
10.4987
10.5807
10.6524
10.7141
10.7662
10.809
10.8427
10.8677
10.8844
10.893
10.894
10.8878
10.8747
10.855
10.8293
10.7978
10.761
10.7192
10.6728
10.6222
10.5678
10.5099
10.449
10.3852
10.3191
10.2509
10.181
10.1097
10.0372
9.96396
9.89015
9.81607
9.742
9.66816
9.59482
9.52217
9.45045
9.37985
9.31056
9.24276
9.17662
9.11229
9.04993
8.98966
8.93161
8.87591
8.82265
8.77193
8.72386
8.6785
8.63593
8.59623
8.55945
8.52565
8.49487
8.46716
8.44255
8.42111
8.40293
8.38744
8.36629
8.30666
8.5746
1738.97
-395.702
-67.6317
-1.74067
2.16837
2.09203
2.49771
2.97304
3.40075
3.79696
4.17804
4.54986
4.91378
5.26976
5.6174
5.95623
6.28575
6.60552
6.91514
7.21426
7.50259
7.77987
8.0459
8.3005
8.54354
8.77489
8.9945
9.20229
9.39825
9.58238
9.75471
9.91528
10.0642
10.2015
10.3275
10.4421
10.5457
10.6384
10.7204
10.7921
10.8537
10.9054
10.9476
10.9806
11.0048
11.0205
11.028
11.0278
11.0202
11.0056
10.9844
10.957
10.9238
10.8852
10.8415
10.7932
10.7406
10.6842
10.6242
10.5611
10.4953
10.427
10.3567
10.2846
10.2111
10.1365
10.061
9.9851
9.90891
9.83275
9.75687
9.68151
9.6069
9.53325
9.46077
9.38966
9.32009
9.25224
9.18626
9.12231
9.06052
9.00102
8.94394
8.88937
8.83742
8.78818
8.74174
8.69818
8.65755
8.61992
8.58536
8.5539
8.52559
8.50047
8.47859
8.46004
8.44418
8.42318
8.3685
8.62466
1738.98
-395.694
-67.6177
-1.72114
2.19343
2.12257
2.53366
3.01433
3.44729
3.84865
4.23477
4.61153
4.98024
5.34089
5.69305
6.03624
6.36997
6.69378
7.00727
7.31008
7.60191
7.8825
8.15165
8.40918
8.65493
8.88881
9.11074
9.32065
9.51852
9.70436
9.8782
10.0401
10.1901
10.3284
10.455
10.5702
10.6741
10.767
10.849
10.9205
10.9817
11.033
11.0745
11.1068
11.13
11.1446
11.151
11.1495
11.1405
11.1244
11.1016
11.0725
11.0375
10.997
10.9514
10.9011
10.8466
10.7881
10.726
10.6608
10.5928
10.5224
10.4499
10.3756
10.3
10.2232
10.1456
10.0676
9.98931
9.91108
9.83317
9.75582
9.67925
9.6037
9.52937
9.45645
9.38513
9.31559
9.24799
9.18248
9.11919
9.05826
8.99982
8.94396
8.8908
8.84043
8.79293
8.74837
8.70684
8.66839
8.63308
8.60095
8.57206
8.54644
8.52414
8.50523
8.48904
8.46819
8.41784
8.66297
1738.98
-395.686
-67.6047
-1.70292
2.21679
2.15103
2.56716
3.05279
3.49064
3.89678
4.28759
4.66892
5.04209
5.40705
5.7634
6.11062
6.44823
6.77577
7.09281
7.399
7.69404
7.97766
8.24965
8.50982
8.75804
8.99419
9.21819
9.42999
9.62955
9.81688
9.99202
10.155
10.306
10.445
10.5722
10.6877
10.7918
10.8847
10.9666
11.0378
11.0986
11.1492
11.19
11.2213
11.2436
11.257
11.2621
11.2592
11.2488
11.2311
11.2067
11.1758
11.139
11.0967
11.0492
10.9969
10.9403
10.8797
10.8156
10.7482
10.6781
10.6055
10.5309
10.4544
10.3766