/*--------------------------------*- C++ -*----------------------------------*\
  =========                 |
  \\      /  F ield         | OpenFOAM: The Open Source CFD Toolbox
   \\    /   O peration     | Website:  https://openfoam.org
    \\  /    A nd           | Version:  10
     \\/     M anipulation  |
\*---------------------------------------------------------------------------*/
FoamFile
{
    format      ascii;
    class       volScalarField;
    location    "11.5";
    object      T;
}
// * * * * * * * * * * * * * * * * * * * * * * * * * * * * * * * * * * * * * //

dimensions      [0 0 0 1 0 0 0];

internalField   nonuniform List<scalar> 
10000
(
374.963
361.208
356.471
354.363
353.194
352.436
351.891
351.472
351.131
350.846
350.599
350.381
350.186
350.007
349.843
349.69
349.547
349.412
349.284
349.162
349.045
348.934
348.827
348.724
348.625
348.53
348.437
348.348
348.262
348.179
348.098
348.02
347.945
347.872
347.801
347.733
347.666
347.603
347.541
347.481
347.423
347.367
347.314
347.262
347.212
347.163
347.117
347.072
347.029
346.988
346.948
346.91
346.873
346.838
346.805
346.773
346.742
346.712
346.684
346.657
346.631
346.607
346.584
346.562
346.54
346.52
346.501
346.483
346.466
346.45
346.435
346.42
346.407
346.394
346.382
346.371
346.36
346.35
346.341
346.332
346.324
346.317
346.31
346.303
346.298
346.292
346.287
346.283
346.279
346.276
346.273
346.27
346.268
346.266
346.265
346.263
346.263
346.262
346.263
346.264
388.533
374.598
366.772
362.139
359.16
357.084
355.538
354.323
353.329
352.488
351.758
351.111
350.529
349.997
349.507
349.05
348.622
348.218
347.835
347.47
347.122
346.788
346.468
346.16
345.863
345.577
345.3
345.033
344.775
344.525
344.283
344.05
343.823
343.604
343.392
343.187
342.989
342.797
342.612
342.432
342.259
342.092
341.931
341.775
341.625
341.481
341.341
341.207
341.078
340.954
340.835
340.721
340.611
340.506
340.405
340.308
340.216
340.127
340.043
339.962
339.885
339.812
339.742
339.675
339.612
339.552
339.495
339.441
339.39
339.341
339.295
339.252
339.211
339.173
339.137
339.103
339.071
339.041
339.013
338.987
338.963
338.941
338.92
338.901
338.884
338.868
338.853
338.84
338.828
338.818
338.809
338.801
338.794
338.789
338.784
338.781
338.779
338.778
338.778
338.78
393.091
381.889
373.885
368.267
364.228
361.209
358.86
356.962
355.381
354.027
352.842
351.786
350.83
349.956
349.147
348.392
347.684
347.014
346.379
345.774
345.196
344.641
344.109
343.597
343.103
342.627
342.167
341.723
341.293
340.877
340.475
340.086
339.709
339.345
338.992
338.65
338.32
338.001
337.692
337.394
337.105
336.827
336.558
336.299
336.049
335.808
335.576
335.353
335.138
334.932
334.733
334.543
334.36
334.184
334.016
333.855
333.701
333.554
333.414
333.279
333.151
333.029
332.912
332.802
332.696
332.596
332.501
332.411
332.326
332.245
332.169
332.097
332.029
331.965
331.904
331.848
331.795
331.745
331.699
331.656
331.615
331.578
331.544
331.512
331.483
331.456
331.432
331.41
331.39
331.373
331.358
331.345
331.334
331.324
331.317
331.312
331.308
331.307
331.307
331.309
395.021
385.989
378.615
372.82
368.279
364.668
361.734
359.291
357.211
355.403
353.803
352.367
351.06
349.857
348.742
347.698
346.716
345.787
344.905
344.063
343.258
342.485
341.743
341.029
340.34
339.676
339.034
338.413
337.813
337.232
336.67
336.126
335.6
335.09
334.597
334.12
333.658
333.212
332.78
332.363
331.96
331.571
331.195
330.832
330.483
330.146
329.822
329.509
329.209
328.92
328.642
328.376
328.12
327.875
327.64
327.415
327.199
326.993
326.797
326.609
326.429
326.258
326.096
325.941
325.793
325.653
325.52
325.394
325.275
325.162
325.055
324.954
324.859
324.77
324.686
324.606
324.532
324.463
324.398
324.338
324.281
324.229
324.181
324.136
324.096
324.058
324.025
323.994
323.967
323.942
323.921
323.902
323.887
323.874
323.864
323.857
323.852
323.85
323.85
323.853
396.013
388.436
381.768
376.12
371.403
367.457
364.122
361.263
358.776
356.579
354.612
352.829
351.195
349.685
348.277
346.956
345.71
344.529
343.405
342.332
341.304
340.317
339.368
338.454
337.573
336.722
335.899
335.104
334.335
333.59
332.87
332.172
331.497
330.843
330.21
329.598
329.006
328.433
327.879
327.343
326.826
326.326
325.844
325.378
324.93
324.497
324.081
323.68
323.294
322.923
322.567
322.224
321.896
321.581
321.279
320.99
320.714
320.449
320.196
319.955
319.725
319.505
319.296
319.097
318.908
318.728
318.557
318.396
318.242
318.097
317.96
317.831
317.708
317.593
317.485
317.384
317.288
317.199
317.116
317.038
316.966
316.899
316.837
316.78
316.728
316.68
316.636
316.597
316.562
316.53
316.503
316.479
316.459
316.443
316.43
316.42
316.414
316.411
316.412
316.416
396.594
389.981
383.903
378.495
373.762
369.64
366.041
362.874
360.061
357.537
355.249
353.154
351.222
349.424
347.741
346.157
344.658
343.233
341.875
340.576
339.331
338.134
336.982
335.872
334.8
333.765
332.764
331.796
330.86
329.953
329.075
328.225
327.402
326.606
325.834
325.088
324.365
323.666
322.991
322.338
321.707
321.097
320.509
319.941
319.394
318.866
318.358
317.869
317.398
316.945
316.511
316.093
315.692
315.308
314.939
314.587
314.249
313.926
313.618
313.323
313.042
312.774
312.519
312.276
312.045
311.826
311.618
311.42
311.233
311.056
310.888
310.73
310.581
310.441
310.309
310.185
310.069
309.96
309.858
309.763
309.675
309.593
309.518
309.448
309.384
309.326
309.272
309.224
309.181
309.143
309.11
309.081
309.056
309.036
309.021
309.009
309.001
308.998
308.999
309.003
396.963
390.999
385.373
380.198
375.516
371.31
367.536
364.141
361.07
358.272
355.706
353.335
351.13
349.068
347.128
345.294
343.553
341.895
340.311
338.793
337.336
335.934
334.583
333.28
332.022
330.805
329.629
328.491
327.389
326.322
325.288
324.287
323.318
322.379
321.471
320.591
319.74
318.916
318.12
317.35
316.606
315.887
315.193
314.524
313.879
313.256
312.657
312.08
311.525
310.991
310.478
309.986
309.513
309.059
308.625
308.209
307.811
307.43
307.066
306.718
306.387
306.071
305.77
305.483
305.211
304.952
304.706
304.473
304.252
304.043
303.846
303.659
303.483
303.318
303.162
303.015
302.878
302.75
302.63
302.518
302.414
302.317
302.228
302.146
302.07
302.001
301.939
301.882
301.831
301.786
301.747
301.713
301.684
301.66
301.641
301.628
301.619
301.615
301.615
301.621
397.207
391.688
386.394
381.416
376.8
372.556
368.665
365.098
361.819
358.792
355.985
353.369
350.918
348.611
346.431
344.362
342.392
340.511
338.709
336.98
335.317
333.715
332.17
330.679
329.237
327.843
326.494
325.188
323.923
322.697
321.51
320.36
319.246
318.167
317.122
316.111
315.132
314.184
313.268
312.382
311.526
310.7
309.901
309.131
308.388
307.672
306.982
306.318
305.679
305.064
304.474
303.907
303.362
302.84
302.34
301.861
301.403
300.964
300.545
300.145
299.763
299.399
299.052
298.722
298.409
298.11
297.827
297.559
297.305
297.064
296.837
296.622
296.419
296.229
296.049
295.881
295.722
295.575
295.436
295.307
295.188
295.076
294.974
294.879
294.792
294.712
294.64
294.575
294.516
294.465
294.419
294.38
294.346
294.319
294.298
294.282
294.271
294.267
294.268
294.274
397.373
392.16
387.105
382.278
377.723
373.458
369.483
365.781
362.331
359.111
356.094
353.259
350.585
348.054
345.65
343.361
341.173
339.078
337.068
335.135
333.273
331.478
329.744
328.068
326.447
324.879
323.36
321.889
320.463
319.082
317.743
316.446
315.189
313.971
312.792
311.65
310.544
309.474
308.44
307.439
306.472
305.538
304.636
303.765
302.926
302.117
301.337
300.586
299.864
299.169
298.502
297.861
297.245
296.655
296.09
295.548
295.03
294.534
294.06
293.608
293.176
292.764
292.372
291.999
291.644
291.307
290.987
290.684
290.396
290.124
289.867
289.624
289.395
289.179
288.976
288.785
288.607
288.439
288.283
288.137
288.002
287.876
287.76
287.652
287.554
287.464
287.382
287.308
287.242
287.184
287.132
287.088
287.05
287.019
286.994
286.977
286.965
286.96
286.96
286.967
397.486
392.481
387.594
382.875
378.365
374.085
370.041
366.228
362.634
359.246
356.044
353.013
350.136
347.398
344.786
342.289
339.896
337.598
335.388
333.259
331.205
329.221
327.303
325.448
323.652
321.913
320.228
318.594
317.011
315.476
313.989
312.546
311.148
309.794
308.482
307.211
305.98
304.789
303.637
302.523
301.446
300.405
299.401
298.431
297.496
296.594
295.725
294.889
294.084
293.31
292.566
291.852
291.166
290.508
289.878
289.274
288.696
288.144
287.615
287.111
286.63
286.171
285.734
285.318
284.922
284.547
284.19
283.851
283.531
283.227
282.941
282.67
282.414
282.174
281.947
281.735
281.535
281.349
281.174
281.012
280.861
280.721
280.591
280.471
280.362
280.261
280.17
280.088
280.014
279.948
279.891
279.841
279.799
279.765
279.737
279.717
279.704
279.698
279.699
279.707
397.56
392.696
387.92
383.273
378.789
374.489
370.383
366.473
362.754
359.216
355.849
352.64
349.577
346.648
343.842
341.15
338.562
336.071
333.669
331.351
329.112
326.946
324.85
322.82
320.853
318.947
317.099
315.307
313.569
311.883
310.249
308.663
307.127
305.637
304.194
302.796
301.442
300.131
298.863
297.636
296.451
295.305
294.199
293.131
292.101
291.108
290.151
289.23
288.343
287.49
286.671
285.884
285.128
284.403
283.709
283.044
282.407
281.798
281.216
280.66
280.13
279.624
279.142
278.684
278.248
277.833
277.44
277.067
276.714
276.379
276.063
275.764
275.483
275.218
274.968
274.734
274.514
274.308
274.116
273.937
273.77
273.616
273.473
273.341
273.22
273.109
273.009
272.918
272.836
272.764
272.701
272.646
272.599
272.561
272.531
272.509
272.494
272.488
272.489
272.497
397.608
392.83
388.123
383.517
379.04
374.713
370.548
366.548
362.715
359.042
355.524
352.152
348.917
345.81
342.822
339.946
337.173
334.497
331.913
329.413
326.995
324.653
322.384
320.184
318.051
315.982
313.975
312.027
310.138
308.304
306.525
304.8
303.126
301.504
299.931
298.408
296.932
295.503
294.121
292.783
291.49
290.241
289.034
287.869
286.746
285.662
284.618
283.613
282.645
281.714
280.82
279.961
279.136
278.345
277.587
276.861
276.165
275.501
274.865
274.258
273.679
273.127
272.601
272.101
271.625
271.172
270.743
270.335
269.949
269.584
269.239
268.913
268.605
268.316
268.043
267.787
267.547
267.322
267.113
266.917
266.735
266.566
266.41
266.266
266.133
266.013
265.903
265.803
265.714
265.635
265.566
265.506
265.455
265.414
265.381
265.356
265.341
265.333
265.334
265.343
397.634
392.906
388.233
383.642
379.156
374.792
370.565
366.48
362.539
358.741
355.084
351.56
348.165
344.891
341.732
338.681
335.733
332.882
330.121
327.448
324.857
322.345
319.908
317.543
315.248
313.02
310.857
308.758
306.719
304.741
302.82
300.957
299.149
297.396
295.697
294.05
292.454
290.909
289.413
287.967
286.568
285.216
283.91
282.649
281.433
280.26
279.13
278.041
276.994
275.986
275.017
274.087
273.194
272.337
271.516
270.729
269.976
269.256
268.568
267.911
267.283
266.685
266.116
265.573
265.057
264.567
264.102
263.661
263.243
262.847
262.473
262.12
261.786
261.472
261.177
260.9
260.64
260.396
260.169
259.957
259.759
259.576
259.407
259.251
259.107
258.976
258.857
258.75
258.653
258.567
258.492
258.427
258.372
258.327
258.291
258.265
258.247
258.239
258.24
258.25
397.645
392.934
388.271
383.673
379.162
374.754
370.461
366.29
362.247
358.331
354.542
350.876
347.33
343.899
340.578
337.362
334.246
331.226
328.298
325.457
322.699
320.022
317.423
314.898
312.445
310.063
307.748
305.5
303.316
301.196
299.136
297.138
295.198
293.317
291.492
289.724
288.01
286.35
284.744
283.189
281.686
280.233
278.829
277.474
276.166
274.905
273.689
272.519
271.392
270.308
269.267
268.266
267.305
266.384
265.5
264.654
263.844
263.069
262.328
261.621
260.946
260.303
259.69
259.106
258.551
258.023
257.523
257.048
256.598
256.172
255.769
255.389
255.03
254.692
254.375
254.076
253.796
253.534
253.289
253.061
252.848
252.651
252.469
252.301
252.146
252.005
251.877
251.761
251.657
251.565
251.484
251.414
251.354
251.305
251.267
251.238
251.22
251.211
251.212
251.222
397.643
392.927
388.251
383.629
379.08
374.619
370.256
366
361.856
357.826
353.911
350.11
346.421
342.841
339.366
335.992
332.717
329.536
326.445
323.443
320.525
317.689
314.931
312.251
309.645
307.112
304.65
302.256
299.93
297.671
295.476
293.345
291.276
289.268
287.321
285.433
283.603
281.831
280.115
278.454
276.848
275.295
273.795
272.346
270.948
269.6
268.301
267.049
265.845
264.686
263.572
262.501
261.474
260.488
259.543
258.638
257.772
256.943
256.151
255.394
254.672
253.983
253.327
252.703
252.109
251.545
251.009
250.501
250.019
249.563
249.133
248.726
248.342
247.98
247.64
247.32
247.021
246.74
246.478
246.233
246.006
245.795
245.6
245.42
245.255
245.103
244.966
244.842
244.731
244.632
244.545
244.47
244.406
244.354
244.312
244.282
244.262
244.252
244.253
244.264
397.632
392.892
388.186
383.526
378.928
374.405
369.968
365.624
361.381
357.24
353.205
349.274
345.448
341.725
338.103
334.578
331.149
327.814
324.568
321.41
318.337
315.346
312.436
309.605
306.85
304.17
301.564
299.029
296.564
294.168
291.841
289.579
287.384
285.253
283.185
281.18
279.236
277.353
275.529
273.764
272.056
270.405
268.81
267.27
265.783
264.349
262.967
261.636
260.354
259.121
257.936
256.797
255.704
254.655
253.649
252.686
251.764
250.881
250.038
249.233
248.464
247.731
247.033
246.368
245.736
245.135
244.565
244.024
243.511
243.026
242.567
242.133
241.725
241.34
240.977
240.637
240.318
240.019
239.74
239.479
239.237
239.013
238.805
238.613
238.437
238.276
238.129
237.997
237.878
237.773
237.68
237.6
237.532
237.477
237.432
237.4
237.378
237.368
237.369
237.38
397.613
392.834
388.084
383.374
378.718
374.126
369.611
365.178
360.835
356.586
352.433
348.377
344.419
340.559
336.795
333.126
329.55
326.065
322.669
319.361
316.138
312.998
309.94
306.962
304.062
301.24
298.493
295.82
293.219
290.691
288.233
285.845
283.525
281.273
279.087
276.967
274.911
272.919
270.989
269.122
267.315
265.567
263.879
262.248
260.674
259.156
257.692
256.282
254.925
253.619
252.363
251.157
249.998
248.887
247.822
246.801
245.824
244.889
243.995
243.142
242.327
241.55
240.81
240.106
239.436
238.799
238.194
237.621
237.077
236.563
236.076
235.617
235.184
234.775
234.391
234.03
233.692
233.375
233.079
232.803
232.546
232.308
232.087
231.884
231.697
231.526
231.371
231.231
231.105
230.993
230.894
230.809
230.737
230.678
230.631
230.596
230.573
230.562
230.563
230.575
397.588
392.757
387.953
383.183
378.461
373.795
369.197
364.674
360.231
355.874
351.606
347.428
343.343
339.35
335.449
331.64
327.922
324.294
320.753
317.3
313.931
310.647
307.446
304.325
301.285
298.323
295.439
292.631
289.899
287.241
284.656
282.143
279.702
277.331
275.03
272.797
270.631
268.532
266.499
264.53
262.626
260.783
259.003
257.283
255.623
254.022
252.478
250.991
249.559
248.181
246.856
245.583
244.361
243.188
242.064
240.986
239.955
238.968
238.025
237.124
236.264
235.444
234.663
233.919
233.212
232.539
231.901
231.295
230.722
230.178
229.665
229.18
228.722
228.291
227.885
227.504
227.147
226.812
226.499
226.208
225.936
225.685
225.452
225.237
225.039
224.859
224.695
224.546
224.413
224.295
224.191
224.101
224.025
223.962
223.912
223.875
223.851
223.839
223.839
223.852
397.558
392.666
387.798
382.961
378.165
373.421
368.737
364.12
359.578
355.114
350.732
346.435
342.226
338.105
334.072
330.128
326.272
322.504
318.824
315.23
311.721
308.297
304.956
301.697
298.52
295.423
292.406
289.467
286.605
283.821
281.112
278.478
275.917
273.43
271.015
268.672
266.399
264.195
262.06
259.993
257.992
256.057
254.186
252.379
250.635
248.952
247.329
245.765
244.26
242.811
241.418
240.08
238.795
237.561
236.379
235.246
234.161
233.123
232.131
231.184
230.279
229.417
228.595
227.812
227.068
226.361
225.689
225.052
224.448
223.876
223.336
222.826
222.344
221.89
221.463
221.062
220.686
220.334
220.005
219.698
219.412
219.147
218.902
218.676
218.468
218.278
218.105
217.949
217.808
217.684
217.574
217.479
217.399
217.333
217.28
217.241
217.215
217.202
217.203
217.216
397.524
392.563
387.624
382.713
377.839
373.011
368.238
363.527
358.883
354.313
349.82
345.406
341.076
336.829
332.668
328.593
324.604
320.702
316.886
313.155
309.51
305.95
302.474
299.081
295.771
292.542
289.395
286.328
283.341
280.433
277.602
274.85
272.173
269.573
267.047
264.595
262.217
259.91
257.675
255.511
253.416
251.39
249.43
247.538
245.71
243.947
242.247
240.609
239.031
237.513
236.053
234.65
233.303
232.01
230.771
229.583
228.446
227.358
226.318
225.324
224.376
223.471
222.609
221.789
221.008
220.266
219.562
218.893
218.26
217.661
217.094
216.558
216.053
215.577
215.129
214.708
214.314
213.944
213.599
213.277
212.977
212.699
212.441
212.204
211.986
211.786
211.605
211.441
211.293
211.163
211.047
210.948
210.863
210.793
210.738
210.697
210.67
210.656
210.656
210.67
397.486
392.45
387.435
382.444
377.487
372.572
367.708
362.901
358.156
353.48
348.876
344.348
339.898
335.53
331.244
327.041
322.923
318.89
314.942
311.08
307.303
303.61
300.002
296.479
293.039
289.683
286.409
283.218
280.108
277.079
274.131
271.262
268.472
265.76
263.126
260.569
258.087
255.68
253.348
251.088
248.901
246.785
244.739
242.762
240.853
239.011
237.235
235.523
233.875
232.289
230.763
229.297
227.889
226.538
225.242
224
222.811
221.674
220.587
219.548
218.556
217.61
216.709
215.851
215.035
214.259
213.522
212.823
212.161
211.534
210.941
210.381
209.852
209.355
208.886
208.446
208.033
207.646
207.285
206.948
206.634
206.343
206.074
205.825
205.597
205.388
205.198
205.026
204.872
204.735
204.615
204.51
204.422
204.348
204.29
204.247
204.218
204.204
204.204
204.217
397.446
392.33
387.233
382.158
377.115
372.111
367.153
362.248
357.402
352.62
347.907
343.266
338.7
334.212
329.804
325.477
321.234
317.074
312.998
309.007
305.101
301.28
297.545
293.894
290.329
286.848
283.451
280.138
276.909
273.763
270.699
267.717
264.816
261.996
259.256
256.595
254.012
251.507
249.079
246.726
244.449
242.245
240.114
238.055
236.066
234.147
232.296
230.513
228.795
227.141
225.551
224.023
222.555
221.146
219.796
218.501
217.261
216.075
214.941
213.858
212.824
211.838
210.898
210.003
209.152
208.342
207.574
206.845
206.154
205.5
204.881
204.297
203.746
203.226
202.737
202.278
201.847
201.444
201.067
200.715
200.388
200.084
199.803
199.543
199.305
199.087
198.888
198.709
198.548
198.405
198.279
198.17
198.077
198
197.939
197.894
197.864
197.849
197.848
197.862
397.404
392.204
387.021
381.86
376.727
371.631
366.578
361.575
356.627
351.74
346.918
342.166
337.485
332.881
328.353
323.906
319.539
315.256
311.056
306.94
302.909
298.964
295.104
291.33
287.642
284.04
280.523
277.092
273.746
270.485
267.309
264.217
261.208
258.282
255.438
252.676
249.995
247.393
244.872
242.428
240.062
237.772
235.558
233.418
231.352
229.357
227.433
225.579
223.792
222.073
220.42
218.831
217.304
215.839
214.434
213.088
211.799
210.565
209.385
208.258
207.182
206.156
205.178
204.247
203.361
202.519
201.72
200.961
200.242
199.561
198.918
198.31
197.736
197.195
196.686
196.208
195.76
195.34
194.947
194.581
194.24
193.924
193.631
193.361
193.112
192.885
192.679
192.492
192.324
192.175
192.043
191.929
191.833
191.753
191.689
191.642
191.61
191.594
191.593
191.607
397.361
392.073
386.802
381.551
376.327
371.137
365.987
360.885
355.836
350.844
345.915
341.052
336.26
331.54
326.896
322.331
317.845
313.441
309.119
304.882
300.73
296.663
292.682
288.788
284.981
281.261
277.628
274.082
270.622
267.25
263.964
260.764
257.649
254.62
251.675
248.814
246.037
243.341
240.728
238.196
235.743
233.369
231.074
228.855
226.711
224.643
222.647
220.724
218.871
217.087
215.372
213.723
212.139
210.619
209.161
207.763
206.425
205.145
203.92
202.751
201.634
200.569
199.553
198.587
197.667
196.793
195.962
195.175
194.428
193.721
193.053
192.421
191.825
191.264
190.736
190.239
189.773
189.337
188.929
188.549
188.194
187.866
187.561
187.281
187.023
186.787
186.572
186.377
186.203
186.048
185.911
185.792
185.692
185.608
185.542
185.492
185.459
185.442
185.441
185.456
397.316
391.938
386.577
381.234
375.917
370.632
365.385
360.184
355.033
349.937
344.902
339.93
335.027
330.195
325.437
320.756
316.153
311.632
307.192
302.837
298.566
294.381
290.283
286.272
282.349
278.514
274.767
271.109
267.539
264.058
260.665
257.36
254.142
251.012
247.969
245.012
242.14
239.353
236.651
234.031
231.494
229.038
226.663
224.367
222.148
220.007
217.942
215.95
214.032
212.186
210.409
208.702
207.062
205.487
203.977
202.53
201.144
199.818
198.549
197.338
196.181
195.077
194.025
193.024
192.071
191.165
190.305
189.488
188.715
187.982
187.29
186.635
186.017
185.435
184.888
184.373
183.89
183.438
183.015
182.621
182.253
181.913
181.597
181.306
181.038
180.793
180.571
180.369
180.188
180.026
179.885
179.762
179.657
179.57
179.501
179.45
179.415
179.397
179.396
179.41
397.27
391.801
386.347
380.911
375.5
370.119
364.775
359.474
354.222
349.023
343.882
338.804
333.791
328.849
323.979
319.185
314.469
309.832
305.278
300.807
296.421
292.122
287.909
283.784
279.748
275.802
271.944
268.177
264.499
260.912
257.415
254.007
250.69
247.461
244.322
241.27
238.307
235.431
232.641
229.936
227.317
224.781
222.327
219.956
217.664
215.452
213.318
211.261
209.279
207.37
205.535
203.77
202.075
200.447
198.886
197.39
195.957
194.586
193.275
192.022
190.826
189.684
188.597
187.561
186.575
185.639
184.749
183.905
183.105
182.347
181.63
180.953
180.314
179.712
179.146
178.613
178.113
177.645
177.208
176.8
176.42
176.067
175.74
175.439
175.162
174.908
174.678
174.469
174.281
174.114
173.967
173.839
173.731
173.641
173.569
173.515
173.479
173.46
173.459
173.474
397.224
391.662
386.115
380.585
375.078
369.601
364.159
358.759
353.406
348.105
342.86
337.676
332.556
327.505
322.526
317.621
312.794
308.046
303.379
298.796
294.298
289.886
285.562
281.327
277.181
273.125
269.161
265.287
261.505
257.814
254.216
250.708
247.293
243.969
240.735
237.592
234.539
231.576
228.701
225.914
223.213
220.599
218.069
215.624
213.261
210.98
208.779
206.657
204.612
202.644
200.75
198.929
197.18
195.5
193.89
192.346
190.867
189.452
188.098
186.805
185.57
184.392
183.27
182.2
181.183
180.216
179.297
178.426
177.599
176.817
176.077
175.378
174.718
174.096
173.511
172.961
172.445
171.962
171.51
171.088
170.695
170.331
169.993
169.682
169.396
169.134
168.895
168.679
168.485
168.312
168.16
168.028
167.916
167.823
167.748
167.692
167.654
167.635
167.633
167.648
397.177
391.521
385.88
380.256
374.654
369.08
363.541
358.042
352.589
347.186
341.838
336.55
331.325
326.168
321.081
316.068
311.132
306.274
301.498
296.806
292.199
287.678
283.245
278.902
274.65
270.488
266.418
262.441
258.557
254.766
251.069
247.465
243.954
240.536
237.212
233.979
230.839
227.79
224.832
221.964
219.185
216.494
213.891
211.373
208.941
206.592
204.325
202.14
200.034
198.007
196.056
194.181
192.379
190.649
188.99
187.399
185.875
184.417
183.022
181.69
180.417
179.203
178.046
176.944
175.896
174.899
173.952
173.053
172.202
171.395
170.632
169.912
169.231
168.59
167.987
167.42
166.887
166.389
165.923
165.488
165.083
164.707
164.359
164.037
163.742
163.472
163.225
163.002
162.802
162.624
162.466
162.33
162.214
162.117
162.04
161.982
161.943
161.922
161.92
161.935
397.13
391.38
385.645
379.926
374.228
368.559
362.922
357.325
351.772
346.269
340.819
335.429
330.1
324.838
319.647
314.528
309.485
304.521
299.639
294.839
290.125
285.499
280.961
276.513
272.156
267.891
263.72
259.642
255.659
251.77
247.976
244.278
240.674
237.166
233.752
230.433
227.208
224.076
221.037
218.09
215.234
212.469
209.793
207.205
204.705
202.29
199.96
197.713
195.547
193.462
191.456
189.527
187.674
185.894
184.187
182.551
180.984
179.483
178.048
176.677
175.368
174.119
172.928
171.794
170.715
169.689
168.714
167.79
166.913
166.083
165.298
164.556
163.855
163.195
162.574
161.99
161.442
160.929
160.449
160.001
159.584
159.197
158.838
158.507
158.203
157.924
157.67
157.44
157.234
157.05
156.888
156.747
156.627
156.527
156.448
156.388
156.347
156.325
156.322
156.337
397.083
391.239
385.41
379.596
373.803
368.038
362.305
356.61
350.959
345.356
339.807
334.315
328.885
323.521
318.226
313.003
307.857
302.789
297.802
292.899
288.081
283.351
278.71
274.16
269.702
265.337
261.066
256.891
252.811
248.827
244.94
241.149
237.456
233.859
230.358
226.954
223.646
220.434
217.316
214.293
211.362
208.524
205.778
203.122
200.555
198.075
195.683
193.376
191.152
189.011
186.951
184.97
183.066
181.238
179.485
177.804
176.194
174.652
173.178
171.769
170.424
169.141
167.917
166.752
165.643
164.588
163.587
162.636
161.735
160.882
160.075
159.312
158.592
157.914
157.275
156.675
156.111
155.583
155.09
154.629
154.2
153.802
153.433
153.093
152.779
152.493
152.231
151.995
151.782
151.593
151.426
151.281
151.157
151.054
150.972
150.91
150.867
150.845
150.841
150.856
397.037
391.099
385.176
379.268
373.38
367.519
361.691
355.9
350.151
344.45
338.802
333.211
327.681
322.216
316.82
311.497
306.249
301.079
295.991
290.986
286.067
281.236
276.495
271.846
267.289
262.827
258.46
254.189
250.015
245.939
241.961
238.081
234.299
230.617
227.032
223.546
220.157
216.866
213.671
210.573
207.57
204.661
201.846
199.123
196.492
193.95
191.497
189.131
186.851
184.655
182.542
180.51
178.557
176.682
174.883
173.159
171.507
169.925
168.413
166.967
165.587
164.27
163.014
161.818
160.68
159.598
158.57
157.595
156.67
155.794
154.965
154.182
153.443
152.747
152.091
151.475
150.896
150.354
149.847
149.374
148.933
148.524
148.145
147.795
147.474
147.179
146.911
146.667
146.449
146.254
146.082
145.933
145.806
145.7
145.615
145.55
145.507
145.483
145.479
145.494
396.99
390.959
384.943
378.941
372.96
367.005
361.081
355.195
349.35
343.553
337.808
332.119
326.491
320.928
315.433
310.01
304.663
299.394
294.207
289.103
284.086
279.157
274.319
269.573
264.92
260.363
255.902
251.539
247.274
243.108
239.041
235.074
231.207
227.441
223.774
220.208
216.741
213.373
210.104
206.933
203.859
200.882
197.999
195.212
192.517
189.914
187.402
184.979
182.644
180.394
178.23
176.148
174.148
172.227
170.384
168.617
166.924
165.304
163.754
162.273
160.858
159.508
158.221
156.995
155.829
154.72
153.666
152.666
151.718
150.82
149.97
149.168
148.41
147.696
147.023
146.391
145.798
145.242
144.722
144.237
143.785
143.365
142.976
142.617
142.287
141.985
141.709
141.459
141.235
141.035
140.858
140.705
140.574
140.465
140.377
140.311
140.265
140.241
140.236
140.251
396.944
390.821
384.712
378.618
372.544
366.495
360.478
354.497
348.558
342.666
336.825
331.041
325.317
319.657
314.065
308.546
303.102
297.736
292.452
287.252
282.139
277.115
272.182
267.341
262.596
257.947
253.395
248.941
244.588
240.334
236.181
232.13
228.18
224.332
220.586
216.942
213.398
209.956
206.615
203.373
200.23
197.186
194.239
191.388
188.632
185.97
183.4
180.921
178.532
176.231
174.016
171.887
169.84
167.874
165.988
164.18
162.447
160.789
159.202
157.686
156.238
154.856
153.539
152.284
151.09
149.954
148.875
147.851
146.88
145.961
145.091
144.269
143.493
142.761
142.073
141.425
140.817
140.248
139.715
139.218
138.755
138.325
137.927
137.559
137.22
136.91
136.628
136.372
136.141
135.936
135.755
135.597
135.463
135.351
135.261
135.192
135.145
135.119
135.114
135.129
396.898
390.684
384.484
378.298
372.132
365.991
359.882
353.808
347.776
341.791
335.857
329.978
324.159
318.405
312.719
307.105
301.566
296.106
290.728
285.434
280.228
275.111
270.086
265.154
260.318
255.579
250.938
246.398
241.958
237.619
233.383
229.249
225.219
221.292
217.469
213.748
210.131
206.617
203.205
199.894
196.685
193.575
190.565
187.652
184.837
182.117
179.491
176.959
174.517
172.166
169.902
167.725
165.633
163.624
161.696
159.848
158.077
156.381
154.759
153.209
151.728
150.315
148.968
147.685
146.463
145.302
144.199
143.151
142.159
141.218
140.328
139.487
138.693
137.945
137.24
136.578
135.956
135.373
134.828
134.32
133.846
133.405
132.998
132.621
132.274
131.957
131.667
131.405
131.169
130.959
130.773
130.611
130.473
130.358
130.266
130.195
130.147
130.12
130.114
130.129
396.853
390.549
384.258
377.982
371.726
365.494
359.294
353.129
347.006
340.929
334.902
328.932
323.021
317.174
311.396
305.69
300.059
294.507
289.037
283.651
278.354
273.147
268.032
263.011
258.087
253.261
248.535
243.909
239.385
234.964
230.647
226.434
222.325
218.322
214.423
210.629
206.94
203.356
199.875
196.498
193.223
190.05
186.979
184.006
181.133
178.357
175.677
173.092
170.599
168.199
165.888
163.665
161.529
159.478
157.509
155.621
153.813
152.081
150.425
148.841
147.329
145.886
144.51
143.199
141.951
140.764
139.637
138.567
137.553
136.592
135.683
134.823
134.012
133.247
132.527
131.85
131.214
130.619
130.062
129.541
129.057
128.607
128.19
127.805
127.45
127.125
126.829
126.561
126.319
126.104
125.914
125.748
125.607
125.489
125.394
125.321
125.271
125.243
125.236
125.251
396.809
390.416
384.036
377.671
371.326
365.005
358.715
352.461
346.248
340.081
333.964
327.904
321.903
315.966
310.097
304.301
298.58
292.938
287.379
281.905
276.519
271.224
266.022
260.915
255.905
250.995
246.185
241.476
236.871
232.37
227.974
223.684
219.499
215.421
211.45
207.585
203.826
200.173
196.626
193.184
189.846
186.612
183.48
180.45
177.521
174.69
171.957
169.321
166.779
164.331
161.974
159.707
157.528
155.436
153.427
151.502
149.656
147.89
146.199
144.584
143.041
141.568
140.164
138.826
137.553
136.342
135.191
134.099
133.064
132.083
131.155
130.277
129.449
128.668
127.933
127.242
126.593
125.985
125.416
124.885
124.39
123.93
123.504
123.11
122.748
122.416
122.113
121.839
121.592
121.372
121.177
121.008
120.863
120.742
120.644
120.57
120.518
120.489
120.482
120.496
396.765
390.285
383.818
377.365
370.932
364.524
358.146
351.804
345.503
339.248
333.044
326.895
320.806
314.781
308.824
302.94
297.131
291.402
285.756
280.195
274.723
269.343
264.056
258.865
253.773
248.78
243.889
239.101
234.417
229.838
225.366
221
216.742
212.592
208.549
204.615
200.789
197.07
193.458
189.953
186.554
183.261
180.071
176.985
174.001
171.117
168.333
165.647
163.057
160.563
158.161
155.851
153.631
151.498
149.451
147.488
145.608
143.807
142.084
140.437
138.864
137.363
135.931
134.567
133.269
132.034
130.861
129.748
128.692
127.691
126.745
125.85
125.006
124.209
123.459
122.754
122.092
121.471
120.891
120.349
119.844
119.375
118.94
118.538
118.168
117.83
117.52
117.24
116.988
116.763
116.564
116.391
116.242
116.118
116.018
115.942
115.889
115.858
115.85
115.864
396.722
390.156
383.603
377.065
370.546
364.052
357.588
351.16
344.773
338.432
332.141
325.906
319.731
313.62
307.577
301.607
295.713
289.899
284.168