/*--------------------------------*- C++ -*----------------------------------*\
| =========                 |                                                 |
| \\      /  F ield         | OpenFOAM: The Open Source CFD Toolbox           |
|  \\    /   O peration     | Version:  2406                                  |
|   \\  /    A nd           | Website:  www.openfoam.com                      |
|    \\/     M anipulation  |                                                 |
\*---------------------------------------------------------------------------*/
FoamFile
{
    version     2.0;
    format      ascii;
    arch        "LSB;label=32;scalar=64";
    class       volScalarField;
    location    "23";
    object      p;
}
// * * * * * * * * * * * * * * * * * * * * * * * * * * * * * * * * * * * * * //

dimensions      [0 2 -2 0 0 0 0];

internalField   nonuniform List<scalar> 
1176
(
0.79699977
0.79702264
0.79704631
0.79705397
0.79702244
0.79692775
0.79677052
0.79658435
0.79640515
0.796238
0.79608337
0.79598777
0.79598777
0.79608338
0.79623801
0.79640518
0.79658441
0.79677062
0.79692792
0.79702271
0.79705435
0.7970468
0.79702323
0.79700043
0.77385134
0.77380438
0.77375663
0.77373973
0.77380223
0.77400459
0.77436991
0.77483431
0.77526517
0.77555127
0.77567067
0.77570493
0.77570492
0.77567065
0.77555125
0.77526513
0.77483425
0.77436983
0.7740045
0.77380212
0.77373959
0.77375646
0.77380419
0.77385113
0.75676659
0.7567886
0.75680839
0.75680648
0.75674742
0.75658625
0.75631448
0.75598653
0.75568032
0.75546753
0.75535673
0.75530791
0.75530791
0.75535673
0.75546753
0.75568031
0.75598653
0.75631448
0.75658625
0.75674743
0.75680649
0.7568084
0.7567886
0.75676658
0.74009469
0.74010382
0.74011588
0.74013228
0.74015482
0.74017239
0.74014016
0.74000675
0.73977464
0.73950207
0.73927787
0.73915737
0.73915737
0.73927786
0.73950207
0.73977463
0.74000674
0.74014015
0.74017239
0.74015482
0.74013227
0.74011587
0.74010381
0.74009469
0.72367564
0.7236796
0.72368459
0.72369065
0.72370035
0.72372063
0.72375681
0.72379832
0.72381999
0.72379612
0.72373401
0.72368138
0.72368138
0.72373401
0.72379613
0.72382
0.72379833
0.72375681
0.72372062
0.72370034
0.72369063
0.72368455
0.72367955
0.72367559
0.70721399
0.7072164
0.70721965
0.70722369
0.7072286
0.70723543
0.7072496
0.70728092
0.70733091
0.70738816
0.70743087
0.70744752
0.70744752
0.70743087
0.70738816
0.70733091
0.70728093
0.70724961
0.70723543
0.70722859
0.70722368
0.70721962
0.70721637
0.70721396
0.69080818
0.69081032
0.69081313
0.69081655
0.69082045
0.69082397
0.69082603
0.69082821
0.69083676
0.69085399
0.69087189
0.69088361
0.69088361
0.69087189
0.690854
0.69083677
0.69082822
0.69082604
0.69082397
0.69082045
0.69081654
0.69081311
0.69081029
0.69080815
0.67442831
0.67443007
0.6744324
0.67443532
0.67443899
0.67444336
0.67444782
0.67445097
0.67445221
0.67445383
0.67445087
0.67444836
0.67444836
0.67445087
0.67445383
0.67445222
0.67445098
0.67444782
0.67444336
0.67443899
0.67443531
0.67443238
0.67443005
0.67442829
0.65807403
0.65807548
0.65807741
0.65807982
0.65808284
0.65808663
0.65809167
0.65809872
0.65810741
0.65811743
0.6581252
0.65812879
0.65812879
0.6581252
0.65811744
0.65810741
0.65809873
0.65809168
0.65808663
0.65808283
0.65807981
0.65807739
0.65807546
0.658074
0.64173634
0.64173754
0.64173915
0.64174118
0.64174375
0.64174693
0.64175109
0.64175748
0.64176764
0.64178078
0.6417951
0.6418044
0.6418044
0.6417951
0.64178078
0.64176764
0.64175749
0.64175109
0.64174693
0.64174374
0.64174117
0.64173913
0.64173752
0.64173631
0.62541196
0.62541299
0.62541436
0.62541611
0.62541832
0.62542105
0.62542444
0.62542929
0.62543715
0.62544781
0.62546037
0.62546951
0.62546951
0.62546037
0.62544782
0.62543716
0.62542929
0.62542444
0.62542104
0.62541831
0.62541609
0.62541434
0.62541297
0.62541194
0.60909848
0.60909938
0.60910058
0.6091021
0.60910404
0.60910644
0.6091094
0.60911341
0.60911963
0.60912829
0.60913886
0.6091463
0.6091463
0.60913886
0.6091283
0.60911964
0.60911342
0.60910941
0.60910644
0.60910404
0.60910209
0.60910056
0.60909936
0.60909847
0.59279429
0.59279508
0.59279614
0.59279748
0.5927992
0.59280133
0.59280397
0.59280751
0.59281291
0.59282066
0.59283035
0.59283702
0.59283702
0.59283035
0.59282066
0.59281291
0.59280751
0.59280397
0.59280133
0.5927992
0.59279748
0.59279613
0.59279507
0.59279428
0.57649807
0.57649877
0.57649971
0.57650092
0.57650245
0.57650436
0.57650671
0.57650984
0.57651461
0.57652159
0.57653025
0.57653634
0.57653634
0.57653025
0.57652159
0.57651462
0.57650984
0.57650671
0.57650436
0.57650245
0.57650092
0.57649971
0.57649877
0.57649807
0.5602088
0.56020943
0.56021028
0.56021136
0.56021274
0.56021446
0.56021656
0.56021932
0.56022348
0.56022961
0.56023714
0.56024254
0.56024254
0.56023714
0.56022961
0.56022348
0.56021932
0.56021656
0.56021446
0.56021275
0.56021137
0.56021029
0.56020945
0.56020882
0.54392568
0.54392625
0.54392701
0.54392799
0.54392925
0.5439308
0.5439327
0.54393515
0.54393879
0.54394417
0.5439507
0.54395549
0.54395549
0.5439507
0.54394417
0.54393879
0.54393515
0.5439327
0.54393081
0.54392926
0.54392801
0.54392704
0.54392628
0.54392571
0.52764805
0.52764857
0.52764927
0.52765016
0.5276513
0.52765272
0.52765444
0.52765665
0.52765987
0.52766463
0.52767035
0.52767464
0.52767464
0.52767035
0.52766463
0.52765986
0.52765664
0.52765444
0.52765273
0.52765132
0.52765018
0.5276493
0.52764862
0.5276481
0.51137538
0.51137585
0.51137648
0.5113773
0.51137835
0.51137965
0.51138122
0.51138321
0.51138608
0.51139033
0.51139538
0.51139925
0.51139925
0.51139538
0.51139033
0.51138608
0.5113832
0.51138122
0.51137965
0.51137837
0.51137734
0.51137653
0.51137591
0.51137544
0.49510718
0.49510761
0.4951082
0.49510895
0.49510991
0.4951111
0.49511254
0.49511435
0.49511693
0.49512074
0.49512523
0.49512872
0.49512872
0.49512523
0.49512073
0.49511692
0.49511434
0.49511254
0.49511111
0.49510994
0.49510899
0.49510826
0.49510769
0.49510727
0.47884307
0.47884347
0.47884401
0.4788447
0.47884559
0.47884669
0.47884801
0.47884966
0.47885198
0.47885541
0.47885944
0.4788626
0.4788626
0.47885944
0.4788554
0.47885197
0.47884965
0.47884801
0.4788467
0.47884562
0.47884475
0.47884408
0.47884356
0.47884318
0.4625827
0.46258307
0.46258357
0.46258421
0.46258503
0.46258605
0.46258727
0.46258878
0.46259088
0.46259398
0.46259763
0.4626005
0.4626005
0.46259762
0.46259397
0.46259087
0.46258876
0.46258727
0.46258606
0.46258507
0.46258427
0.46258366
0.46258318
0.46258282
0.44632576
0.44632611
0.44632657
0.44632716
0.44632792
0.44632887
0.44633
0.44633139
0.4463333
0.44633612
0.44633944
0.44634205
0.44634205
0.44633943
0.44633611
0.44633329
0.44633137
0.44633
0.44632889
0.44632797
0.44632724
0.44632667
0.44632624
0.44632591
0.430072
0.43007232
0.43007275
0.4300733
0.43007401
0.43007489
0.43007594
0.43007722
0.43007897
0.43008154
0.43008458
0.43008696
0.43008696
0.43008457
0.43008153
0.43007895
0.4300772
0.43007593
0.43007491
0.43007406
0.43007338
0.43007287
0.43007246
0.43007217
0.41382117
0.41382146
0.41382186
0.41382237
0.41382304
0.41382385
0.41382483
0.41382602
0.41382763
0.41382998
0.41383277
0.41383496
0.41383496
0.41383276
0.41382996
0.4138276
0.413826
0.41382483
0.41382388
0.41382309
0.41382247
0.41382199
0.41382163
0.41382135
0.39757305
0.39757333
0.3975737
0.39757418
0.39757479
0.39757556
0.39757647
0.39757757
0.39757905
0.39758122
0.39758379
0.3975858
0.3975858
0.39758378
0.39758119
0.39757902
0.39757754
0.39757646
0.39757558
0.39757486
0.39757428
0.39757385
0.39757351
0.39757326
0.38132746
0.38132772
0.38132806
0.38132851
0.38132909
0.3813298
0.38133065
0.38133168
0.38133304
0.38133504
0.38133742
0.38133927
0.38133927
0.38133741
0.38133502
0.38133301
0.38133165
0.38133064
0.38132983
0.38132916
0.38132863
0.38132822
0.38132791
0.38132768
0.36508422
0.36508446
0.36508478
0.3650852
0.36508574
0.36508641
0.3650872
0.36508816
0.36508943
0.36509127
0.36509348
0.36509519
0.36509519
0.36509347
0.36509124
0.36508939
0.36508813
0.3650872
0.36508644
0.36508582
0.36508533
0.36508496
0.36508467
0.36508446
0.34884316
0.34884339
0.3488437
0.34884409
0.34884459
0.34884522
0.34884596
0.34884686
0.34884803
0.34884974
0.3488518
0.34885338
0.34885338
0.34885179
0.34884971
0.34884799
0.34884682
0.34884596
0.34884525
0.34884468
0.34884422
0.34884388
0.34884362
0.34884343
0.33260416
0.33260437
0.33260466
0.33260503
0.3326055
0.33260609
0.33260679
0.33260762
0.33260871
0.3326103
0.33261222
0.33261369
0.33261369
0.33261221
0.33261027
0.33260867
0.33260758
0.33260678
0.33260612
0.33260559
0.33260517
0.33260486
0.33260462
0.33260444
0.31636707
0.31636727
0.31636754
0.31636788
0.31636833
0.31636888
0.31636953
0.31637032
0.31637133
0.31637281
0.3163746
0.31637597
0.31637597
0.31637459
0.31637278
0.31637129
0.31637027
0.31636952
0.31636892
0.31636842
0.31636804
0.31636775
0.31636753
0.31636736
0.30013177
0.30013196
0.30013221
0.30013254
0.30013295
0.30013347
0.30013409
0.30013482
0.30013577
0.30013715
0.30013882
0.3001401
0.3001401
0.30013881
0.30013711
0.30013572
0.30013478
0.30013408
0.30013351
0.30013305
0.3001327
0.30013243
0.30013223
0.30013208
0.28389816
0.28389833
0.28389857
0.28389887
0.28389927
0.28389975
0.28390033
0.28390102
0.28390191
0.28390319
0.28390476
0.28390595
0.28390595
0.28390475
0.28390316
0.28390186
0.28390097
0.28390032
0.2838998
0.28389937
0.28389904
0.2838988
0.28389862
0.28389848
0.26766612
0.26766628
0.26766651
0.26766679
0.26766716
0.26766762
0.26766816
0.26766881
0.26766964
0.26767084
0.26767232
0.26767343
0.26767343
0.2676723
0.2676708
0.26766959
0.26766876
0.26766815
0.26766766
0.26766727
0.26766697
0.26766674
0.26766658
0.26766645
0.25143556
0.25143572
0.25143592
0.25143619
0.25143654
0.25143697
0.25143749
0.25143809
0.25143887
0.25143999
0.25144137
0.25144242
0.25144241
0.25144136
0.25143995
0.25143882
0.25143804
0.25143747
0.25143702
0.25143665
0.25143637
0.25143617
0.25143602
0.2514359
0.23520639
0.23520654
0.23520674
0.23520699
0.23520732
0.23520772
0.23520821
0.23520878
0.23520951
0.23521056
0.23521186
0.23521284
0.23521284
0.23521185
0.23521052
0.23520945
0.23520873
0.2352082
0.23520777
0.23520743
0.23520718
0.23520699
0.23520685
0.23520675
0.21897854
0.21897868
0.21897886
0.2189791
0.21897941
0.21897979
0.21898025
0.21898078
0.21898147
0.21898245
0.21898367
0.21898459
0.21898459
0.21898366
0.21898241
0.21898141
0.21898073
0.21898023
0.21897984
0.21897953
0.21897929
0.21897913
0.218979
0.21897891
0.20275191
0.20275204
0.20275222
0.20275244
0.20275274
0.2027531
0.20275352
0.20275403
0.20275468
0.2027556
0.20275675
0.20275762
0.20275761
0.20275674
0.20275556
0.20275461
0.20275398
0.20275351
0.20275315
0.20275286
0.20275264
0.20275249
0.20275238
0.2027523
0.18652645
0.18652658
0.18652674
0.18652695
0.18652723
0.18652757
0.18652797
0.18652845
0.18652906
0.18652992
0.186531
0.18653181
0.18653181
0.18653098
0.18652988
0.18652899
0.18652839
0.18652796
0.18652762
0.18652736
0.18652716
0.18652703
0.18652693
0.18652685
0.17030209
0.1703022
0.17030236
0.17030256
0.17030282
0.17030314
0.17030352
0.17030397
0.17030454
0.17030535
0.17030638
0.17030714
0.17030714
0.17030636
0.17030531
0.17030447
0.17030391
0.1703035
0.17030319
0.17030295
0.17030277
0.17030265
0.17030257
0.1703025
0.15407876
0.15407886
0.15407901
0.1540792
0.15407944
0.15407975
0.15408011
0.15408053
0.15408106
0.15408182
0.15408278
0.15408349
0.15408349
0.15408276
0.15408178
0.15408099
0.15408047
0.15408009
0.1540798
0.15407958
0.15407943
0.15407932
0.15407925
0.15407919
0.13785639
0.13785649
0.13785663
0.13785681
0.13785704
0.13785733
0.13785767
0.13785806
0.13785857
0.13785928
0.13786019
0.13786086
0.13786086
0.13786017
0.13785923
0.13785849
0.137858
0.13785765
0.13785738
0.13785719
0.13785705
0.13785696
0.1378569
0.13785686
0.12163496
0.12163506
0.12163519
0.12163536
0.12163558
0.12163585
0.12163617
0.12163654
0.12163701
0.12163767
0.12163849
0.12163911
0.12163911
0.12163848
0.12163761
0.12163693
0.12163647
0.12163615
0.12163591
0.12163573
0.12163561
0.12163554
0.12163549
0.12163546
0.10541438
0.10541447
0.10541459
0.10541475
0.10541496
0.10541521
0.10541552
0.10541587
0.10541631
0.10541692
0.1054177
0.10541827
0.10541827
0.10541768
0.10541687
0.10541622
0.10541579
0.1054155
0.10541528
0.10541512
0.10541503
0.10541497
0.10541494
0.10541491
0.089194662
0.08919475
0.089194867
0.089195018
0.089195213
0.089195454
0.089195738
0.089196065
0.089196466
0.08919701
0.089197676
0.089198158
0.089198155
0.089197653
0.089196947
0.089196373
0.089195984
0.089195715
0.089195522
0.08919539
0.089195311
0.08919527
0.089195248
0.08919523
0.072975656
0.072975738
0.072975849
0.072975992
0.072976177
0.072976409
0.072976681
0.072976992
0.072977366
0.072977865
0.072978462
0.072978875
0.072978872
0.072978437
0.072977797
0.072977267
0.072976905
0.072976656
0.072976481
0.072976365
0.072976301
0.072976273
0.072976262
0.072976252
0.056757535
0.056757615
0.056757722
0.056757858
0.056758031
0.056758244
0.056758493
0.056758773
0.056759092
0.05675947
0.05675986
0.056760091
0.056760088
0.056759835
0.056759399
0.056758986
0.05675868
0.056758466
0.056758319
0.056758225
0.056758174
0.056758154
0.056758147
0.056758138
0.040539747
0.040539817
0.040539913
0.040540042
0.040540215
0.040540437
0.040540698
0.040540986
0.040541308
0.040541717
0.040542198
0.040542523
0.040542521
0.040542176
0.040541647
0.0405412
0.04054089
0.040540669
0.04054051
0.040540405
0.04054035
0.040540331
0.040540327
0.040540322
0.024323475
0.024323557
0.024323664
0.02432379
0.024323935
0.024324094
0.024324264
0.024324442
0.024324605
0.024324684
0.024324608
0.024324394
0.024324394
0.024324591
0.024324621
0.024324505
0.024324355
0.024324241
0.024324166
0.024324109
0.024324062
0.024324023
0.024323987
0.024323954
0.0081053762
0.0081054456
0.0081055374
0.0081056574
0.0081058168
0.0081060148
0.0081062336
0.0081064703
0.0081068454
0.008107681
0.0081091657
0.0081105446
0.0081105468
0.0081091605
0.0081076478
0.0081067868
0.0081064175
0.0081062215
0.0081060616
0.008105925
0.0081058221
0.0081057499
0.0081056955
0.0081056514
)
;

boundaryField
{
    INLET
    {
        type            zeroGradient;
    }
    OUTLET
    {
        type            fixedValue;
        value           uniform 0;
    }
    WALL
    {
        type            zeroGradient;
    }
    frontAndBackPlanes
    {
        type            empty;
    }
}


// ************************************************************************* //
