/*--------------------------------*- C++ -*----------------------------------*\
| =========                 |                                                 |
| \\      /  F ield         | OpenFOAM: The Open Source CFD Toolbox           |
|  \\    /   O peration     | Version:  2406                                  |
|   \\  /    A nd           | Website:  www.openfoam.com                      |
|    \\/     M anipulation  |                                                 |
\*---------------------------------------------------------------------------*/
FoamFile
{
    version     2.0;
    format      ascii;
    arch        "LSB;label=32;scalar=64";
    class       surfaceScalarField;
    location    "23";
    object      phi;
}
// * * * * * * * * * * * * * * * * * * * * * * * * * * * * * * * * * * * * * //

dimensions      [0 3 -1 0 0 0 0];

oriented        oriented;

internalField   nonuniform List<scalar> 
2279
(
2.3617575e-08
1.0148926e-05
2.0509786e-07
4.982375e-05
6.9331799e-07
0.00014252872
1.5784721e-06
0.00034353082
2.6788484e-06
0.00075378089
3.3472922e-06
0.0015415573
3.043521e-06
0.0029497096
2.1516854e-06
0.005249171
1.4318051e-06
0.008582269
9.8959286e-07
0.012685995
5.1266671e-07
0.016666385
-4.3602053e-12
0.01918202
-5.1267942e-07
0.01918202
-9.8961863e-07
0.016666385
-1.431857e-06
0.012685995
-2.1517674e-06
0.0085822691
-3.0436754e-06
0.0052491711
-3.3476055e-06
0.0029497097
-2.6793795e-06
0.0015415574
-1.579137e-06
0.00075378101
-6.9394358e-07
0.0003435309
-2.0552389e-07
0.00014252876
-2.3814946e-08
4.9823769e-05
1.0148932e-05
-9.5248402e-08
1.0244175e-05
-5.3793992e-07
5.0266441e-05
-1.6230009e-06
0.00014361378
-3.5389521e-06
0.00034544677
-5.9201862e-06
0.00075616213
-7.4055021e-06
0.0015430426
-6.5847267e-06
0.0029488888
-3.9361588e-06
0.0052465224
-1.3883877e-06
0.0085797213
-6.5117606e-08
0.012684671
2.4240816e-07
0.016666078
1.132937e-12
0.019182263
-2.4240317e-07
0.019182263
6.513137e-08
0.016666078
1.388419e-06
0.012684671
3.9361944e-06
0.0085797212
6.5847509e-06
0.0052465224
7.4055308e-06
0.0029488888
5.9202734e-06
0.0015430426
3.5391e-06
0.0007561621
1.6231568e-06
0.00034544676
5.3804872e-07
0.00014361378
9.5296922e-08
5.0266439e-05
1.0244174e-05
5.0139894e-08
1.0194035e-05
2.6334511e-07
5.0053236e-05
7.4910739e-07
0.00014312802
1.5314587e-06
0.00034466442
2.336656e-06
0.00075535693
2.5476623e-06
0.0015428316
1.8390965e-06
0.0029495974
9.7567512e-07
0.0052473858
6.7695846e-07
0.00858002
6.7178591e-07
0.012684677
4.8416368e-07
0.016666266
3.6223596e-12
0.019182747
-4.8415054e-07
0.019182747
-6.7176064e-07
0.016666266
-6.7692233e-07
0.012684677
-9.7565857e-07
0.00858002
-1.8391118e-06
0.0052473859
-2.5476857e-06
0.0029495974
-2.3366635e-06
0.0015428316
-1.531449e-06
0.00075535693
-7.4908651e-07
0.00034466442
-2.6332428e-07
0.00014312802
-5.0127254e-08
5.0053235e-05
1.0194035e-05
1.9586771e-08
1.0174448e-05
1.1184938e-07
4.9960974e-05
3.6128451e-07
0.00014287858
9.0504811e-07
0.00034412066
1.8716604e-06
0.00075439032
3.0948243e-06
0.0015416085
3.8987248e-06
0.0029487935
3.7285554e-06
0.005247556
2.9242099e-06
0.0085808243
1.9733725e-06
0.012685627
1.0127683e-06
0.016667226
9.0214216e-13
0.01918376
-1.012763e-06
0.01918376
-1.9733623e-06
0.016667226
-2.9242061e-06
0.012685627
-3.7285662e-06
0.0085808243
-3.8987433e-06
0.005247556
-3.0948376e-06
0.0029487935
-1.8716693e-06
0.0015416085
-9.0505315e-07
0.00075439032
-3.6128919e-07
0.00034412066
-1.1185272e-07
0.00014287858
-1.9588394e-08
4.9960974e-05
1.0174448e-05
8.0838725e-09
1.0166364e-05
4.7141337e-08
4.9921916e-05
1.549467e-07
0.00014277078
3.98463e-07
0.00034387714
8.797947e-07
0.00075390898
1.7015169e-06
0.0015407867
2.7512762e-06
0.0029477437
3.4623625e-06
0.0052468449
3.470862e-06
0.0085808158
2.8006853e-06
0.012686298
1.5505128e-06
0.016668476
-1.1852314e-12
0.01918531
-1.5505143e-06
0.01918531
-2.8006867e-06
0.016668476
-3.4708646e-06
0.012686298
-3.4623666e-06
0.0085808158
-2.7512657e-06
0.0052468449
-1.7014816e-06
0.0029477437
-8.7973981e-07
0.0015407867
-3.9840296e-07
0.00075390898
-1.5489587e-07
0.00034387714
-4.7108567e-08
0.00014277078
-8.0690792e-09
4.9921916e-05
1.0166364e-05
4.93577e-09
1.0161429e-05
2.8698635e-08
4.9898153e-05
9.5121122e-08
0.00014270436
2.4921406e-07
0.00034372305
5.6360936e-07
0.00075359459
1.1213754e-06
0.001540229
1.9184587e-06
0.0029469467
2.6588219e-06
0.0052461046
2.8930595e-06
0.0085805816
2.4787659e-06
0.012686712
1.4344248e-06
0.016669521
-1.1279447e-12
0.019186745
-1.4344279e-06
0.019186745
-2.4787721e-06
0.016669521
-2.8930689e-06
0.012686712
-2.6588258e-06
0.0085805816
-1.918447e-06
0.0052461046
-1.1213476e-06
0.0029469467
-5.635704e-07
0.001540229
-2.4917212e-07
0.00075359459
-9.5085028e-08
0.00034372305
-2.8674652e-08
0.00014270435
-4.924529e-09
4.9898153e-05
1.0161428e-05
4.412256e-09
1.0157016e-05
2.5525449e-08
4.987704e-05
8.3829775e-08
0.00014264605
2.168938e-07
0.00034358998
4.8450103e-07
0.00075332698
9.5636128e-07
0.0015397571
1.6413747e-06
0.0029462616
2.3245837e-06
0.0052454214
2.5939542e-06
0.0085803122
2.2393637e-06
0.012687066
1.3066746e-06
0.016670453
1.9769235e-12
0.019188051
-1.3066727e-06
0.019188051
-2.2393666e-06
0.016670453
-2.5939607e-06
0.012687066
-2.3245837e-06
0.0085803122
-1.6413628e-06
0.0052454214
-9.5633712e-07
0.0029462616
-4.8446843e-07
0.0015397571
-2.1685916e-07
0.00075332698
-8.3800278e-08
0.00034358998
-2.550596e-08
0.00014264605
-4.4031648e-09
4.987704e-05
1.0157016e-05
3.6253833e-09
1.0153391e-05
2.1036242e-08
4.9859629e-05
6.9437567e-08
0.00014259765
1.8114087e-07
0.00034347828
4.0971398e-07
0.00075309841
8.239041e-07
0.0015393429
1.4539934e-06
0.0029456316
2.1430772e-06
0.0052447323
2.4674752e-06
0.0085799878
2.1883958e-06
0.012687346
1.2866457e-06
0.016671355
3.3772807e-12
0.019189338
-1.2866416e-06
0.019189338
-2.188397e-06
0.016671355
-2.4674791e-06
0.012687346
-2.1430755e-06
0.0085799878
-1.4539822e-06
0.0052447323
-8.238823e-07
0.0029456316
-4.0968349e-07
0.0015393429
-1.8110731e-07
0.00075309841
-6.9408317e-08
0.00034347828
-2.1016665e-08
0.00014259765
-3.6162013e-09
4.9859629e-05
1.0153391e-05
2.9828908e-09
1.0150408e-05
1.7346458e-08
4.9845265e-05
5.7376429e-08
0.00014255762
1.5007282e-07
0.00034338558
3.4097032e-07
0.00075290751
6.9193158e-07
0.001538992
1.2441093e-06
0.0029450794
1.9041875e-06
0.0052440722
2.3016032e-06
0.0085795904
2.0975119e-06
0.01268755
1.2520152e-06
0.016672201
4.1808189e-12
0.01919059
-1.2520096e-06
0.01919059
-2.097512e-06
0.016672201
-2.3016063e-06
0.01268755
-1.9041873e-06
0.0085795904
-1.2441011e-06
0.0052440722
-6.9191279e-07
0.0029450794
-3.4094236e-07
0.001538992
-1.5004126e-07
0.00075290751
-5.7348678e-08
0.00034338558
-1.732781e-08
0.00014255762
-2.9741243e-09
4.9845265e-05
1.0150408e-05
2.4651363e-09
1.0147942e-05
1.4362473e-08
4.9833367e-05
4.7625468e-08
0.00014252436
1.2502748e-07
0.00034330818
2.8558787e-07
0.00075274695
5.8417884e-07
0.0015386934
1.0641844e-06
0.0029445994
1.6641587e-06
0.0052434722
2.0898766e-06
0.0085791647
1.9528982e-06
0.012687687
1.1802496e-06
0.016672973
3.8609756e-12
0.01919177
-1.1802448e-06
0.01919177
-1.9528996e-06
0.016672973
-2.0898814e-06
0.012687687
-1.6641608e-06
0.0085791647
-1.0641782e-06
0.0052434722
-5.8416157e-07
0.0029445994
-2.855614e-07
0.0015386934
-1.2499775e-07
0.00075274695
-4.7599635e-08
0.00034330818
-1.4345298e-08
0.00014252436
-2.457123e-09
4.9833367e-05
1.0147942e-05
2.1021759e-09
1.014584e-05
1.2257461e-08
4.9823212e-05
4.068732e-08
0.00014249593
1.0698907e-07
0.00034324188
2.4507738e-07
0.00075260886
5.0385216e-07
0.0015384346
9.2623425e-07
0.002944177
1.4715111e-06
0.0052429269
1.8909093e-06
0.0085787453
1.8050253e-06
0.012687772
1.103694e-06
0.016673675
2.769505e-12
0.019192874
-1.1036915e-06
0.019192874
-1.805029e-06
0.016673675
-1.8909164e-06
0.012687772
-1.4715149e-06
0.0085787453
-9.2622904e-07
0.005242927
-5.0383611e-07
0.002944177
-2.4505319e-07
0.0015384346
-1.0696263e-07
0.00075260886
-4.0664904e-08
0.00034324188
-1.2242841e-08
0.00014249593
-2.0954429e-09
4.9823211e-05
1.014584e-05
1.8280133e-09
1.0144011e-05
1.0665007e-08
4.9814374e-05
3.5429524e-08
0.00014247116
9.3282032e-08
0.00034318403
2.1413813e-07
0.00075248801
4.4192657e-07
0.0015382068
8.1811256e-07
0.0029438008
1.3163797e-06
0.0052424287
1.7244937e-06
0.0085783372
1.6780442e-06
0.012687819
1.0378073e-06
0.016674315
1.5421348e-12
0.019193912
-1.037807e-06
0.019193912
-1.6780498e-06
0.016674315
-1.724502e-06
0.012687819
-1.3163839e-06
0.0085783372
-8.1810792e-07
0.0052424287
-4.4191281e-07
0.0029438008
-2.1411868e-07
0.0015382068
-9.3261994e-08
0.00075248801
-3.5413313e-08
0.00034318403
-1.0654819e-08
0.00014247116
-1.823437e-09
4.9814374e-05
1.0144011e-05
1.6103119e-09
1.0142401e-05
9.3992677e-09
4.9806585e-05
3.1243759e-08
0.00014244932
8.2339519e-08
0.00034313293
1.8931964e-07
0.00075238103
3.9182186e-07
0.0015380043
7.2924017e-07
0.0029434634
1.1851442e-06
0.0052419728
1.5781743e-06
0.0085779441
1.5623397e-06
0.012687835
9.7669958e-07
0.0166749
3.9601388e-13
0.019194888
-9.7670132e-07
0.019194888
-1.5623463e-06
0.0166749
-1.5781824e-06
0.012687835
-1.1851477e-06
0.0085779441
-7.2923619e-07
0.0052419728
-3.9181207e-07
0.0029434634
-1.8930788e-07
0.0015380043
-8.2329245e-08
0.00075238103
-3.1236677e-08
0.00034313293
-9.3954438e-09
0.00014244932
-1.6087892e-09
4.9806585e-05
1.0142401e-05
1.4321488e-09
1.0140969e-05
8.3626418e-09
4.9799654e-05
2.7811976e-08
0.00014242987
7.3351885e-08
0.00034308739
1.6886767e-07
0.00075228551
3.5026672e-07
0.0015378229
6.5458152e-07
0.0029431591
1.0720574e-06
0.0052415553
1.4464319e-06
0.0085775698
1.4548756e-06
0.012687826
9.1880978e-07
0.016675437
-5.9400378e-13
0.019195807
-9.1881304e-07
0.019195807
-1.4548825e-06
0.016675437
-1.4464389e-06
0.012687826
-1.0720598e-06
0.0085775698
-6.5457875e-07
0.0052415553
-3.5026276e-07
0.0029431591
-1.6886643e-07
0.0015378229
-7.3354463e-08
0.00075228551
-2.7816644e-08
0.00034308739
-8.3668924e-09
0.00014242987
-1.4344683e-09
4.9799654e-05
1.0140969e-05
1.2848176e-09
1.0139684e-05
7.5046568e-09
4.9793434e-05
2.496812e-08
0.0001424124
6.589009e-08
0.00034304647
1.5183677e-07
0.00075219957
3.1548389e-07
0.0015376593
5.9149494e-07
0.0029428831
9.7478496e-07
0.005241172
1.3297027e-06
0.0085772149
1.3567857e-06
0.012687799
8.6525132e-07
0.016675928
-1.4240794e-12
0.019196672
-8.6525567e-07
0.019196672
-1.3567923e-06
0.016675928
-1.329708e-06
0.012687799
-9.7478591e-07
0.0085772149
-5.9149407e-07
0.005241172
-3.1548745e-07
0.0029428831
-1.5184842e-07
0.0015376593
-6.5908055e-08
0.00075219956
-2.4986679e-08
0.00034304647
-7.5183768e-09
0.0001424124
-1.2916225e-09
4.9793434e-05
1.0139683e-05
1.1612676e-09
1.0138522e-05
6.7846984e-09
4.9787811e-05
2.2579591e-08
0.00014239661
5.9614161e-08
0.00034300943
1.3747956e-07
0.0007521217
2.8604489e-07
0.0015375107
5.3770901e-07
0.0029426314
8.9070367e-07
0.005240819
1.2263952e-06
0.0085768792
1.2674876e-06
0.012687758
8.1592513e-07
0.01667638
-2.1629878e-12
0.019197488
-8.1593028e-07
0.019197488
-1.2674933e-06
0.01667638
-1.2263983e-06
0.012687758
-8.907031e-07
0.0085768792
-5.377106e-07
0.005240819
-2.8605724e-07
0.0029426314
-1.3750586e-07
0.0015375107
-5.9649395e-08
0.0007521217
-2.2613637e-08
0.00034300943
-6.8089307e-09
0.00014239661
-1.1730404e-09
4.978781e-05
1.0138522e-05
1.0558961e-09
1.0137466e-05
6.1704001e-09
4.9782696e-05
2.0540346e-08
0.00014238224
5.4250681e-08
0.00034297572
1.2518895e-07
0.00075205076
2.6076585e-07
0.0015373751
4.9124926e-07
0.0029424009
8.1722225e-07
0.005240493
1.1341804e-06
0.0085765622
1.1857877e-06
0.012687707
7.7021226e-07
0.016676795
-2.850983e-12
0.019198259
-7.70218e-07
0.019198259
-1.1857922e-06
0.016676795
-1.1341808e-06
0.012687707
-8.1722002e-07
0.0085765622
-4.9125369e-07
0.005240493
-2.6078786e-07
0.0029424009
-1.2523116e-07
0.0015373751
-5.430452e-08
0.00075205076
-2.0591021e-08
0.00034297572
-6.2058949e-09
0.00014238224
-1.0729856e-09
4.9782695e-05
1.0137466e-05
9.6488066e-10
1.0136501e-05
5.6395497e-09
4.9778021e-05
1.8777198e-08
0.0001423691
4.9609681e-08
0.00034294489
1.1453962e-07
0.00075198583
2.3880851e-07
0.0015372509
4.5070103e-07
0.002942189
7.5247925e-07
0.0052401913
1.0514959e-06
0.0085762632
1.1108277e-06
0.012687647
7.2768509e-07
0.016677178
-3.4869994e-12
0.019198986
-7.2769129e-07
0.019198986
-1.1108307e-06
0.016677178
-1.0514932e-06
0.012687647
-7.524752e-07
0.0085762632
-4.5070853e-07
0.0052401912
-2.388408e-07
0.002942189
-1.145986e-07
0.0015372508
-4.9683094e-08
0.00075198583
-1.8845334e-08
0.00034294489
-5.6868586e-09
0.0001423691
-9.8754422e-10
4.977802e-05
1.0136501e-05
8.8554561e-10
1.0135615e-05
5.1765923e-09
4.9773729e-05
1.7238779e-08
0.00014235704
4.5557313e-08
0.00034291657
1.0523011e-07
0.00075192616
2.1957381e-07
0.0015371365
4.1503891e-07
0.0029419936
6.9508501e-07
0.0052399112
9.7708943e-07
0.0085759812
1.0418625e-06
0.012687582
6.8800036e-07
0.016677532
-4.1220604e-12
0.019199674
-6.8800691e-07
0.019199674
-1.0418635e-06
0.016677532
-9.7708324e-07
0.012687582
-6.9507896e-07
0.0085759812
-4.150496e-07
0.0052399112
-2.1961681e-07
0.0029419935
-1.0530655e-07
0.0015371365
-4.5651043e-08
0.00075192616
-1.7325024e-08
0.00034291657
-5.2361463e-09
0.00014235704
-9.1398503e-10
4.9773729e-05
1.0135615e-05
8.1579391e-10
1.0134799e-05
4.7693633e-09
4.9769775e-05
1.588496e-08
0.00014234592
4.198905e-08
0.00034289047
9.7024745e-08
0.00075187112
2.0259086e-07
0.0015370309
3.8344531e-07
0.0029418127
6.4389103e-07
0.0052396508
9.0983725e-07
0.0085757152
9.7822999e-07
0.012687514
6.508604e-07
0.01667786
-4.7927355e-12
0.019200325
-6.5086722e-07
0.019200325
-9.7822879e-07
0.01667786
-9.0982726e-07
0.012687514
-6.4388282e-07
0.0085757152
-3.8345927e-07
0.0052396507
-2.0264491e-07
0.0029418127
-9.7119169e-08
0.0015370309
-4.2103709e-08
0.00075187112
-1.5989847e-08
0.00034289047
-4.8415169e-09
0.00014234592
-8.5017486e-10
4.9769775e-05
1.0134799e-05
7.5397226e-10
1.0134045e-05
4.408269e-09
4.9766121e-05
1.468407e-08
0.00014233564
3.8822266e-08
0.00034286633
8.9736679e-08
0.00075182021
1.8748439e-07
0.0015369332
3.5526179e-07
0.0029416449
5.9795341e-07
0.0052394081
8.4878222e-07
0.0085754644
9.1935972e-07
0.012687443
6.1600334e-07
0.016678163
-5.5020884e-12
0.019200941
-6.1601038e-07
0.019200941
-9.1935607e-07
0.016678163
-8.4876817e-07
0.012687443
-5.9794288e-07
0.0085754644
-3.5527907e-07
0.0052394081
-1.8754978e-07
0.0029416449
-8.9849544e-08
0.0015369332
-3.8958361e-08
0.00075182021
-1.4808038e-08
0.00034286633
-4.4933122e-09
0.00014233564
-7.9442945e-10
4.9766121e-05
1.0134045e-05
6.9878945e-10
1.0133346e-05
4.0858087e-09
4.9762734e-05
1.3611305e-08
0.00014232612
3.5992114e-08
0.00034284395
8.3218781e-08
0.00075177298
1.7395723e-07
0.0015368425
3.2996175e-07
0.0029414889
5.5650228e-07
0.0052391815
7.9311394e-07
0.0085752278
8.6476015e-07
0.012687372
5.8322313e-07
0.016678444
-6.2605501e-12
0.019201524
-5.8323041e-07
0.019201524
-8.647539e-07
0.016678444
-7.9309562e-07
0.012687372
-5.5648932e-07
0.0085752278
-3.2998241e-07
0.0052391815
-1.7403418e-07
0.0029414889
-8.335044e-08
0.0015368425
-3.6150031e-08
0.00075177298
-1.375468e-08
0.00034284395
-4.1839521e-09
0.00014232612
-7.4541919e-10
4.9762733e-05
1.0133346e-05
6.4922763e-10
1.0132697e-05
3.7960647e-09
4.9759587e-05
1.2647079e-08
0.00014231727
3.3447308e-08
0.00034282315
7.735443e-08
0.00075172907
1.6177297e-07
0.001536758
3.0712358e-07
0.0029413436
5.189144e-07
0.0052389697
7.4216555e-07
0.0085750045
8.1400474e-07
0.0126873
5.5233264e-07
0.016678706
-7.0625901e-12
0.019202077
-5.5234022e-07
0.019202077
-8.1399579e-07
0.016678706
-7.421428e-07
0.0126873
-5.1889892e-07
0.0085750045
-3.0714767e-07
0.0052389697
-1.6186165e-07
0.0029413435
-7.750511e-08
0.001536758
-3.362727e-08
0.00075172907
-1.2810033e-08
0.00034282315
-3.907411e-09
0.00014231727
-7.0207444e-10
4.9759587e-05
1.0132696e-05
6.0447157e-10
1.0132092e-05
3.5342945e-09
4.9756657e-05
1.1775685e-08
0.00014230903
3.1146675e-08
0.00034280378
7.2049827e-08
0.00075168817
1.5074085e-07
0.0015366793
2.8640481e-07
0.0029412079
4.8467657e-07
0.0052387715
6.9537299e-07
0.0085747938
7.667335e-07
0.012687229
5.2319313e-07
0.01667895
-7.9185903e-12
0.0192026
-5.2320111e-07
0.0192026
-7.6672181e-07
0.01667895
-6.9534572e-07
0.012687229
-4.8465854e-07
0.0085747938
-2.8643238e-07
0.0052387714
-1.5084134e-07
0.0029412079
-7.2219585e-08
0.0015366793
-3.1348692e-08
0.00075168817
-1.1958191e-08
0.00034280378
-3.6588094e-09
0.00014230903
-6.6351436e-10
4.9756657e-05
1.0132092e-05
5.6386157e-10
1.0131528e-05
3.2966598e-09
4.9753924e-05
1.0984404e-08
0.00014230134
2.9056856e-08
0.0003427857
6.7228882e-08
0.00075165
1.4070576e-07
0.0015366059
2.6752598e-07
0.0029410811
4.5336728e-07
0.0052385856
6.5226735e-07
0.0085745949
7.2262453e-07
0.012687158
4.9566103e-07
0.016679177
-8.8677792e-12
0.019203096
-4.9566952e-07
0.019203096
-7.2261011e-07
0.016679177
-6.5223553e-07
0.012687158
-4.533467e-07
0.0085745949
-2.6755706e-07
0.0052385856
-1.4081803e-07
0.0029410811
-6.7417568e-08
0.0015366059
-2.9280679e-08
0.00075165
-1.1186201e-08
0.00034278571
-3.4341479e-09
0.00014230134
-6.2900292e-10
4.9753924e-05
1.0131528e-05
5.2685733e-10
1.0131002e-05
3.0800166e-09
4.9751372e-05
1.0262814e-08
0.00014229416
2.7150492e-08
0.00034276882
6.2829111e-08
0.00075161432
1.3154003e-07
0.0015365372
2.5025574e-07
0.0029409624
4.2463295e-07
0.0052384112
6.1244448e-07
0.0085744071
6.8141005e-07
0.012687089
4.6964244e-07
0.016679388
-9.9083846e-12
0.019203565
-4.6965153e-07
0.019203565
-6.8139294e-07
0.016679388
-6.1240813e-07
0.012687089
-4.2460988e-07
0.0085744071
-2.5029034e-07
0.0052384112
-1.3166391e-07
0.0029409623
-6.3036335e-08
0.0015365372
-2.7395591e-08
0.00075161432
-1.0483387e-08
0.00034276882
-3.2301107e-09
0.00014229416
-5.9791881e-10
4.9751372e-05
1.0131002e-05
4.9301321e-10
1.0130509e-05
2.8817717e-09
4.9748984e-05
9.6023182e-09
0.00014228744
2.5405013e-08
0.00034275301
5.8798942e-08
0.00075158092
1.2313817e-07
0.0015364728
2.3440265e-07
0.0029408511
3.9818064e-07
0.0052382475
5.7556788e-07
0.0085742297
6.4283791e-07
0.012687022
4.4501602e-07
0.016679586
-1.1021089e-11
0.01920401
-4.4502583e-07
0.01920401
-6.4281818e-07
0.016679586
-5.755271e-07
0.012687022
-3.9815517e-07
0.0085742297
-2.3444074e-07
0.0052382474
-1.2327335e-07
0.0029408511
-5.9024067e-08
0.0015364728
-2.5670571e-08
0.00075158093
-9.8409023e-09
0.00034275302
-3.0439375e-09
0.00014228744
-5.6973838e-10
4.9748983e-05
1.0130509e-05
4.6195655e-10
1.0130048e-05
2.6997576e-09
4.9746746e-05
8.9957299e-09
0.00014228114
2.3801534e-08
0.00034273821
5.5095158e-08
0.00075154963
1.1541155e-07
0.0015364125
2.1980495e-07
0.0029407467
3.7375899e-07
0.0052380935
5.4134009e-07
0.0085740621
6.0670793e-07
0.012686957
4.2172228e-07
0.016679771
-1.2183924e-11
0.019204432
-4.2173291e-07
0.019204432
-6.0668568e-07
0.016679771
-5.41295e-07
0.012686957
-3.7373125e-07
0.0085740621
-2.1984647e-07
0.0052380935
-1.1555756e-07
0.0029407467
-5.5337317e-08
0.0015364125
-2.4086477e-08
0.00075154964
-9.2513392e-09
0.00034273821
-2.8733167e-09
0.00014228114
-5.4402221e-10
4.9746746e-05
1.0130048e-05
4.3337373e-10
1.0129615e-05
2.5321502e-09
4.9744649e-05
8.4370008e-09
0.00014227524
2.2324172e-08
0.00034272432
5.1681446e-08
0.00075152027
1.0828574e-07
0.0015363559
2.0632691e-07
0.0029406487
3.5115797e-07
0.0052379487
5.09513e-07
0.0085739038
5.7281237e-07
0.012686893
3.996467e-07
0.016679944
-1.3382848e-11
0.019204832
-3.9965822e-07
0.019204832
-5.7278772e-07
0.016679944
-5.0946378e-07
0.012686893
-3.5112811e-07
0.0085739037
-2.0637172e-07
0.0052379486
-1.0844199e-07
0.0029406486
-5.193958e-08
0.0015363559
-2.2627229e-08
0.00075152028
-8.7084866e-09
0.00034272433
-2.7163202e-09
0.00014227524
-5.2040957e-10
4.9744649e-05
1.0129615e-05
4.0699806e-10
1.0129209e-05
2.3774012e-09
4.9742679e-05
7.9209972e-09
0.0001422697
2.0959424e-08
0.00034271129
4.8526841e-08
0.00075149271
1.0169704e-07
0.0015363027
1.9385148e-07
0.0029405565
3.30193e-07
0.0052378123
4.7986158e-07
0.0085737541
5.4100464e-07
0.012686832
3.787615e-07
0.016680107
-1.4604903e-11
0.01920521
-3.7877399e-07
0.01920521
-5.4097774e-07
0.016680107
-4.7980847e-07
0.012686832
-3.3016118e-07
0.0085737541
-1.9389942e-07
0.0052378123
-1.0186283e-07
0.0029405565
-4.8799771e-08
0.0015363027
-2.1279211e-08
0.00075149271
-8.2071285e-09
0.00034271129
-2.5713522e-09
0.0001422697
-4.9861376e-10
4.974268e-05
1.0129209e-05
3.8260022e-10
1.0128828e-05
2.2341778e-09
4.9740829e-05
7.4433026e-09
0.00014226449
1.9695702e-08
0.00034269903
4.5604867e-08
0.0007514668
9.5591137e-08
0.0015362527
1.8227926e-07
0.0029404698
3.1070891e-07
0.0052376839
4.521974e-07
0.0085736126
5.1110152e-07
0.012686773
3.5894547e-07
0.016680259
-1.5846953e-11
0.019205569
-3.5895901e-07
0.019205569
-5.1107257e-07
0.016680259
-4.5214067e-07
0.012686773
-3.1067531e-07
0.0085736126
-1.8233013e-07
0.0052376838
-9.5765714e-08
0.0029404698
-4.5891382e-08
0.0015362527
-2.0030837e-08
0.0007514668
-7.7428705e-09
0.00034269904
-2.4371043e-09
0.00014226449
-4.7841967e-10
4.9740829e-05
1.0128828e-05
3.5998403e-10
1.0128469e-05
2.1013467e-09
4.9739089e-05
7.0001602e-09
0.00014225959
1.8523104e-08
0.00034268751
4.2892734e-08
0.00075144243
8.992094e-08
0.0015362057
1.7152322e-07
0.0029403882
2.9256671e-07
0.0052375628
4.2634763e-07
0.0085734788
4.8300526e-07
0.012686717
3.4020653e-07
0.016680402
-1.7108529e-11
0.01920591
-3.402212e-07
0.01920591
-4.8297447e-07
0.016680402
-4.262876e-07
0.012686717
-2.9253152e-07
0.0085734788
-1.715768e-07
0.0052375628
-9.0103577e-08
0.0029403882
-4.3191704e-08
0.0015362057
-1.8872335e-08
0.00075144244
-7.3120949e-09
0.00034268752
-2.3125472e-09
0.00014225959
-4.59683e-10
4.973909e-05
1.0128469e-05
3.3897501e-10
1.0128131e-05
1.9778938e-09
4.9737452e-05
6.5882138e-09
0.00014225498
1.7432853e-08
0.00034267667
4.0370467e-08
0.00075141949
8.4645551e-08
0.0015361614
1.6150828e-07
0.0029403113
2.7564802e-07
0.0052374487
4.0216315e-07
0.0085733523
4.5653859e-07
0.012686662
3.224021e-07
0.016680536
-1.8400157e-11
0.019206232
-3.2241802e-07
0.019206232
-4.5650622e-07
0.016680536
-4.0210014e-07
0.012686662
-2.7561139e-07
0.0085733522
-1.6156436e-07
0.0052374486
-8.4835612e-08
0.0029403113
-4.0680966e-08
0.0015361614
-1.7795202e-08
0.0007514195
-6.9117102e-09
0.00034267667
-2.1968557e-09
0.00014225498
-4.4232116e-10
4.9737453e-05
1.0128131e-05
3.1942766e-10
1.0127813e-05
1.8629874e-09
4.9735911e-05
6.204708e-09
0.00014225064
1.641764e-08
0.00034266646
3.8021091e-08
0.00075139789
7.9729599e-08
0.0015361197
1.5216873e-07
0.0029402389
2.598473e-07
0.005237341
3.7951329e-07
0.0085732326
4.3165681e-07
0.01268661
3.0558673e-07
0.016680662
-1.973138e-11
0.019206538
-3.0560405e-07
0.019206538
-4.3162313e-07
0.016680662
-3.7944763e-07
0.01268661
-2.5980939e-07
0.0085732326
-1.5222715e-07
0.005237341
-7.9926629e-08
0.0029402389
-3.8342538e-08
0.0015361197
-1.6792573e-08
0.0007513979
-6.5393781e-09
0.00034266646
-2.08949e-09
0.00014225064
-4.2632892e-10
4.9735911e-05
1.0127813e-05
3.0120202e-10
1.0127514e-05
1.7558089e-09
4.9734458e-05
5.8469383e-09
0.00014224655
1.5470463e-08
0.00034265684
3.5828867e-08
0.00075137753
7.5141132e-08
0.0015360804
1.4344566e-07
0.0029401706
2.4506968e-07
0.0052372394
3.5827034e-07
0.0085731194
4.0816627e-07
0.01268656
2.8957707e-07
0.01668078
-2.1114699e-11
0.019206827
-2.8959595e-07
0.019206827
-4.0813155e-07
0.01668078
-3.5820231e-07
0.01268656
-2.4503061e-07
0.0085731193
-1.4350629e-07
0.0052372393
-7.5344931e-08
0.0029401706
-3.6161148e-08
0.0015360804
-1.5858017e-08
0.00075137754
-6.1929214e-09
0.00034265684
-1.9899961e-09
0.00014224656
-4.1174059e-10
4.9734459e-05
1.0127514e-05
2.8419531e-10
1.0127232e-05
1.6557878e-09
4.9733089e-05
5.5130132e-09
0.0001422427
1.4586189e-08
0.00034264777
3.3781515e-08
0.00075135833
7.0853969e-08
0.0015360433
1.3529027e-07
0.0029401061
2.3123822e-07
0.0052371434
3.3834622e-07
0.0085730123
3.8609149e-07
0.012686512
2.7449449e-07
0.016680892
-2.2550376e-11
0.019207102
-2.7451507e-07
0.019207102
-3.8605598e-07
0.016680892
-3.3827603e-07
0.012686512
-2.3119803e-07
0.0085730122
-1.353531e-07
0.0052371434
-7.1064666e-08
0.0029401061
-3.4125084e-08
0.0015360433
-1.4987089e-08
0.00075135834
-5.8710704e-09
0.00034264777
-1.898229e-09
0.0001422427
-3.9865536e-10
4.9733089e-05
1.0127232e-05
2.6828353e-10
1.0126965e-05
1.5621814e-09
4.9731798e-05
5.2004856e-09
0.00014223906
1.3758635e-08
0.00034263921
3.1865607e-08
0.00075134023
6.6841551e-08
0.0015360084
1.2765321e-07
0.0029400453
2.1826899e-07
0.0052370528
3.1961297e-07
0.0085729109
3.651901e-07
0.012686467
2.6008663e-07
0.016680997
-2.4031013e-11
0.019207362
-2.6010903e-07
0.019207362
-3.6515394e-07
0.016680997
-3.1954068e-07
0.012686467
-2.1822762e-07
0.0085729109
-1.2771827e-07
0.0052370527
-6.7059697e-08
0.0029400453
-3.2221669e-08
0.0015360084
-1.4174515e-08
0.00075134024
-5.572211e-09
0.00034263922
-1.8140165e-09
0.00014223907
-3.8721952e-10
4.9731798e-05
1.0126965e-05
2.5341423e-10
1.0126714e-05
1.4747372e-09
4.9730579e-05
4.9085061e-09
0.00014223563
1.2985172e-08
0.00034263114
3.0073867e-08
0.00075132314
6.3086847e-08
0.0015359753
1.2050273e-07
0.0029399879
2.0611762e-07
0.0052369672
3.0204092e-07
0.008572815
3.4559086e-07
0.012686423
2.4657544e-07
0.016681096
-2.550806e-11
0.019207609
-2.4659967e-07
0.019207609
-3.4555403e-07
0.016681096
-3.0196637e-07
0.012686423
-2.0607485e-07
0.0085728149
-1.2057016e-07
0.0052369671
-6.3313413e-08
0.0029399879
-3.0444352e-08
0.0015359753
-1.3418521e-08
0.00075132315
-5.2962529e-09
0.00034263114
-1.7376193e-09
0.00014223564
-3.7762298e-10
4.973058e-05
1.0126714e-05
2.3945187e-10
1.0126477e-05
1.3926008e-09
4.9729429e-05
4.6342701e-09
0.0001422324
1.2259036e-08
0.00034262351
2.8392663e-08
0.00075130701
5.9564589e-08
0.0015359442
1.1379126e-07
0.0029399337
1.9469379e-07
0.0052368863
2.8546716e-07
0.0085727242
3.2695118e-07
0.012686382
2.3359717e-07
0.016681189
-2.6942313e-11
0.019207842
-2.3362313e-07
0.019207842
-3.2691345e-07
0.016681189
-2.8538992e-07
0.012686382
-1.946492e-07
0.0085727241
-1.1386124e-07
0.0052368862
-5.9800954e-08
0.0029399336
-2.8780183e-08
0.0015359442
-1.27131e-08
0.00075130702
-5.0410276e-09
0.00034262352
-1.6685959e-09
0.0001422324
-3.6991909e-10
4.9729429e-05
1.0126477e-05
2.2643674e-10
1.0126253e-05
1.3161173e-09
4.9728343e-05
4.3788671e-09
0.00014222934
1.1582066e-08
0.00034261631
2.6823001e-08
0.00075129177
5.6271668e-08
0.0015359147
1.0751271e-07
0.0029398824
1.8400662e-07
0.0052368098
2.6996571e-07
0.0085726382
3.0957216e-07
0.012686342
2.2153019e-07
0.016681277
-2.8196994e-11
0.019208064
-2.215575e-07
0.019208064
-3.0953296e-07
0.016681277
-2.6988499e-07
0.012686342
-1.8395958e-07
0.0085726382
-1.0758556e-07
0.0052368097
-5.6519853e-08
0.0029398824
-2.7231306e-08
0.0015359147
-1.2061495e-08
0.00075129177
-4.8089298e-09
0.00034261632
-1.6081834e-09
0.00014222934
-3.6456742e-10
4.9728343e-05
1.0126253e-05
2.141505e-10
1.0126041e-05
1.2438406e-09
4.9727316e-05
4.137585e-09
0.00014222645
1.0943484e-08
0.00034260951
2.5345212e-08
0.00075127736
5.3175486e-08
0.0015358869
1.0160631e-07
0.002939834
1.7392613e-07
0.0052367374
2.5527442e-07
0.0085725569
2.929277e-07
0.012686304
2.0983664e-07
0.01668136
-2.9301576e-11
0.019208274
-2.0986478e-07
0.019208274
-2.9288622e-07
0.01668136
-2.551891e-07
0.012686304
-1.7387571e-07
0.0085725568
-1.0168228e-07
0.0052367374
-5.3437577e-08
0.002939834
-2.5778039e-08
0.0015358869
-1.1452707e-08
0.00075127737
-4.5948937e-09
0.00034260952
-1.5546419e-09
0.00014222645
-3.6120124e-10
4.9727316e-05
1.0126041e-05
2.0287735e-10
1.0125841e-05
1.1776807e-09
4.9726345e-05
3.9165433e-09
0.00014222371
1.0356518e-08
0.00034260307
2.3980701e-08
0.00075126374
5.0305306e-08
0.0015358606
9.6122346e-08
0.0029397882
1.645756e-07
0.005236669
2.4167765e-07
0.0085724798
2.7762056e-07
0.012686268
1.991459e-07
0.016681439
-3.0062071e-11
0.019208473
-1.991739e-07
0.019208473
-2.7757555e-07
0.016681439
-2.4158629e-07
0.012686268
-1.6452074e-07
0.0085724797
-9.6201619e-08
0.0052366689
-5.0583293e-08
0.0029397881
-2.4441492e-08
0.0015358606
-1.0899435e-08
0.00075126375
-4.4043959e-09
0.00034260308
-1.509367e-09
0.00014222371
-3.5983067e-10
4.9726345e-05
1.0125841e-05
1.9201915e-10
1.0125652e-05
1.1137254e-09
4.9725426e-05
3.7031734e-09
0.00014222113
9.79312e-09
0.00034259699
2.2680815e-08
0.00075125085
4.758783e-08
0.0015358356
9.0937505e-08
0.0029397448
1.5570201e-07
0.0052366042
2.2868775e-07
0.0085724068
2.6281791e-07
0.012686234
1.8866429e-07
0.016681513
-3.0411291e-11
0.019208662
-1.8869113e-07
0.019208662
-2.6276798e-07
0.016681513
-2.2858891e-07
0.012686234
-1.5564195e-07
0.0085724067
-9.1020928e-08
0.0052366041
-4.7884809e-08
0.0029397448
-2.3174691e-08
0.0015358356
-1.0375691e-08
0.00075125086
-4.2268395e-09
0.00034259699
-1.4697889e-09
0.00014222113
-3.6048069e-10
4.9725426e-05
1.0125652e-05
1.8271463e-10
1.0125472e-05
1.0592352e-09
4.9724553e-05
3.520551e-09
0.00014221867
9.3044552e-09
0.0003425912
2.1533528e-08
0.00075123862
4.5152463e-08
0.001535812
8.6257924e-08
0.0029397037
1.4770349e-07
0.0052365428
2.1703707e-07
0.0085723374
2.4967128e-07
0.012686202
1.7944228e-07
0.016681583
-3.0337215e-11
0.019208841
-1.7946672e-07
0.019208841
-2.4961445e-07
0.016681583
-2.1692885e-07
0.012686202
-1.4763763e-07
0.0085723373
-8.6346775e-08
0.0052365427
-4.5470931e-08
0.0029397037
-2.2062746e-08
0.001535812
-9.9276454e-09
0.00075123864
-4.0797551e-09
0.00034259121
-1.4389873e-09
0.00014221867
-3.6222011e-10
4.9724553e-05
1.0125472e-05
1.7166755e-10
1.0125303e-05
9.9445595e-10
4.9723734e-05
3.3074105e-09
0.00014221636
8.7553502e-09
0.00034258576
2.0307029e-08
0.00075122707
4.2673006e-08
0.0015357897
8.164731e-08
0.0029396647
1.3992299e-07
0.0052364845
2.0570338e-07
0.0085722716
2.3672511e-07
0.012686171
1.7026379e-07
0.01668165
-3.0268632e-11
0.019209011
-1.7028527e-07
0.019209011
-2.3665956e-07
0.01668165
-2.055837e-07
0.012686171
-1.3985072e-07
0.0085722715
-8.1742356e-08
0.0052364844
-4.3012504e-08
0.0029396647
-2.0867097e-08
0.0015357897
-9.4104654e-09
0.00075122709
-3.8919927e-09
0.00034258577
-1.389984e-09
0.00014221636
-3.5817548e-10
4.9723735e-05
1.0125303e-05
1.6688857e-10
1.0125139e-05
9.666044e-10
4.9722938e-05