/*--------------------------------*- C++ -*----------------------------------*\
| =========                 |                                                 |
| \\      /  F ield         | OpenFOAM: The Open Source CFD Toolbox           |
|  \\    /   O peration     | Version:  2406                                  |
|   \\  /    A nd           | Website:  www.openfoam.com                      |
|    \\/     M anipulation  |                                                 |
\*---------------------------------------------------------------------------*/
FoamFile
{
    version     2.0;
    format      ascii;
    arch        "LSB;label=32;scalar=64";
    class       volVectorField;
    location    "23";
    object      U;
}
// * * * * * * * * * * * * * * * * * * * * * * * * * * * * * * * * * * * * * //

dimensions      [0 1 -1 0 0 0 0];

internalField   nonuniform List<vector> 
1176
(
(0.019493789 7.0786623e-07 0)
(0.066677318 8.1696699e-06 0)
(0.13357994 3.950319e-05 0)
(0.22724701 0.0001087358 0)
(0.35591522 0.00021176032 0)
(0.52772023 0.00030396292 0)
(0.74780387 0.00031818028 0)
(1.0136216 0.00024904598 0)
(1.3093323 0.00016667004 0)
(1.6017081 0.00011264685 0)
(1.8421723 7.0214029e-05 0)
(1.9793239 2.3940471e-05 0)
(1.9793239 -2.3941497e-05 0)
(1.8421723 -7.0215884e-05 0)
(1.6017081 -0.00011265066 0)
(1.3093323 -0.00016667663 0)
(1.0136216 -0.00024905735 0)
(0.7478039 -0.00031820313 0)
(0.52772028 -0.00030400586 0)
(0.35591528 -0.00021182231 0)
(0.22724705 -0.0001088017 0)
(0.13357998 -3.9555879e-05 0)
(0.06667734 -8.1988894e-06 0)
(0.019493797 -7.1418406e-07 0)
(0.020187017 -3.7419158e-06 0)
(0.068813532 -2.4638629e-05 0)
(0.13732107 -9.6548533e-05 0)
(0.23247391 -0.00024839458 0)
(0.36204617 -0.00047268779 0)
(0.53373556 -0.00067421181 0)
(0.75267407 -0.00069486941 0)
(1.0170176 -0.00049687364 0)
(1.3116385 -0.00023345914 0)
(1.6034438 -4.9824363e-05 0)
(1.8436588 1.976481e-05 0)
(1.9807026 1.3427866e-05 0)
(1.9807026 -1.3427363e-05 0)
(1.8436588 -1.9763762e-05 0)
(1.6034438 4.9826361e-05 0)
(1.3116385 0.00023346209 0)
(1.0170176 0.00049687653 0)
(0.75267405 0.00069487186 0)
(0.53373556 0.00067421766 0)
(0.36204618 0.00047270026 0)
(0.23247392 0.00024841037 0)
(0.13732109 9.6561823e-05 0)
(0.068813543 2.4645972e-05 0)
(0.020187022 3.7434049e-06 0)
(0.020018442 2.0918388e-06 0)
(0.068327405 1.2720782e-05 0)
(0.13655404 4.6877274e-05 0)
(0.23159544 0.00011389741 0)
(0.36138708 0.00019769271 0)
(0.53366969 0.00023903238 0)
(0.75344344 0.00020559814 0)
(1.0184881 0.00011361113 0)
(1.3134639 7.4313505e-05 0)
(1.6053464 7.9532713e-05 0)
(1.8455118 7.0516329e-05 0)
(1.9825245 2.7825661e-05 0)
(1.9825245 -2.782485e-05 0)
(1.8455118 -7.0514592e-05 0)
(1.6053464 -7.9529666e-05 0)
(1.3134639 -7.4310465e-05 0)
(1.0184881 -0.00011361016 0)
(0.75344345 -0.00020560129 0)
(0.53366969 -0.00023903342 0)
(0.36138708 -0.00019769258 0)
(0.23159544 -0.00011389584 0)
(0.13655404 -4.6875046e-05 0)
(0.068327402 -1.2719145e-05 0)
(0.02001844 -2.0914113e-06 0)
(0.019966547 7.0076671e-07 0)
(0.068159231 4.6870566e-06 0)
(0.13624021 1.9355459e-05 0)
(0.2311194 5.6456195e-05 0)
(0.36078093 0.00013444569 0)
(0.53306293 0.00025829321 0)
(0.75295637 0.00035344744 0)
(1.0181104 0.00036911999 0)
(1.313184 0.00030758863 0)
(1.6051633 0.00022777221 0)
(1.8453995 0.00014555918 0)
(1.9824491 4.9997129e-05 0)
(1.9824491 -4.9996888e-05 0)
(1.8453995 -0.00014555847 0)
(1.6051633 -0.00022777108 0)
(1.313184 -0.00030758917 0)
(1.0181104 -0.00036912189 0)
(0.75295637 -0.00035344802 0)
(0.53306293 -0.00025829478 0)
(0.36078092 -0.00013444638 0)
(0.2311194 -5.6456647e-05 0)
(0.1362402 -1.9355867e-05 0)
(0.068159231 -4.6872953e-06 0)
(0.019966547 -7.0082035e-07 0)
(0.019942203 2.9076735e-07 0)
(0.068078703 1.9871965e-06 0)
(0.13608628 8.2361051e-06 0)
(0.23087699 2.369931e-05 0)
(0.36044744 5.6881612e-05 0)
(0.53266448 0.00012306885 0)
(0.75256878 0.00022681818 0)
(1.017808 0.0003227222 0)
(1.3129044 0.00034572458 0)
(1.604912 0.00030729967 0)
(1.8452029 0.00021095293 0)
(1.9822898 7.4614336e-05 0)
(1.9822898 -7.4614594e-05 0)
(1.8452029 -0.00021095307 0)
(1.604912 -0.00030729988 0)
(1.3129044 -0.00034572452 0)
(1.017808 -0.00032272208 0)
(0.75256878 -0.00022681582 0)
(0.53266448 -0.00012306438 0)
(0.36044744 -5.6875685e-05 0)
(0.23087699 -2.3693682e-05 0)
(0.13608628 -8.2319578e-06 0)
(0.068078703 -1.9849773e-06 0)
(0.019942204 -2.9029377e-07 0)
(0.019933132 1.7181221e-07 0)
(0.068047755 1.194062e-06 0)
(0.13602488 5.0651735e-06 0)
(0.23077535 1.4968828e-05 0)
(0.36029898 3.621952e-05 0)
(0.5324792 7.6944241e-05 0)
(0.75239427 0.00014713775 0)
(1.0177222 0.00023749034 0)
(1.3129292 0.00028525603 0)
(1.6049746 0.0002744149 0)
(1.8452865 0.00019644614 0)
(1.9823834 7.1176872e-05 0)
(1.9823834 -7.1177199e-05 0)
(1.8452865 -0.00019644662 0)
(1.6049746 -0.00027441566 0)
(1.3129292 -0.00028525645 0)
(1.0177222 -0.00023748992 0)
(0.75239427 -0.00014713577 0)
(0.5324792 -7.6940865e-05 0)
(0.36029898 -3.6215381e-05 0)
(0.23077535 -1.4964892e-05 0)
(0.13602488 -5.0621816e-06 0)
(0.068047755 -1.192408e-06 0)
(0.019933131 -1.7144912e-07 0)
(0.0199234 1.5587277e-07 0)
(0.068015506 1.0700612e-06 0)
(0.13596286 4.4934374e-06 0)
(0.23067607 1.3195427e-05 0)
(0.36015773 3.1857098e-05 0)
(0.53230178 6.6958235e-05 0)
(0.75221429 0.00012411893 0)
(1.0176105 0.00019917062 0)
(1.3129358 0.00025490859 0)
(1.6050904 0.00024595186 0)
(1.8454579 0.00018127914 0)
(1.9825798 6.6548698e-05 0)
(1.9825798 -6.6548471e-05 0)
(1.8454579 -0.00018127914 0)
(1.6050904 -0.00024595222 0)
(1.3129358 -0.00025490884 0)
(1.0176105 -0.00019917003 0)
(0.75221429 -0.00012411713 0)
(0.53230178 -6.6955361e-05 0)
(0.36015773 -3.1853654e-05 0)
(0.23067607 -1.3192192e-05 0)
(0.13596286 -4.4910011e-06 0)
(0.068015506 -1.0687212e-06 0)
(0.0199234 -1.5557989e-07 0)
(0.019915697 1.2758151e-07 0)
(0.067989792 8.779936e-07 0)
(0.13591293 3.6959566e-06 0)
(0.23059503 1.0901543e-05 0)
(0.36003987 2.6613288e-05 0)
(0.53214753 5.7237088e-05 0)
(0.75204133 0.00010911051 0)
(1.0174723 0.00017936638 0)
(1.3128926 0.00023802498 0)
(1.6051414 0.00023746782 0)
(1.8455877 0.00017750713 0)
(1.9827514 6.5539755e-05 0)
(1.9827514 -6.5539257e-05 0)
(1.8455877 -0.00017750692 0)
(1.6051414 -0.00023746798 0)
(1.3128926 -0.00023802504 0)
(1.0174723 -0.00017936576 0)
(0.75204133 -0.0001091089 0)
(0.53214753 -5.7234442e-05 0)
(0.36003987 -2.6609997e-05 0)
(0.23059502 -1.0898365e-05 0)
(0.13591293 -3.6935224e-06 0)
(0.067989792 -8.7664393e-07 0)
(0.019915697 -1.2728611e-07 0)
(0.019909217 1.0465061e-07 0)
(0.067968141 7.2309996e-07 0)
(0.13587084 3.0520351e-06 0)
(0.23052654 9.011736e-06 0)
(0.35993984 2.1999778e-05 0)
(0.53201542 4.7473362e-05 0)
(0.75188901 9.2014041e-05 0)
(1.0173341 0.00015618194 0)
(1.3128278 0.00021699694 0)
(1.6051595 0.00022709661 0)
(1.8456699 0.00017232676 0)
(1.982868 6.4148153e-05 0)
(1.982868 -6.4147488e-05 0)
(1.8456699 -0.00017232643 0)
(1.6051595 -0.00022709667 0)
(1.3128278 -0.00021699707 0)
(1.0173341 -0.00015618153 0)
(0.75188901 -9.2012723e-05 0)
(0.53201542 -4.7470995e-05 0)
(0.35993984 -2.1996716e-05 0)
(0.23052654 -9.0087315e-06 0)
(0.13587083 -3.0497199e-06 0)
(0.067968141 -7.218125e-07 0)
(0.019909217 -1.0436844e-07 0)
(0.019903971 8.6117748e-08 0)
(0.067950552 5.9691927e-07 0)
(0.13583649 2.527297e-06 0)
(0.2304703 7.4915048e-06 0)
(0.35985692 1.8376184e-05 0)
(0.53190436 3.9835599e-05 0)
(0.75175836 7.7712114e-05 0)
(1.0172122 0.00013432437 0)
(1.3127613 0.00019323383 0)
(1.6051772 0.00021058378 0)
(1.8457533 0.00016273017 0)
(1.9829863 6.1084694e-05 0)
(1.9829863 -6.1084082e-05 0)
(1.8457533 -0.00016272994 0)
(1.6051772 -0.00021058401 0)
(1.3127613 -0.00019323415 0)
(1.0172122 -0.00013432417 0)
(0.75175836 -7.7710972e-05 0)
(0.53190436 -3.9833381e-05 0)
(0.35985692 -1.8373289e-05 0)
(0.2304703 -7.4886914e-06 0)
(0.13583649 -2.5251543e-06 0)
(0.067950552 -5.9573714e-07 0)
(0.019903971 -8.5859799e-08 0)
(0.019899543 7.3348188e-08 0)
(0.067935688 5.0892114e-07 0)
(0.13580742 2.1568125e-06 0)
(0.23042259 6.4026627e-06 0)
(0.35978626 1.5747485e-05 0)
(0.5318089 3.4277736e-05 0)
(0.75164409 6.7204545e-05 0)
(1.017102 0.00011722991 0)
(1.3126976 0.00017262469 0)
(1.6051928 0.00019308925 0)
(1.8458371 0.00015219902 0)
(1.9831061 5.7545137e-05 0)
(1.9831061 -5.7544726e-05 0)
(1.8458371 -0.00015219902 0)
(1.6051928 -0.00019308972 0)
(1.3126976 -0.0001726252 0)
(1.0171021 -0.00011722985 0)
(0.75164409 -6.7203516e-05 0)
(0.5318089 -3.4275693e-05 0)
(0.35978626 -1.5744879e-05 0)
(0.23042259 -6.4001936e-06 0)
(0.13580742 -2.1549726e-06 0)
(0.067935688 -5.0792021e-07 0)
(0.019899543 -7.3131384e-08 0)
(0.019895721 6.3720183e-08 0)
(0.06792285 4.4248792e-07 0)
(0.13578228 1.8766761e-06 0)
(0.23038125 5.5764452e-06 0)
(0.35972483 1.3738594e-05 0)
(0.53172535 2.9997927e-05 0)
(0.75154264 5.9111491e-05 0)
(1.0170011 0.00010388813 0)
(1.3126344 0.00015540278 0)
(1.6052015 0.00017849537 0)
(1.8459125 0.00014271578 0)
(1.9832185 5.4330832e-05 0)
(1.9832185 -5.433065e-05 0)
(1.8459125 -0.00014271598 0)
(1.6052015 -0.00017849599 0)
(1.3126344 -0.00015540338 0)
(1.0170011 -0.00010388813 0)
(0.75154264 -5.9110603e-05 0)
(0.53172535 -2.9996242e-05 0)
(0.35972483 -1.3736566e-05 0)
(0.23038125 -5.5746202e-06 0)
(0.13578228 -1.8753718e-06 0)
(0.067922849 -4.417974e-07 0)
(0.019895721 -6.3572699e-08 0)
(0.019892371 5.6084411e-08 0)
(0.067911586 3.8975058e-07 0)
(0.13576021 1.6540734e-06 0)
(0.2303449 4.9186946e-06 0)
(0.35967069 1.2131931e-05 0)
(0.53165136 2.6542357e-05 0)
(0.7514519 5.249869e-05 0)
(1.0169086 9.2875593e-05 0)
(1.3125728 0.0001406148 0)
(1.605205 0.00016529618 0)
(1.8459798 0.0001339894 0)
(1.9833221 5.1387549e-05 0)
(1.9833221 -5.1387575e-05 0)
(1.8459798 -0.00013398976 0)
(1.605205 -0.00016529686 0)
(1.3125728 -0.00014061537 0)
(1.0169086 -9.2875607e-05 0)
(0.7514519 -5.2498029e-05 0)
(0.53165136 -2.6541265e-05 0)
(0.35967069 -1.2130807e-05 0)
(0.2303449 -4.9178325e-06 0)
(0.13576021 -1.6535466e-06 0)
(0.067911586 -3.8950323e-07 0)
(0.01989237 -5.6035123e-08 0)
(0.019889403 4.9843536e-08 0)
(0.067901607 3.4659109e-07 0)
(0.13574064 1.4717131e-06 0)
(0.23031264 4.3793162e-06 0)
(0.35962253 1.0812219e-05 0)
(0.53158531 2.3691307e-05 0)
(0.75137029 4.6984023e-05 0)
(1.016824 8.3546162e-05 0)
(1.3125139 0.00012773732 0)
(1.6052051 0.00015293339 0)
(1.8460415 0.00012582039 0)
(1.9834196 4.8616494e-05 0)
(1.9834196 -4.8616694e-05 0)
(1.8460415 -0.00012582084 0)
(1.6052051 -0.00015293405 0)
(1.3125139 -0.0001277378 0)
(1.016824 -8.3546187e-05 0)
(0.75137029 -4.6983708e-05 0)
(0.53158531 -2.3691048e-05 0)
(0.35962253 -1.0812304e-05 0)
(0.23031264 -4.3797056e-06 0)
(0.13574064 -1.472179e-06 0)
(0.067901606 -3.4690407e-07 0)
(0.019889403 -4.9917839e-08 0)
(0.019886752 4.4692656e-08 0)
(0.067892685 3.1091362e-07 0)
(0.13572313 1.3207585e-06 0)
(0.23028375 3.9321173e-06 0)
(0.35957935 9.7157664e-06 0)
(0.53152592 2.1315462e-05 0)
(0.75129648 4.2360114e-05 0)
(1.0167465 7.5619721e-05 0)
(1.3124581 0.00011654216 0)
(1.6052027 0.00014169858 0)
(1.8460982 0.00011827093 0)
(1.9835117 4.6031465e-05 0)
(1.9835117 -4.6031805e-05 0)
(1.8460982 -0.00011827143 0)
(1.6052027 -0.00014169915 0)
(1.3124581 -0.00011654251 0)
(1.0167465 -7.5619776e-05 0)
(0.75129648 -4.2360258e-05 0)
(0.53152592 -2.1316243e-05 0)
(0.35957935 -9.7173126e-06 0)
(0.23028375 -3.9339943e-06 0)
(0.13572313 -1.3223929e-06 0)
(0.067892684 -3.1188249e-07 0)
(0.019886751 -4.4911258e-08 0)
(0.019884362 4.0378979e-08 0)
(0.067884644 2.810035e-07 0)
(0.13570735 1.1940846e-06 0)
(0.23025769 3.5563786e-06 0)
(0.35954035 8.7927541e-06 0)
(0.53147216 1.9309872e-05 0)
(0.75122934 3.8439986e-05 0)
(1.0166753 6.8838741e-05 0)
(1.3124053 0.00010678332 0)
(1.6051983 0.00013155209 0)
(1.8461504 0.00011132784 0)
(1.9835985 4.3630961e-05 0)
(1.9835985 -4.3631418e-05 0)
(1.8461504 -0.00011132836 0)
(1.6051983 -0.00013155254 0)
(1.3124053 -0.0001067835 0)
(1.0166753 -6.8838844e-05 0)
(0.75122934 -3.8440681e-05 0)
(0.53147216 -1.9311847e-05 0)
(0.35954035 -8.7959492e-06 0)
(0.23025769 -3.5599188e-06 0)
(0.13570735 -1.1970186e-06 0)
(0.067884643 -2.8269981e-07 0)
(0.019884362 -4.0757425e-08 0)
(0.019882195 3.670294e-08 0)
(0.067877349 2.5549789e-07 0)
(0.13569303 1.0859977e-06 0)
(0.23023403 3.2355055e-06 0)
(0.3595049 8.0034202e-06 0)
(0.5314232 1.7590742e-05 0)
(0.75116796 3.5067013e-05 0)
(1.0166096 6.2963898e-05 0)
(1.3123553 9.820294e-05 0)
(1.6051923 0.00012233335 0)
(1.8461982 0.0001049129 0)
(1.9836803 4.1390186e-05 0)
(1.9836803 -4.1390743e-05 0)
(1.8461982 -0.0001049134 0)
(1.6051923 -0.00012233364 0)
(1.3123553 -9.8202937e-05 0)
(1.0166096 -6.296406e-05 0)
(0.75116796 -3.5068319e-05 0)
(0.5314232 -1.7594019e-05 0)
(0.3595049 -8.008397e-06 0)
(0.23023403 -3.2408341e-06 0)
(0.13569302 -1.0903254e-06 0)
(0.067877348 -2.5797323e-07 0)
(0.019882195 -3.7252464e-08 0)
(0.019880219 3.3529784e-08 0)
(0.067870695 2.3346803e-07 0)
(0.13567996 9.9258792e-07 0)
(0.23021243 2.9580217e-06 0)
(0.35947252 7.3201198e-06 0)
(0.53137842 1.6099926e-05 0)
(0.75111164 3.2132759e-05 0)
(1.0165488 5.7823101e-05 0)
(1.3123082 9.0602143e-05 0)
(1.6051852 0.00011395308 0)
(1.8462423 9.895562e-05 0)
(1.9837576 3.9288594e-05 0)
(1.9837576 -3.928924e-05 0)
(1.8462423 -9.8956089e-05 0)
(1.6051852 -0.00011395317 0)
(1.3123082 -9.0601926e-05 0)
(1.0165488 -5.7823322e-05 0)
(0.75111164 -3.2134716e-05 0)
(0.53137842 -1.6104581e-05 0)
(0.35947252 -7.3269737e-06 0)
(0.23021243 -2.9652298e-06 0)
(0.13567996 -9.9837835e-07 0)
(0.067870695 -2.3676042e-07 0)
(0.019880219 -3.4258682e-08 0)
(0.019878409 3.0765537e-08 0)
(0.0678646 2.1426535e-07 0)
(0.13566798 9.1111956e-07 0)
(0.23019263 2.7158604e-06 0)
(0.35944282 6.7232544e-06 0)
(0.53133728 1.4795798e-05 0)
(0.75105976 2.9559421e-05 0)
(1.0164925 5.329221e-05 0)
(1.3122638 8.3831195e-05 0)
(1.6051772 0.00010632364 0)
(1.846283 9.3402791e-05 0)
(1.9838307 3.7311979e-05 0)
(1.9838307 -3.7312707e-05 0)
(1.846283 -9.340321e-05 0)
(1.6051772 -0.0001063235 0)
(1.3122638 -8.3830736e-05 0)
(1.0164925 -5.3292486e-05 0)
(0.75105976 -2.9562058e-05 0)
(0.53133728 -1.4801888e-05 0)
(0.35944282 -6.7320584e-06 0)
(0.23019263 -2.7250186e-06 0)
(0.13566798 -9.1842652e-07 0)
(0.067864599 -2.184045e-07 0)
(0.019878409 -3.1680305e-08 0)
(0.019876745 2.8336387e-08 0)
(0.067858993 1.9738164e-07 0)
(0.13565697 8.3945366e-07 0)
(0.23017441 2.5027212e-06 0)
(0.35941547 6.197501e-06 0)
(0.53129936 1.3645602e-05 0)
(0.75101183 2.7285052e-05 0)
(1.0164401 4.9271386e-05 0)
(1.3122219 7.7767286e-05 0)
(1.6051688 9.9355645e-05 0)
(1.8463207 8.8213019e-05 0)
(1.9838998 3.5448964e-05 0)
(1.9838998 -3.5449773e-05 0)
(1.8463207 -8.8213371e-05 0)
(1.6051688 -9.9355258e-05 0)
(1.3122219 -7.7766561e-05 0)
(1.0164401 -4.9271713e-05 0)
(0.75101183 -2.7288389e-05 0)
(0.53129936 -1.3653172e-05 0)
(0.35941547 -6.2083145e-06 0)
(0.23017441 -2.5138874e-06 0)
(0.13565697 -8.4832136e-07 0)
(0.067858992 -2.0239198e-07 0)
(0.019876745 -2.9442354e-08 0)
(0.019875208 2.6184232e-08 0)
(0.067853818 1.8241638e-07 0)
(0.1356468 7.7590297e-07 0)
(0.23015758 2.3136313e-06 0)
(0.3593902 5.7307584e-06 0)
(0.5312643 1.2623406e-05 0)
(0.75096742 2.5260119e-05 0)
(1.0163914 4.5679214e-05 0)
(1.3121824 7.2307623e-05 0)
(1.6051599 9.2972841e-05 0)
(1.8463555 8.3349692e-05 0)
(1.9839652 3.3688893e-05 0)
(1.9839652 -3.3689786e-05 0)
(1.8463555 -8.3349963e-05 0)
(1.6051599 -9.2972177e-05 0)
(1.3121824 -7.2306612e-05 0)
(1.0163914 -4.5679588e-05 0)
(0.75096741 -2.5264172e-05 0)
(0.53126429 -1.2632493e-05 0)
(0.3593902 -5.7436308e-06 0)
(0.23015758 -2.3268535e-06 0)
(0.1356468 -7.863677e-07 0)
(0.067853817 -1.8831783e-07 0)
(0.019875208 -2.7485721e-08 0)
(0.019873786 2.4263802e-08 0)
(0.067849027 1.6905688e-07 0)
(0.13563738 7.191481e-07 0)
(0.230142 2.1446946e-06 0)
(0.35936679 5.3135216e-06 0)
(0.53123178 1.1708783e-05 0)
(0.75092616 2.3445394e-05 0)
(1.016346 4.245024e-05 0)
(1.3121452 6.736717e-05 0)
(1.6051509 8.7106946e-05 0)
(1.8463878 7.8784465e-05 0)
(1.9840271 3.2023185e-05 0)
(1.9840271 -3.2024167e-05 0)
(1.8463878 -7.8784648e-05 0)
(1.6051509 -8.7105987e-05 0)
(1.3121451 -6.7365857e-05 0)
(1.016346 -4.2450657e-05 0)
(0.75092616 -2.3450177e-05 0)
(0.53123178 -1.1719417e-05 0)
(0.35936679 -5.328491e-06 0)
(0.230142 -2.1600087e-06 0)
(0.13563738 -7.312365e-07 0)
(0.067849027 -1.7586382e-07 0)
(0.019873786 -2.5763901e-08 0)
(0.019872467 2.2539466e-08 0)
(0.067844581 1.5705675e-07 0)
(0.13562864 6.6814812e-07 0)
(0.23012754 1.9928327e-06 0)
(0.35934505 4.9382659e-06 0)
(0.53120156 1.0885521e-05 0)
(0.75088776 2.180965e-05 0)
(1.0163035 3.953194e-05 0)
(1.31211 6.2876056e-05 0)
(1.6051418 8.170145e-05 0)
(1.8464178 7.4491102e-05 0)
(1.9840857 3.0443692e-05 0)
(1.9840857 -3.0444774e-05 0)
(1.8464178 -7.4491195e-05 0)
(1.6051418 -8.1700185e-05 0)
(1.31211 -6.2874431e-05 0)
(1.0163035 -3.9532397e-05 0)
(0.75088776 -2.1815173e-05 0)
(0.53120156 -1.0897721e-05 0)
(0.35934505 -4.9553554e-06 0)
(0.23012754 -2.0102584e-06 0)
(0.13562864 -6.8187365e-07 0)
(0.067844581 -1.6477603e-07 0)
(0.019872467 -2.4239595e-08 0)
(0.01987124 2.0982705e-08 0)
(0.067840446 1.4621863e-07 0)
(0.13562051 6.2206887e-07 0)
(0.23011408 1.8555765e-06 0)
(0.35932481 4.5989455e-06 0)
(0.53117342 1.0140557e-05 0)
(0.75085195 2.0327628e-05 0)
(1.0162638 3.6881613e-05 0)
(1.3120768 5.8776565e-05 0)
(1.6051327 7.6706079e-05 0)
(1.8464458 7.0450485e-05 0)
(1.9841412 2.894437e-05 0)
(1.9841412 -2.8945563e-05 0)
(1.8464458 -7.045049e-05 0)
(1.6051327 -7.6704503e-05 0)
(1.3120768 -5.8774621e-05 0)
(1.0162638 -3.688211e-05 0)
(0.75085194 -2.0333897e-05 0)
(0.53117342 -1.0154331e-05 0)
(0.35932481 -4.6181582e-06 0)
(0.23011408 -1.8751128e-06 0)
(0.13562051 -6.374282e-07 0)
(0.067840445 -1.5484757e-07 0)
(0.01987124 -2.2882176e-08 0)
(0.019870096 1.9570456e-08 0)
(0.067836592 1.3638285e-07 0)
(0.13561293 5.8023511e-07 0)
(0.23010153 1.7309264e-06 0)
(0.35930594 4.2906604e-06 0)
(0.53114716 9.4632895e-06 0)
(0.75081849 1.8978768e-05 0)
(1.0162266 3.4464266e-05 0)
(1.3120455 5.5020561e-05 0)
(1.6051237 7.2080041e-05 0)
(1.8464718 6.6641842e-05 0)
(1.9841938 2.7518786e-05 0)
(1.9841938 -2.7520104e-05 0)
(1.8464718 -6.6641764e-05 0)
(1.6051237 -7.2078154e-05 0)
(1.3120455 -5.5018297e-05 0)
(1.0162266 -3.4464805e-05 0)
(0.75081849 -1.8985783e-05 0)
(0.53114716 -9.4786267e-06 0)
(0.35930594 -4.3119755e-06 0)
(0.23010153 -1.7525468e-06 0)
(0.13561293 -5.9720504e-07 0)
(0.067836592 -1.4590761e-07 0)
(0.019870096 -2.1666126e-08 0)
(0.019869029 1.8283843e-08 0)
(0.067832994 1.2741869e-07 0)
(0.13560586 5.4209382e-07 0)
(0.23008981 1.6172434e-06 0)
(0.35928831 4.0093898e-06 0)
(0.53112262 8.8450005e-06 0)
(0.75078719 1.7746117e-05 0)
(1.0161917 3.2250955e-05 0)
(1.3120159 5.1567844e-05 0)
(1.6051149 6.7785497e-05 0)
(1.846496 6.3051951e-05 0)
(1.9842436 2.616291e-05 0)
(1.9842436 -2.6164366e-05 0)
(1.846496 -6.3051799e-05 0)
(1.6051149 -6.7783303e-05 0)
(1.3120159 -5.1565263e-05 0)
(1.0161917 -3.2251538e-05 0)
(0.75078719 -1.775387e-05 0)
(0.53112262 -8.8618731e-06 0)
(0.35928832 -4.0327593e-06 0)
(0.23008981 -1.6408946e-06 0)
(0.13560586 -5.6062992e-07 0)
(0.067832994 -1.3781353e-07 0)
(0.019869029 -2.0569962e-08 0)
(0.019868031 1.7107304e-08 0)
(0.067829631 1.1921831e-07 0)
(0.13559924 5.0718881e-07 0)
(0.23007886 1.5131757e-06 0)
(0.35927183 3.7518167e-06 0)
(0.53109966 8.2784973e-06 0)
(0.75075787 1.6615666e-05 0)
(1.0161589 3.0217593e-05 0)
(1.311988 4.8384384e-05 0)
(1.6051063 6.3792836e-05 0)
(1.8465187 5.9662622e-05 0)
(1.9842909 2.4871384e-05 0)
(1.9842909 -2.487299e-05 0)
(1.8465187 -5.9662404e-05 0)
(1.6051063 -6.3790342e-05 0)
(1.311988 -4.8381493e-05 0)
(1.0161589 -3.0218222e-05 0)
(0.75075787 -1.662414e-05 0)
(0.53109966 -8.2968566e-06 0)
(0.35927183 -3.7771652e-06 0)
(0.23007886 -1.538777e-06 0)
(0.13559924 -5.2722583e-07 0)
(0.067829631 -1.3044601e-07 0)
(0.019868031 -1.9575613e-08 0)
(0.019867097 1.6027829e-08 0)
(0.067826482 1.1169163e-07 0)
(0.13559305 4.7513895e-07 0)
(0.2300686 1.4175929e-06 0)
(0.35925639 3.5151629e-06 0)
(0.53107814 7.75774e-06 0)
(0.75073038 1.5575624e-05 0)
(1.0161281 2.8343924e-05 0)
(1.3119617 4.5441529e-05 0)
(1.6050979 6.0072546e-05 0)
(1.8465398 5.646541e-05 0)
(1.9843356 2.3641894e-05 0)
(1.9843356 -2.364366e-05 0)
(1.8465398 -5.6465137e-05 0)
(1.6050979 -6.0069762e-05 0)
(1.3119617 -4.543834e-05 0)
(1.0161281 -2.83446e-05 0)
(0.75073038 -1.5584792e-05 0)
(0.53107814 -7.777518e-06 0)
(0.35925639 -3.5423899e-06 0)
(0.2300686 -1.4450395e-06 0)
(0.13559305 -4.9659351e-07 0)
(0.067826482 -1.2370506e-07 0)
(0.019867096 -1.866792e-08 0)
(0.019866221 1.5034475e-08 0)
(0.067823531 1.047628e-07 0)
(0.13558724 4.4562328e-07 0)
(0.23005898 1.3295437e-06 0)
(0.35924191 3.2970939e-06 0)
(0.53105796 7.277661e-06 0)
(0.75070457 1.4616085e-05 0)
(1.0160992 2.6612762e-05 0)
(1.3119367 4.2714441e-05 0)
(1.6050897 5.660296e-05 0)
(1.8465596 5.3442744e-05 0)
(1.984378 2.2469463e-05 0)
(1.984378 -2.2471396e-05 0)
(1.8465596 -5.3442424e-05 0)
(1.6050897 -5.6599899e-05 0)
(1.3119367 -4.2710967e-05 0)
(1.0160992 -2.6613487e-05 0)
(0.75070457 -1.4625913e-05 0)
(0.53105796 -7.2987733e-06 0)
(0.35924191 -3.3260791e-06 0)
(0.23005898 -1.3587126e-06 0)
(0.13558724 -4.6839881e-07 0)
(0.067823531 -1.1750774e-07 0)
(0.019866221 -1.783442e-08 0)
(0.0198654 1.4117938e-08 0)
(0.067820761 9.8367444e-08 0)
(0.1355818 4.1836971e-07 0)
(0.23004996 1.2482206e-06 0)
(0.35922832 3.095621e-06 0)
(0.53103901 6.8339241e-06 0)
(0.75068032 1.3728559e-05 0)
(1.0160719 2.5009478e-05 0)
(1.3119132 4.0182229e-05 0)
(1.6050818 5.3360147e-05 0)
(1.8465781 5.0590809e-05 0)
(1.9844182 2.1353339e-05 0)
(1.9844182 -2.1355444e-05 0)
(1.8465781 -5.0590452e-05 0)
(1.6050818 -5.3356825e-05 0)
(1.3119132 -4.0178487e-05 0)
(1.0160719 -2.501025e-05 0)
(0.75068032 -1.3739003e-05 0)
(0.53103901 -6.856275e-06 0)
(0.35922832 -3.1262318e-06 0)
(0.23004996 -1.278979e-06 0)
(0.1355818 -4.4236328e-07 0)
(0.067820762 -1.1178658e-07 0)
(0.019865399 -1.7065162e-08 0)
(0.019864628 1.3270221e-08 0)
(0.067818161 9.2450107e-08 0)
(0.13557668 3.9314372e-07 0)
(0.23004148 1.1729292e-06 0)
(0.35921555 2.9090424e-06 0)
(0.5310212 6.4228371e-06 0)
(0.75065752 1.2905807e-05 0)
(1.0160463 2.3521367e-05 0)
(1.3118909 3.7826076e-05 0)
(1.6050743 5.0328286e-05 0)
(1.8465955 4.7890868e-05 0)
(1.9844563 2.0288212e-05 0)
(1.9844563 -2.0290494e-05 0)
(1.8465955 -4.7890487e-05 0)
(1.6050743 -5.0324723e-05 0)
(1.3118909 -3.7822086e-05 0)
(1.0160463 -2.3522187e-05 0)
(0.75065751 -1.2916823e-05 0)
(0.5310212 -6.446327e-06 0)
(0.35921556 -2.9411451e-06 0)
(0.23004148 -1.2051458e-06 0)
(0.13557668 -4.1825491e-07 0)
(0.067818161 -1.0648794e-07 0)
(0.019864628 -1.6352603e-08 0)
(0.019863903 1.2484488e-08 0)
(0.067815716 8.6963656e-08 0)
(0.13557187 3.6974639e-07 0)
(0.23003351 1.1030781e-06 0)
(0.35920355 2.7358965e-06 0)
(0.53100445 6.041198e-06 0)
(0.75063606 1.2141542e-05 0)
(1.0160221 2.2137625e-05 0)
(1.3118699 3.5630599e-05 0)
(1.6050669 4.7487335e-05 0)
(1.8466118 4.5344438e-05 0)
(1.9844924 1.9275038e-05 0)
(1.9844924 -1.9277504e-05 0)
(1.8466118 -4.5344045e-05 0)
(1.6050669 -4.7483552e-05 0)
(1.3118699 -3.5626383e-05 0)
(1.0160221 -2.213849e-05 0)
(0.75063605 -1.2153083e-05 0)
(0.53100445 -6.0657325e-06 0)
(0.35920355 -2.7693684e-06 0)
(0.23003351 -1.1366356e-06 0)
(0.13557187 -3.9588711e-07 0)
(0.067815716 -1.0157207e-07 0)
(0.019863903 -1.569157e-08 0)
(0.019863221 1.1754659e-08 0)
(0.067813417 8.1865806e-08 0)
(0.13556735 3.4799909e-07 0)
(0.23002601 1.0381403e-06 0)
(0.35919226 2.5748978e-06 0)
(0.53098868 5.68623e-06 0)
(0.75061585 1.1430307e-05 0)
(1.0159993 2.0848502e-05 0)
(1.31185 3.3580841e-05 0)
(1.6050599 4.4825767e-05 0)
(1.8466272 4.292961e-05 0)
(1.9845266 1.8307388e-05 0)
(1.9845266 -1.8310045e-05 0)
(1.8466272 -4.2929221e-05 0)
(1.6050599 -4.4821792e-05 0)
(1.31185 -3.3576422e-05 0)
(1.0159993 -2.0849413e-05 0)
(0.75061584 -1.1442331e-05 0)
(0.53098868 -5.7117296e-06 0)
(0.35919226 -2.609641e-06 0)
(0.23002601 -1.0729487e-06 0)
(0.13556735 -3.7510409e-07 0)
(0.067813417 -9.700989e-08 0)
(0.019863221 -1.5078935e-08 0)
(0.019862579 1.1075669e-08 0)
(0.067811252 7.7121982e-08 0)
(0.13556309 3.2775645e-07 0)
(0.23001895 9.7768143e-07 0)
(0.35918162 2.4249616e-06 0)
(0.53097384 5.3555312e-06 0)
(0.75059681 1.076737e-05 0)
(1.0159778 1.9645985e-05 0)
(1.3118312 3.1665727e-05 0)
(1.6050532 4.2326602e-05 0)
(1.8466415 4.0654805e-05 0)
(1.984559 1.7388441e-05 0)
(1.984559 -1.7391299e-05 0)
(1.8466415 -4.0654439e-05 0)
(1.6050532 -4.232246e-05 0)
(1.3118312 -3.1661128e-05 0)
(1.0159778 -1.9646942e-05 0)
(0.75059681 -1.0779849e-05 0)
(0.53097384 -5.3819435e-06 0)
(0.35918163 -2.4609191e-06 0)
(0.23001895 -1.0136947e-06 0)
(0.13556309 -3.5579608e-07 0)
(0.067811252 -9.2787168e-08 0)
(0.019862579 -1.451414e-08 0)
(0.019861974 1.0442644e-08 0)
(0.067809213 7.2697922e-08 0)
(0.13555908 3.0887367e-07 0)
(0.2300123 9.2127791e-07 0)
(0.3591716 2.2850705e-06 0)
(0.53095985 5.0469337e-06 0)
(0.75057886 1.0148464e-05 0)
(1.0159575 1.8522203e-05 0)
(1.3118134 2.9872445e-05 0)
(1.6050467 3.9981071e-05 0)
(1.8466551 3.8492309e-05 0)
(1.9845898 1.6509635e-05 0)
(1.9845898 -1.6512708e-05 0)
(1.8466551 -3.8491985e-05 0)
(1.6050467 -3.9976788e-05 0)
(1.3118134 -2.9867685e-05 0)
(1.0159575 -1.8523207e-05 0)
(0.75057886 -1.0161384e-05 0)
(0.53095985 -5.0742431e-06 0)
(0.35917161 -2.3222389e-06 0)
(0.2300123 -9.5850604e-07 0)
(0.13555908 -3.3786297e-07 0)
(0.067809213 -8.8894973e-08 0)
(0.019861974 -1.3997914e-08 0)
(0.019861404 9.8520176e-09 0)
(0.067807292 6.8569999e-08 0)
(0.13555529 2.9125224e-07 0)
(0.23000603 8.6862985e-07 0)
(0.35916216 2.1544489e-06 0)
(0.53094666 4.7586653e-06 0)
(0.75056194 9.570079e-06 0)
(1.0159384 1.7471466e-05 0)
(1.3117965 2.8193945e-05 0)
(1.6050405 3.7775493e-05 0)
(1.8466678 3.6460158e-05 0)
(1.9846188 1.5677392e-05 0)
(1.9846188 -1.5680692e-05 0)
(1.8466678 -3.6459893e-05 0)
(1.6050405 -3.7771088e-05 0)
(1.3117965 -2.8189039e-05 0)
(1.0159384 -1.7472521e-05 0)
(0.75056193 -9.5834441e-06 0)
(0.53094666 -4.7869017e-06 0)
(0.35916216 -2.1928898e-06 0)
(0.23000604 -9.0714925e-07 0)
(0.1355553 -3.2125869e-07 0)
(0.067807292 -8.533915e-08 0)
(0.019861404 -1.3533167e-08 0)
(0.019860867 9.299464e-09 0)
(0.067805479 6.4706931e-08 0)
(0.13555173 2.7475937e-07 0)
(0.23000012 8.1935652e-07 0)
(0.35915325 2.0322169e-06 0)
(0.53093422 4.488921e-06 0)
(0.75054596 9.0286701e-06 0)
(1.0159203 1.6486834e-05 0)
(1.3117806 2.6617758e-05 0)
(1.6050346 3.5701629e-05 0)
(1.8466798 3.4521092e-05 0)
(1.9846465 1.4879559e-05 0)
(1.9846465 -1.4883096e-05 0)
(1.8466798 -3.4520899e-05 0)
(1.6050346 -3.5697113e-05 0)
(1.3117806 -2.6612708e-05 0)
(1.0159203 -1.6487943e-05 0)
(0.75054595 -9.0425113e-06 0)
(0.53093422 -4.5181742e-06 0)
(0.35915325 -2.0720779e-06 0)
(0.23000012 -8.5933232e-07 0)
(0.13555173 -3.0592067e-07 0)
(0.06780548 -8.2127915e-08 0)
(0.019860867 -1.3124253e-08 0)
(0.01986036 8.7831946e-09 0)
(0.067803771 6.1098635e-08 0)
(0.13554837 2.5935462e-07 0)
(0.22999455 7.7331828e-07 0)
(0.35914485 1.9179409e-06 0)
(0.53092248 4.2365667e-06 0)
(0.75053089 8.5219335e-06 0)
(1.0159032 1.5565124e-05 0)
(1.3117655 2.5141793e-05 0)
(1.605029 3.3751128e-05 0)
(1.846691 3.2707138e-05 0)
(1.9846726 1.4127552e-05 0)
(1.9846726 -1.4131327e-05 0)
(1.846691 -3.2707014e-05 0)
(1.605029 -3.3746494e-05 0)
(1.3117655 -2.5136586e-05 0)
(1.0159032 -1.5566284e-05 0)
(0.75053088 -8.5363054e-06 0)
(0.53092248 -4.2669849e-06 0)
(0.35914485 -1.9594509e-06 0)
(0.22999455 -8.1499747e-07 0)
(0.13554837 -2.9187206e-07 0)
(0.067803771 -7.9286653e-08 0)
(0.01986036 -1.2777177e-08 0)
(0.019859881 8.2984431e-09 0)
(0.067802156 5.7708748e-08 0)
(0.13554519 2.44882e-07 0)
(0.22998928 7.3008379e-07 0)
(0.35913691 1.810697e-06 0)
(0.53091139 3.9998639e-06 0)
(0.75051664 8.046519e-06 0)
(1.0158871 1.4699131e-05 0)
(1.3117512 2.3751313e-05 0)
(1.6050236 3.1912273e-05 0)
(1.8467017 3.0966032e-05 0)
(1.9846975 1.3403419e-05 0)
(1.9846975 -1.3407423e-05 0)
(1.8467017 -3.0965967e-05 0)
(1.6050236 -3.1907492e-05 0)
(1.3117512 -2.3745912e-05 0)
(1.0158871 -1.4700335e-05 0)
(0.75051663 -8.0614986e-06 0)
(0.53091139 -4.0316507e-06 0)
(0.35913692 -1.8541593e-06 0)
(0.22998928 -7.7378383e-07 0)
(0.13554519 -2.7900883e-07 0)
(0.067802157 -7.6807061e-08 0)
(0.019859881 -1.2493128e-08 0)
(0.01985943 7.84674e-09 0)
(0.067800634 5.4553045e-08 0)
(0.13554219 2.3141154e-07 0)
(0.22998432 6.8980893e-07 0)
(0.35912943 1.7106423e-06 0)
(0.53090093 3.7786851e-06 0)
(0.7505032 7.6019286e-06 0)
(1.0158719 1.3889556e-05 0)
(1.3117377 2.245238e-05 0)
(1.6050185 3.0187511e-05 0)
(1.8467117 2.9350787e-05 0)
(1.9847208 1.2726501e-05 0)
(1.9847208 -1.27307e-05 0)
(1.8467117 -2.9350733e-05 0)
(1.6050185 -3.0182524e-05 0)
(1.3117377 -2.2446723e-05 0)
(1.0158718 -1.3890791e-05 0)
(0.7505032 -7.617631e-06 0)
(0.53090093 -3.8121351e-06 0)
(0.35912943 -1.756492e-06 0)
(0.22998432 -7.3598545e-07 0)
(0.1355422 -2.675112e-07 0)
(0.067800635 -7.4766526e-08 0)
(0.01985943 -1.2287124e-08 0)
(0.019859003 7.4202712e-09 0)
(0.067799193 5.1569154e-08 0)
(0.13553936 2.1867409e-07 0)
(0.22997961 6.5177719e-07 0)
(0.35912234 1.61637e-06 0)
(0.53089102 3.5706945e-06 0)
(0.75049047 7.1839411e-06 0)
(1.0158574 1.3126664e-05 0)
(1.3117249 2.1223214e-05 0)
(1.6050136 2.8554118e-05 0)
(1.8467212 2.7786327e-05 0)
(1.9847434 1.206974e-05 0)
(1.9847434 -1.2074093e-05 0)
(1.8467212 -2.7786225e-05 0)
(1.6050136 -2.8548838e-05 0)
(1.3117249 -2.1217209e-05 0)
(1.0158574 -1.3127898e-05 0)
(0.75049046 -7.2004794e-06 0)
(0.53089102 -3.6061045e-06 0)
(0.35912234 -1.6650291e-06 0)
(0.22997961 -7.0085517e-07 0)
(0.13553936 -2.5707651e-07 0)
(0.067799193 -7.3081576e-08 0)
(0.019859002 -1.2146632e-08 0)
(0.0198586 7.02944e-09 0)
(0.067797836 4.8841183e-08 0)
(0.13553669 2.0702902e-07 0)
(0.22997518 6.1690912e-07 0)
(0.35911566 1.5295322e-06 0)
(0.5308817 3.3782039e-06 0)
(0.75047849 6.7961543e-06 0)
(1.0158438 1.2419401e-05 0)
(1.3117128 2.0086197e-05 0)
(1.6050089 2.7037584e-05 0)
(1.84673 2.6358074e-05 0)
(1.9847642 1.1465371e-05 0)
(1.9847642 -1.1469798e-05 0)
(1.84673 -2.6357821e-05 0)
(1.6050089 -2.7031888e-05 0)
(1.3117128 -2.0079729e-05 0)
(1.0158438 -1.2420592e-05 0)
(0.75047848 -6.813634e-06 0)