/*--------------------------------*- C++ -*----------------------------------*\
  =========                 |
  \\      /  F ield         | OpenFOAM: The Open Source CFD Toolbox
   \\    /   O peration     | Website:  https://openfoam.org
    \\  /    A nd           | Version:  10
     \\/     M anipulation  |
\*---------------------------------------------------------------------------*/
FoamFile
{
    format      ascii;
    class       volScalarField;
    location    "40.5";
    object      T_0;
}
// * * * * * * * * * * * * * * * * * * * * * * * * * * * * * * * * * * * * * //

dimensions      [0 0 0 1 0 0 0];

internalField   nonuniform List<scalar> 
10000
(
374.987
361.302
356.63
354.588
353.484
352.79
352.31
351.954
351.677
351.455
351.271
351.115
350.98
350.862
350.757
350.663
350.578
350.5
350.428
350.361
350.298
350.24
350.185
350.132
350.083
350.036
349.99
349.947
349.906
349.866
349.827
349.79
349.754
349.719
349.685
349.652
349.62
349.589
349.559
349.529
349.501
349.473
349.446
349.419
349.393
349.368
349.343
349.319
349.295
349.272
349.25
349.228
349.207
349.186
349.165
349.146
349.126
349.107
349.089
349.071
349.054
349.037
349.02
349.004
348.988
348.973
348.959
348.944
348.931
348.917
348.904
348.892
348.88
348.868
348.857
348.847
348.836
348.827
348.817
348.808
348.8
348.792
348.784
348.777
348.77
348.764
348.758
348.753
348.748
348.743
348.739
348.735
348.732
348.729
348.727
348.725
348.723
348.722
348.721
348.721
388.626
374.893
367.263
362.826
360.041
358.159
356.806
355.783
354.979
354.327
353.784
353.323
352.924
352.573
352.262
351.981
351.727
351.493
351.278
351.079
350.892
350.717
350.552
350.396
350.247
350.106
349.971
349.841
349.716
349.597
349.481
349.369
349.261
349.157
349.055
348.957
348.861
348.768
348.677
348.589
348.503
348.419
348.337
348.258
348.18
348.104
348.03
347.957
347.887
347.818
347.751
347.685
347.621
347.558
347.497
347.438
347.379
347.323
347.268
347.214
347.162
347.111
347.061
347.013
346.966
346.921
346.877
346.834
346.793
346.753
346.714
346.677
346.641
346.606
346.573
346.541
346.51
346.481
346.453
346.426
346.4
346.376
346.353
346.332
346.312
346.293
346.275
346.259
346.244
346.23
346.218
346.206
346.197
346.188
346.181
346.175
346.17
346.167
346.165
346.164
393.25
382.38
374.703
369.41
365.695
363
360.972
359.394
358.129
357.09
356.217
355.469
354.819
354.246
353.735
353.274
352.854
352.47
352.114
351.784
351.475
351.185
350.911
350.652
350.406
350.171
349.946
349.73
349.523
349.324
349.132
348.946
348.766
348.592
348.423
348.259
348.1
347.945
347.794
347.647
347.504
347.364
347.228
347.095
346.966
346.839
346.716
346.596
346.478
346.363
346.251
346.141
346.035
345.93
345.829
345.729
345.633
345.538
345.446
345.357
345.27
345.185
345.102
345.022
344.944
344.869
344.795
344.724
344.655
344.589
344.524
344.462
344.402
344.344
344.289
344.236
344.184
344.135
344.089
344.044
344.002
343.961
343.923
343.887
343.854
343.822
343.793
343.766
343.74
343.718
343.697
343.678
343.662
343.648
343.636
343.626
343.618
343.613
343.609
343.608
395.245
386.675
379.758
374.418
370.331
367.172
364.687
362.691
361.055
359.687
358.524
357.519
356.639
355.858
355.159
354.526
353.949
353.418
352.926
352.469
352.041
351.638
351.257
350.897
350.554
350.226
349.913
349.613
349.324
349.046
348.778
348.518
348.267
348.024
347.788
347.559
347.337
347.12
346.909
346.704
346.504
346.309
346.118
345.933
345.751
345.575
345.402
345.233
345.069
344.908
344.751
344.598
344.449
344.303
344.161
344.022
343.887
343.755
343.626
343.501
343.379
343.26
343.145
343.033
342.924
342.818
342.715
342.616
342.519
342.426
342.336
342.249
342.165
342.084
342.006
341.932
341.86
341.792
341.726
341.664
341.604
341.548
341.495
341.444
341.397
341.353
341.312
341.274
341.239
341.207
341.178
341.152
341.129
341.109
341.092
341.079
341.068
341.06
341.055
341.054
396.302
389.317
383.235
378.172
374.038
370.672
367.915
365.63
363.713
362.081
360.674
359.445
358.359
357.391
356.518
355.724
354.998
354.328
353.706
353.126
352.582
352.07
351.586
351.126
350.688
350.271
349.87
349.486
349.117
348.761
348.417
348.085
347.764
347.452
347.15
346.856
346.57
346.292
346.022
345.759
345.502
345.251
345.007
344.769
344.536
344.309
344.088
343.871
343.66
343.454
343.252
343.056
342.864
342.676
342.494
342.315
342.141
341.972
341.807
341.646
341.489
341.337
341.188
341.044
340.904
340.768
340.636
340.508
340.385
340.265
340.149
340.037
339.929
339.826
339.726
339.63
339.538
339.45
339.365
339.285
339.209
339.137
339.068
339.004
338.943
338.886
338.833
338.785
338.74
338.698
338.661
338.628
338.598
338.573
338.551
338.534
338.52
338.51
338.504
338.501
396.948
391.057
385.694
380.999
376.978
373.564
370.67
368.203
366.086
364.251
362.646
361.229
359.965
358.828
357.798
356.857
355.992
355.191
354.446
353.749
353.095
352.477
351.892
351.336
350.806
350.3
349.814
349.348
348.899
348.467
348.049
347.645
347.254
346.874
346.506
346.148
345.8
345.462
345.132
344.811
344.498
344.192
343.894
343.604
343.32
343.043
342.773
342.509
342.251
341.999
341.753
341.513
341.279
341.05
340.827
340.61
340.397
340.19
339.989
339.792
339.601
339.415
339.234
339.058
338.887
338.721
338.559
338.403
338.252
338.106
337.964
337.828
337.696
337.569
337.447
337.33
337.218
337.11
337.007
336.91
336.816
336.728
336.644
336.566
336.491
336.422
336.358
336.298
336.243
336.193
336.147
336.107
336.071
336.039
336.013
335.991
335.974
335.962
335.955
335.952
397.381
392.268
387.485
383.153
379.309
375.939
372.997
370.428
368.177
366.193
364.433
362.86
361.445
360.162
358.992
357.917
356.924
356.002
355.141
354.333
353.573
352.854
352.172
351.523
350.904
350.311
349.742
349.196
348.669
348.162
347.671
347.196
346.736
346.29
345.856
345.435
345.025
344.627
344.238
343.86
343.491
343.131
342.78
342.437
342.103
341.776
341.457
341.146
340.842
340.545
340.254
339.971
339.695
339.425
339.162
338.905
338.654
338.41
338.172
337.94
337.714
337.495
337.281
337.073
336.871
336.675
336.485
336.301
336.122
335.949
335.783
335.621
335.466
335.316
335.172
335.034
334.901
334.774
334.653
334.537
334.427
334.323
334.224
334.131
334.043
333.961
333.885
333.815
333.75
333.691
333.637
333.589
333.546
333.51
333.478
333.453
333.433
333.418
333.41
333.406
397.69
393.149
388.827
384.818
381.169
377.886
374.953
372.337
370.002
367.912
366.034
364.336
362.794
361.386
360.092
358.897
357.788
356.753
355.785
354.873
354.013
353.198
352.423
351.684
350.979
350.302
349.653
349.028
348.426
347.844
347.282
346.737
346.209
345.697
345.2
344.716
344.245
343.787
343.341
342.906
342.481
342.067
341.663
341.269
340.884
340.508
340.141
339.782
339.432
339.09
338.756
338.43
338.112
337.801
337.498
337.202
336.913
336.632
336.357
336.09
335.83
335.577
335.331
335.091
334.858
334.633
334.413
334.201
333.995
333.796
333.604
333.418
333.239
333.066
332.9
332.741
332.588
332.441
332.301
332.168
332.041
331.921
331.807
331.7
331.599
331.505
331.417
331.336
331.261
331.192
331.131
331.075
331.026
330.984
330.948
330.918
330.895
330.879
330.869
330.865
397.919
393.811
389.855
386.124
382.662
379.485
376.592
373.966
371.584
369.422
367.455
365.659
364.013
362.497
361.096
359.794
358.58
357.443
356.374
355.366
354.412
353.505
352.642
351.817
351.028
350.271
349.543
348.842
348.166
347.513
346.88
346.268
345.673
345.096
344.536
343.99
343.459
342.942
342.439
341.947
341.468
341.001
340.544
340.099
339.664
339.239
338.824
338.419
338.023
337.636
337.258
336.89
336.529
336.178
335.835
335.5
335.174
334.855
334.545
334.243
333.948
333.662
333.383
333.112
332.849
332.593
332.345
332.105
331.872
331.647
331.429
331.218
331.016
330.82
330.632
330.452
330.279
330.113
329.954
329.804
329.66
329.524
329.395
329.273
329.159
329.053
328.953
328.861
328.776
328.699
328.629
328.566
328.511
328.463
328.422
328.389
328.363
328.344
328.332
328.328
398.094
394.322
390.66
387.163
383.871
380.803
377.965
375.351
372.948
370.74
368.708
366.835
365.103
363.497
362.003
360.607
359.299
358.068
356.908
355.809
354.766
353.774
352.826
351.92
351.051
350.216
349.413
348.638
347.89
347.166
346.465
345.786
345.126
344.486
343.863
343.257
342.667
342.092
341.531
340.985
340.452
339.931
339.423
338.927
338.442
337.969
337.506
337.055
336.613
336.182
335.761
335.35
334.948
334.556
334.174
333.8
333.436
333.081
332.735
332.398
332.069
331.75
331.439
331.136
330.842
330.557
330.28
330.012
329.752
329.501
329.258
329.023
328.797
328.579
328.369
328.167
327.974
327.789
327.612
327.444
327.284
327.132
326.988
326.852
326.725
326.606
326.495
326.392
326.297
326.211
326.133
326.063
326.001
325.947
325.902
325.865
325.835
325.815
325.802
325.797
398.232
394.724
391.298
387.998
384.856
381.892
379.116
376.527
374.12
371.883
369.805
367.872
366.071
364.389
362.814
361.336
359.943
358.628
357.383
356.201
355.076
354.002
352.975
351.991
351.046
350.136
349.259
348.413
347.595
346.803
346.036
345.291
344.568
343.865
343.181
342.516
341.867
341.235
340.619
340.018
339.431
338.858
338.299
337.752
337.219
336.697
336.188
335.69
335.204
334.729
334.265
333.811
333.369
332.937
332.515
332.103
331.701
331.31
330.928
330.556
330.194
329.841
329.498
329.164
328.84
328.525
328.22
327.924
327.637
327.36
327.092
326.832
326.583
326.342
326.11
325.888
325.675
325.471
325.276
325.09
324.913
324.745
324.586
324.437
324.296
324.165
324.042
323.929
323.824
323.729
323.643
323.565
323.497
323.438
323.388
323.347
323.314
323.291
323.277
323.272
398.341
395.045
391.811
388.675
385.664
382.795
380.081
377.524
375.122
372.87
370.76
368.781
366.923
365.178
363.534
361.982
360.514
359.123
357.801
356.541
355.339
354.189
353.087
352.029
351.01
350.029
349.082
348.167
347.282
346.423
345.591
344.783
343.998
343.234
342.49
341.766
341.06
340.372
339.701
339.046
338.406
337.782
337.172
336.576
335.994
335.425
334.869
334.325
333.795
333.276
332.769
332.274
331.791
331.318
330.858
330.408
329.969
329.541
329.124
328.717
328.321
327.936
327.561
327.196
326.842
326.498
326.164
325.84
325.527
325.224
324.93
324.647
324.374
324.111
323.858
323.615
323.381
323.158
322.945
322.742
322.548
322.365
322.191
322.027
321.874
321.73
321.596
321.472
321.358
321.253
321.159
321.074
321
320.935
320.88
320.835
320.8
320.775
320.759
320.754
398.429
395.304
392.228
389.229
386.329
383.546
380.891
378.368
375.978
373.719
371.585
369.571
367.668
365.868
364.165
362.549
361.014
359.553
358.16
356.83
355.556
354.335
353.162
352.033
350.945
349.896
348.881
347.899
346.948
346.026
345.131
344.261
343.415
342.591
341.789
341.008
340.246
339.502
338.777
338.069
337.377
336.702
336.042
335.397
334.767
334.151
333.549
332.961
332.385
331.824
331.274
330.738
330.214
329.702
329.203
328.715
328.24
327.776
327.323
326.882
326.453
326.035
325.628
325.233
324.849
324.475
324.113
323.762
323.422
323.093
322.775
322.468
322.171
321.886
321.611
321.347
321.094
320.852
320.621
320.4
320.19
319.991
319.803
319.625
319.458
319.302
319.157
319.022
318.898
318.785
318.683
318.591
318.51
318.44
318.38
318.331
318.293
318.266
318.249
318.243
398.5
395.515
392.569
389.684
386.88
384.172
381.57
379.08
376.705
374.445
372.295
370.253
368.312
366.468
364.712
363.04
361.445
359.921
358.464
357.067
355.727
354.439
353.199
352.003
350.849
349.734
348.655
347.609
346.595
345.611
344.654
343.724
342.819
341.937
341.078
340.24
339.423
338.626
337.847
337.087
336.344
335.618
334.909
334.216
333.538
332.876
332.228
331.595
330.977
330.372
329.781
329.204
328.64
328.089
327.551
327.026
326.513
326.014
325.526
325.052
324.589
324.139
323.7
323.274
322.86
322.458
322.068
321.69
321.323
320.968
320.626
320.294
319.975
319.667
319.371
319.087
318.814
318.553
318.304
318.066
317.839
317.625
317.422
317.23
317.05
316.882
316.725
316.58
316.447
316.325
316.214
316.115
316.028
315.952
315.888
315.835
315.794
315.765
315.747
315.74
398.559
395.688
392.848
390.059
387.336
384.693
382.139
379.681
377.322
375.062
372.902
370.837
368.866
366.982
365.181
363.459
361.81
360.229
358.712
357.255
355.853
354.502
353.198
351.94
350.723
349.545
348.404
347.297
346.222
345.177
344.161
343.172
342.21
341.271
340.356
339.463
338.592
337.742
336.911
336.099
335.306
334.531
333.773
333.032
332.308
331.6
330.907
330.23
329.569
328.922
328.289
327.671
327.067
326.478
325.902
325.339
324.791
324.256
323.734
323.225
322.73
322.247
321.778
321.321
320.878
320.447
320.029
319.623
319.23
318.85
318.483
318.128
317.786
317.456
317.139
316.834
316.541
316.261
315.994
315.739
315.497
315.266
315.049
314.844
314.651
314.47
314.302
314.147
314.003
313.873
313.754
313.648
313.555
313.473
313.405
313.348
313.304
313.272
313.253
313.246
398.607
395.83
393.079
390.369
387.714
385.127
382.615
380.185
377.841
375.585
373.416
371.334
369.335
367.418
365.577
363.81
362.112
360.48
358.908
357.394
355.934
354.524
353.162
351.843
350.567
349.329
348.128
346.961
345.828
344.725
343.652
342.606
341.587
340.593
339.624
338.677
337.753
336.851
335.969
335.107
334.264
333.44
332.635
331.847
331.076
330.323
329.586
328.866
328.161
327.472
326.799
326.141
325.498
324.869
324.256
323.657
323.072
322.502
321.946
321.404
320.875
320.361
319.861
319.374
318.901
318.442
317.996
317.563
317.145
316.739
316.347
315.969
315.604
315.252
314.914
314.588
314.277
313.978
313.693
313.421
313.162
312.917
312.684
312.466
312.26
312.067
311.888
311.722
311.569
311.43
311.303
311.19
311.09
311.004
310.93
310.87
310.823
310.789
310.769
310.761
398.646
395.947
393.268
390.625
388.028
385.487
383.011
380.606
378.276
376.023
373.848
371.75
369.729
367.781
365.906
364.098
362.356
360.676
359.054
357.487
355.973
354.508
353.089
351.714
350.38
349.085
347.827
346.604
345.414
344.255
343.125
342.025
340.951
339.903
338.881
337.882
336.906
335.952
335.02
334.109
333.217
332.346
331.493
330.659
329.843
329.045
328.265
327.501
326.754
326.024
325.31
324.612
323.93
323.264
322.613
321.978
321.358
320.753
320.162
319.587
319.027
318.481
317.949
317.433
316.931
316.443
315.97
315.511
315.066
314.636
314.219
313.818
313.43
313.056
312.697
312.352
312.02
311.703
311.4
311.111
310.837
310.576
310.329
310.097
309.878
309.674
309.483
309.307
309.145
308.997
308.862
308.742
308.636
308.544
308.466
308.402
308.352
308.316
308.294
308.287
398.679
396.043
393.424
390.835
388.286
385.785
383.34
380.956
378.637
376.387
374.206
372.095
370.053
368.079
366.172
364.327
362.544
360.82
359.151
357.536
355.971
354.454
352.982
351.553
350.165
348.815
347.502
346.224
344.979
343.766
342.583
341.428
340.302
339.202
338.127
337.077
336.05
335.047
334.065
333.106
332.167
331.248
330.349
329.47
328.609
327.767
326.943
326.137
325.349
324.578
323.824
323.087
322.366
321.662
320.975
320.303
319.648
319.008
318.384
317.776
317.183
316.606
316.045
315.498
314.967
314.452
313.951
313.466
312.995
312.54
312.1
311.675
311.264
310.869
310.489
310.124
309.773
309.438
309.117
308.812
308.521
308.245
307.984
307.738
307.507
307.29
307.089
306.902
306.73
306.574
306.432
306.304
306.192
306.095
306.012
305.945
305.892
305.854
305.831
305.822
398.705
396.121
393.552
391.008
388.498
386.03
383.61
381.243
378.934
376.686
374.5
372.376
370.316
368.317
366.38
364.502
362.681
360.916
359.204
357.543
355.93
354.363
352.841
351.361
349.921
348.519
347.153
345.823
344.525
343.259
342.024
340.818
339.64
338.488
337.363
336.263
335.187
334.135
333.105
332.097
331.112
330.147
329.202
328.278
327.373
326.488
325.622
324.774
323.945
323.133
322.34
321.564
320.806
320.064
319.34
318.633
317.943
317.269
316.612
315.971
315.347
314.739
314.147
313.571
313.011
312.468
311.94
311.428
310.933
310.453
309.989
309.54
309.108
308.691
308.29
307.905
307.536
307.182
306.844
306.522
306.215
305.924
305.649
305.389
305.146
304.917
304.705
304.508
304.327
304.162
304.012
303.878
303.759
303.657
303.57
303.498
303.442
303.402
303.378
303.369
398.727
396.185
393.656
391.149
388.671
386.229
383.829
381.477
379.175
376.927
374.735
372.599
370.521
368.5
366.536
364.626
362.771
360.967
359.214
357.51
355.852
354.239
352.669
351.14
349.65
348.198
346.782
345.4
344.052
342.735
341.449
340.193
338.964
337.763
336.589
335.44
334.316
333.215
332.139
331.084
330.053
329.042
328.053
327.085
326.137
325.209
324.301
323.412
322.542
321.691
320.859
320.044
319.249
318.471
317.71
316.968
316.243
315.536
314.845
314.172
313.517
312.878
312.256
311.651
311.063
310.492
309.938
309.4
308.879
308.374
307.887
307.416
306.961
306.523
306.102
305.697
305.308
304.937
304.581
304.242
303.92
303.614
303.325
303.052
302.796
302.556
302.332
302.125
301.935
301.761
301.604
301.463
301.338
301.23
301.139
301.064
301.005
300.963
300.937
300.928
398.744
396.236
393.739
391.262
388.809
386.388
384.005
381.663
379.366
377.117
374.918
372.771
370.676
368.633
366.643
364.704
362.815
360.976
359.184
357.439
355.739
354.081
352.466
350.89
349.353
347.853
346.388
344.958
343.56
342.195
340.859
339.554
338.277
337.028
335.805
334.608
333.437
332.29
331.167
330.067
328.99
327.935
326.902
325.891
324.9
323.93
322.981
322.051
321.142
320.251
319.38
318.528
317.695
316.881
316.085
315.308
314.549
313.808
313.085
312.38
311.694
311.024
310.373
309.739
309.123
308.525
307.944
307.38
306.834
306.306
305.794
305.301
304.824
304.365
303.923
303.499
303.092
302.702
302.33
301.974
301.636
301.316
301.012
300.726
300.458
300.206
299.972
299.755
299.555
299.373
299.208
299.06
298.929
298.816
298.72
298.641
298.58
298.536
298.509
298.499
398.758
396.277
393.805
391.351
388.918
386.514
384.142
381.807
379.513
377.261
375.055
372.896
370.785
368.721
366.706
364.739
362.819
360.946
359.118
357.334
355.593
353.893
352.234
350.613
349.031
347.484
345.973
344.495
343.051
341.637
340.255
338.902
337.577
336.281
335.011
333.768
332.551
331.358
330.19
329.045
327.924
326.826
325.749
324.695
323.663
322.652
321.662
320.692
319.743
318.814
317.905
317.016
316.147
315.296
314.465
313.654
312.861
312.087
311.332
310.596
309.878
309.179
308.498
307.836
307.192
306.566
305.959
305.37
304.799
304.247
303.712
303.196
302.698
302.218
301.756
301.312
300.887
300.479
300.089
299.718
299.365
299.029
298.712
298.413
298.132
297.869
297.624
297.397
297.188
296.997
296.824
296.67
296.533
296.415
296.314
296.232
296.168
296.122
296.094
296.083
398.768
396.308
393.856
391.419
389.002
386.609
384.246
381.915
379.621
377.366
375.151
372.98
370.852
368.768
366.73
364.735
362.786
360.88
359.016
357.195
355.415
353.676
351.975
350.311
348.685
347.094
345.538
344.015
342.524
341.065
339.636
338.237
336.866
335.524
334.209
332.92
331.658
330.42
329.208
328.019
326.855
325.714
324.595
323.499
322.426
321.374
320.344
319.335
318.347
317.38
316.434
315.508
314.602
313.717
312.851
312.005
311.179
310.373
309.586
308.819
308.07
307.341
306.632
305.941
305.27
304.618
303.984
303.37
302.775
302.198
301.641
301.103
300.583
300.082
299.6
299.137
298.693
298.268
297.862
297.474
297.105
296.755
296.424
296.112
295.819
295.544
295.289
295.052
294.834
294.635
294.455
294.293
294.151
294.027
293.922
293.836
293.769
293.721
293.692
293.681
398.776
396.332
393.894
391.47
389.064
386.679
384.32
381.991
379.695
377.434
375.21
373.026
370.881
368.778
366.716
364.696
362.717
360.78
358.883
357.027
355.21
353.431
351.69
349.986
348.317
346.683
345.083
343.516
341.981
340.477
339.004
337.56
336.144
334.757
333.398
332.065
330.758
329.477
328.221
326.99
325.783
324.6
323.44
322.303
321.189
320.097
319.028
317.98
316.954
315.95
314.967
314.005
313.063
312.143
311.243
310.364
309.505
308.666
307.848
307.049
306.271
305.513
304.775
304.056
303.358
302.679
302.02
301.38
300.761
300.161
299.581
299.02
298.479
297.958
297.457
296.975
296.512
296.069
295.646
295.243
294.859
294.494
294.15
293.825
293.519
293.233
292.967
292.721
292.494
292.286
292.099
291.931
291.782
291.654
291.544
291.455
291.385
291.335
291.304
291.293
398.782
396.348
393.921
391.505
389.106
386.726
384.369
382.039
379.739
377.471
375.236
373.038
370.877
368.754
366.669
364.623
362.617
360.649
358.72
356.83
354.977
353.161
351.381
349.637
347.928
346.252
344.61
343.001
341.423
339.876
338.359
336.871
335.412
333.982
332.579
331.202
329.853
328.529
327.231
325.957
324.709
323.484
322.284
321.107
319.953
318.822
317.714
316.628
315.565
314.523
313.504
312.506
311.53
310.575
309.641
308.729
307.837
306.967
306.117
305.289
304.481
303.693
302.927
302.181
301.455
300.75
300.066
299.402
298.758
298.135
297.532
296.95
296.388
295.847
295.325
294.825
294.344
293.884
293.444
293.025
292.626
292.247
291.889
291.551
291.234
290.937
290.66
290.404
290.168
289.952
289.757
289.583
289.429
289.295
289.181
289.088
289.016
288.964
288.932
288.92
398.785
396.358
393.938
391.527
389.131
386.752
384.395
382.062
379.756
377.479
375.233
373.02
370.842
368.699
366.592
364.521
362.488
360.491
358.53
356.607
354.719
352.867
351.05
349.268
347.519
345.804
344.121
342.47
340.85
339.261
337.702
336.172
334.67
333.197
331.752
330.334
328.942
327.576
326.237
324.922
323.633
322.368
321.127
319.911
318.718
317.549
316.402
315.279
314.179
313.101
312.046
311.013
310.002
309.013
308.046
307.101
306.178
305.276
304.396
303.537
302.699
301.884
301.089
300.316
299.564
298.833
298.123
297.435
296.767
296.121
295.496
294.892
294.309
293.748
293.207
292.688
292.189
291.712
291.256
290.821
290.407
290.014
289.643
289.292
288.963
288.655
288.368
288.102
287.857
287.634
287.431
287.25
287.09
286.951
286.834
286.737
286.662
286.608
286.575
286.563
398.787
396.364
393.946
391.537
389.141
386.761
384.401
382.062
379.748
377.461
375.203
372.975
370.779
368.616
366.487
364.392
362.332
360.306
358.315
356.359
354.438
352.551
350.698
348.878
347.092
345.337
343.615
341.924
340.264
338.634
337.033
335.462
333.92
332.405
330.918
329.459
328.026
326.62
325.239
323.885
322.555
321.251
319.971
318.716
317.484
316.277
315.094
313.934
312.797
311.683
310.593
309.525
308.48
307.458
306.458
305.481
304.526
303.593
302.683
301.794
300.928
300.084
299.261
298.461
297.683
296.926
296.192
295.479
294.789
294.12
293.473
292.847
292.244
291.662
291.103
290.565
290.049
289.555
289.082
288.632
288.203
287.796
287.412
287.049
286.708
286.388
286.091
285.816
285.562
285.331
285.121
284.933
284.768
284.624
284.502
284.402
284.324
284.268
284.234
284.221
398.787
396.364
393.946
391.536
389.138
386.754
384.389
382.043
379.72
377.421
375.15
372.906
370.692
368.509
366.357
364.238
362.151
360.098
358.077
356.09
354.136
352.215
350.327
348.471
346.647
344.855
343.095
341.365
339.665
337.995
336.355
334.743
333.16
331.606
330.079
328.579
327.106
325.66
324.239
322.845
321.477
320.133
318.815
317.522
316.253
315.009
313.788
312.592
311.42
310.271
309.146
308.044
306.965
305.91
304.878
303.869
302.883
301.92
300.979
300.062
299.167
298.294
297.445
296.618
295.814
295.032
294.273
293.537
292.823
292.131
291.462
290.816
290.192
289.591
289.012
288.456
287.923
287.412
286.923
286.458
286.014
285.594
285.196
284.82
284.468
284.138
283.83
283.545
283.283
283.044
282.827
282.633
282.461
282.313
282.187
282.083
282.003
281.945
281.909
281.897
398.786
396.361
393.939
391.526
389.123
386.734
384.361
382.006
379.672
377.361
375.075
372.815
370.583
368.379
366.205
364.061
361.949
359.867
357.818
355.8
353.814
351.86
349.938
348.047
346.187
344.359
342.561
340.793
339.055
337.346
335.667
334.016
332.394
330.8
329.233
327.694
326.182
324.697
323.238
321.805
320.398
319.016
317.66
316.33
315.024
313.743
312.487
311.255
310.047
308.864
307.705
306.569
305.458
304.37
303.306
302.266
301.249
300.255
299.286
298.339
297.416
296.516
295.64
294.787
293.957
293.15
292.367
291.607
290.87
290.156
289.466
288.799
288.155
287.534
286.937
286.363
285.812
285.284
284.78
284.299
283.841
283.407
282.996
282.609
282.244
281.903
281.586
281.292
281.021
280.774
280.55
280.349
280.172
280.019
279.889
279.782
279.699
279.639
279.602
279.589
398.784
396.353
393.927
391.507
389.098
386.701
384.319
381.953
379.608
377.283
374.981
372.704
370.453
368.228
366.032
363.864
361.726
359.618
357.54
355.492
353.475
351.489
349.533
347.608
345.713
343.848
342.014
340.209
338.434
336.687
334.97
333.281
331.62
329.988
328.383
326.805
325.255
323.731
322.234
320.763
319.319
317.9
316.507
315.14
313.798
312.481
311.189
309.922
308.68
307.463
306.27
305.102
303.958
302.838
301.742
300.671
299.624
298.601
297.602
296.627
295.676
294.749
293.846
292.967
292.112
291.281
290.474
289.69
288.931
288.195
287.484
286.796
286.132
285.492
284.876
284.284
283.716
283.173
282.653
282.157
281.685
281.237
280.813
280.413
280.038
279.686
279.359
279.055
278.776
278.521
278.29
278.084
277.901
277.743
277.608
277.498
277.412
277.351
277.313
277.3
398.78
396.343
393.909
391.482
389.064
386.657
384.264
381.887
379.528
377.188
374.871
372.576
370.305
368.059
365.841
363.649
361.485
359.35
357.244
355.167
353.119
351.101
349.113
347.154
345.225
343.326
341.456
339.615
337.803
336.02
334.265
332.539
330.841
329.171
327.528
325.913
324.325
322.764
321.23
319.722
318.24
316.785
315.356
313.953
312.575
311.223
309.896
308.595
307.319
306.068
304.842
303.641
302.465
301.314
300.188
299.086
298.01
296.957
295.93
294.927
293.948
292.995
292.065
291.161
290.281
289.425
288.594
287.788
287.006
286.249
285.516
284.808
284.125
283.466
282.832
282.222
281.637
281.077
280.542
280.031
279.545
279.084
278.647
278.236
277.849
277.487
277.149
276.837
276.549
276.287
276.049
275.836
275.648
275.485
275.346
275.233
275.144
275.081
275.042
275.028
398.776
396.33
393.887
391.45
389.021
386.603
384.198
381.808
379.435
377.08
374.745
372.431
370.141
367.874
365.632
363.417
361.228
359.066
356.932
354.826
352.748
350.699
348.679
346.688
344.726
342.792
340.887
339.011
337.164
335.345
333.554
331.791
330.056
328.349
326.67
325.018
323.393
321.796
320.225
318.681
317.163
315.672
314.207
312.769
311.356
309.969
308.609
307.274
305.964
304.68
303.422
302.189
300.982
299.8
298.643
297.511
296.405
295.324
294.268
293.238
292.232
291.252
290.297
289.367
288.463
287.583
286.729
285.9
285.096
284.317
283.564
282.836
282.133
281.455
280.803
280.176
279.575
278.999
278.448
277.923
277.423
276.948
276.499
276.076
275.678
275.305
274.958
274.637
274.341
274.071
273.826
273.607
273.413
273.246
273.103
272.987
272.896
272.83
272.79
272.776
398.771
396.314
393.86
391.412
388.972
386.541
384.123
381.718
379.329
376.958
374.605
372.273
369.962
367.674
365.409
363.17
360.956
358.767
356.606
354.471
352.364
350.285
348.233
346.21
344.215
342.248
340.309
338.399
336.517
334.662
332.836
331.038
329.267
327.524
325.809
324.121
322.46
320.827
319.22
317.641
316.088
314.561
313.062
311.588
310.142
308.721
307.327
305.958
304.616
303.3
302.01
300.745
299.507
298.295
297.108
295.947
294.812
293.702
292.619
291.561
290.529
289.523
288.542
287.588
286.659
285.756
284.878
284.027
283.201
282.401
281.628
280.88
280.158
279.462
278.792
278.148
277.53
276.938
276.372
275.832
275.318
274.831
274.369
273.934
273.525
273.142
272.786
272.456
272.152
271.874
271.622
271.397
271.198
271.026
270.88
270.76
270.666
270.599
270.558
270.543
398.765
396.296
393.83
391.369
388.916
386.471
384.038
381.618
379.213
376.824
374.453
372.101
369.77
367.46
365.173
362.909
360.67
358.455
356.267
354.104
351.968
349.859
347.777
345.722
343.695
341.695
339.723
337.779
335.863
333.974
332.113
330.28
328.474
326.696
324.946
323.223
321.527
319.858
318.216
316.602
315.014
313.454
311.92
310.412
308.932
307.478
306.051
304.65
303.275
301.927
300.606
299.311
298.042
296.799
295.583
294.393
293.23
292.092
290.982
289.897
288.839
287.807
286.801
285.822
284.869
283.943
283.043
282.169
281.322
280.501
279.707
278.94
278.199
277.485
276.797
276.136
275.502
274.894
274.314
273.76
273.232
272.732
272.258
271.812
271.392
270.999
270.633
270.294
269.982
269.697
269.438
269.207
269.003
268.826
268.676
268.553
268.457
268.388
268.346
268.331
398.758
396.276
393.796
391.322
388.854
386.395
383.946
381.51
379.088
376.681
374.291
371.919
369.566
367.235
364.924
362.637
360.372
358.132
355.916
353.726
351.561
349.422
347.31
345.224
343.166
341.134
339.13
337.153
335.203
333.281
331.386
329.519
327.679
325.866
324.081
322.323
320.593
318.89
317.214
315.565
313.944
312.349
310.782
309.241
307.728
306.241
304.781
303.348
301.942
300.563
299.211
297.885
296.586
295.314
294.069
292.851
291.659
290.495
289.357
288.246
287.162
286.104
285.074
284.071
283.094
282.145
281.223
280.327
279.459
278.618
277.804
277.017
276.258
275.526
274.821
274.143
273.493
272.87
272.274
271.706
271.166
270.652
270.167
269.709
269.278
268.875
268.5
268.152
267.832
267.54
267.275
267.038
266.828
266.647
266.493
266.367
266.268
266.197
266.154
266.139
398.751
396.254
393.76
391.27
388.787
386.312
383.847
381.394
378.954
376.528
374.118
371.726
369.353
366.999
364.665
362.353
360.064
357.798
355.555
353.337
351.144
348.977
346.835
344.719
342.629
340.566
338.53
336.52
334.538
332.583
330.655
328.754
326.881
325.035
323.216
321.424
319.66
317.923
316.214
314.531
312.877
311.249
309.648
308.075
306.529
305.011
303.519
302.055
300.618
299.208
297.825
296.47
295.141
293.84
292.567
291.32
290.101
288.91
287.745
286.608
285.499
284.416
283.362
282.335
281.335
280.363
279.419
278.502
277.613
276.752
275.918
275.113
274.335
273.585
272.863
272.168
271.502
270.864
270.254
269.672
269.118
268.593
268.095
267.626
267.185
266.772
266.387
266.031
265.703
265.403
265.132
264.889
264.675
264.488
264.331
264.201
264.1
264.028
263.984
263.968
398.743
396.231
393.721
391.215
388.716
386.224
383.742
381.271
378.812
376.367
373.938
371.525
369.13
366.753
364.396
362.061
359.746
357.454
355.185
352.94
350.719
348.523
346.352
344.206
342.086
339.992
337.924
335.883
333.869
331.882
329.921
327.988
326.081
324.202
322.35
320.526
318.728
316.958
315.216
313.501
311.813
310.153
308.52
306.915
305.337
303.787
302.264
300.769
299.302
297.862
296.449
295.064
293.707
292.378
291.076
289.802
288.556
287.338
286.147
284.985
283.85
282.743
281.665
280.614
279.592
278.598
277.631
276.694
275.784
274.903
274.05
273.226
272.43
271.662
270.923
270.213
269.531
268.878
268.254
267.658
267.091
266.553
266.044
265.563
265.112
264.689
264.296
263.931
263.595
263.288
263.011
262.762
262.542
262.352
262.19
262.058
261.955
261.88
261.835
261.819
398.735
396.206
393.68
391.157
388.641
386.132
383.631
381.142
378.664
376.199
373.75
371.315
368.898
366.499