/*--------------------------------*- C++ -*----------------------------------*\
  =========                 |
  \\      /  F ield         | OpenFOAM: The Open Source CFD Toolbox
   \\    /   O peration     | Website:  https://openfoam.org
    \\  /    A nd           | Version:  10
     \\/     M anipulation  |
\*---------------------------------------------------------------------------*/
FoamFile
{
    format      ascii;
    class       volScalarField;
    location    "10";
    object      T;
}
// * * * * * * * * * * * * * * * * * * * * * * * * * * * * * * * * * * * * * //

dimensions      [0 0 -1 0 0 0 0];

internalField   nonuniform List<scalar> 
100
(
-0.0339244
-0.100571
-0.163654
-0.22094
-0.270399
-0.310279
-0.339167
-0.35604
-0.360301
-0.351797
-0.330831
-0.298144
-0.254896
-0.202619
-0.143163
-0.0786355
-0.0113224
0.0563917
0.122108
0.183499
0.238389
0.284834
0.321189
0.346165
0.358879
0.358879
0.346165
0.321188
0.284833
0.238388
0.183498
0.122107
0.0563906
-0.0113235
-0.0786366
-0.143164
-0.20262
-0.254897
-0.298145
-0.330831
-0.351797
-0.360301
-0.35604
-0.339167
-0.310279
-0.270399
-0.22094
-0.163653
-0.10057
-0.0339236
0.0339244
0.100571
0.163654
0.22094
0.270399
0.310279
0.339168
0.356041
0.360301
0.351797
0.330831
0.298145
0.254897
0.202619
0.143163
0.0786359
0.0113229
-0.0563913
-0.122108
-0.183499
-0.238389
-0.284834
-0.321189
-0.346165
-0.358879
-0.358879
-0.346165
-0.321189
-0.284834
-0.238388
-0.183498
-0.122107
-0.056391
0.0113232
0.0786362
0.143163
0.202619
0.254897
0.298145
0.330831
0.351797
0.360301
0.35604
0.339167
0.310279
0.270399
0.220939
0.163653
0.10057
0.0339236
)
;

boundaryField
{
    inlet
    {
        type            cyclic;
    }
    outlet
    {
        type            cyclic;
    }
    bottom
    {
        type            slip;
    }
    top
    {
        type            slip;
    }
    frontAndBack
    {
        type            empty;
    }
}


// ************************************************************************* //
