/*--------------------------------*- C++ -*----------------------------------*\
  =========                 |
  \\      /  F ield         | OpenFOAM: The Open Source CFD Toolbox
   \\    /   O peration     | Website:  https://openfoam.org
    \\  /    A nd           | Version:  10
     \\/     M anipulation  |
\*---------------------------------------------------------------------------*/
FoamFile
{
    format      ascii;
    class       volScalarField;
    location    "10";
    object      T_0;
}
// * * * * * * * * * * * * * * * * * * * * * * * * * * * * * * * * * * * * * //

dimensions      [0 0 -1 0 0 0 0];

internalField   nonuniform List<scalar> 
100
(
-0.033818
-0.100255
-0.163141
-0.220247
-0.269551
-0.309306
-0.338104
-0.354924
-0.359171
-0.350694
-0.329793
-0.29721
-0.254097
-0.201983
-0.142714
-0.0783889
-0.0112869
0.0562149
0.121725
0.182924
0.237642
0.283941
0.320182
0.34508
0.357753
0.357753
0.34508
0.320181
0.28394
0.237641
0.182923
0.121724
0.0562138
-0.011288
-0.07839
-0.142715
-0.201984
-0.254098
-0.29721
-0.329794
-0.350694
-0.359171
-0.354924
-0.338104
-0.309306
-0.269551
-0.220247
-0.16314
-0.100255
-0.0338173
0.0338181
0.100255
0.163141
0.220247
0.269551
0.309306
0.338104
0.354924
0.359171
0.350694
0.329794
0.29721
0.254098
0.201984
0.142714
0.0783893
0.0112873
-0.0562145
-0.121725
-0.182923
-0.237641
-0.283941
-0.320182
-0.34508
-0.357753
-0.357753
-0.34508
-0.320181
-0.283941
-0.237641
-0.182923
-0.121725
-0.0562142
0.0112877
0.0783896
0.142715
0.201984
0.254098
0.29721
0.329794
0.350694
0.359171
0.354924
0.338104
0.309306
0.269551
0.220247
0.16314
0.100255
0.0338173
)
;

boundaryField
{
    inlet
    {
        type            cyclic;
    }
    outlet
    {
        type            cyclic;
    }
    bottom
    {
        type            slip;
    }
    top
    {
        type            slip;
    }
    frontAndBack
    {
        type            empty;
    }
}


// ************************************************************************* //
