/*--------------------------------*- C++ -*----------------------------------*\
  =========                 |
  \\      /  F ield         | OpenFOAM: The Open Source CFD Toolbox
   \\    /   O peration     | Website:  https://openfoam.org
    \\  /    A nd           | Version:  10
     \\/     M anipulation  |
\*---------------------------------------------------------------------------*/
FoamFile
{
    format      ascii;
    class       volScalarField;
    location    "15";
    object      T;
}
// * * * * * * * * * * * * * * * * * * * * * * * * * * * * * * * * * * * * * //

dimensions      [0 0 0 1 0 0 0];

internalField   nonuniform List<scalar> 
10000
(
374.971
361.238
356.522
354.435
353.286
352.549
352.025
351.625
351.305
351.039
350.812
350.613
350.436
350.276
350.13
349.995
349.869
349.751
349.64
349.534
349.434
349.338
349.245
349.157
349.071
348.989
348.91
348.833
348.758
348.686
348.616
348.548
348.482
348.418
348.356
348.296
348.237
348.18
348.124
348.071
348.018
347.967
347.918
347.87
347.824
347.779
347.735
347.693
347.652
347.612
347.573
347.536
347.5
347.465
347.431
347.399
347.367
347.337
347.308
347.28
347.253
347.226
347.201
347.177
347.154
347.132
347.11
347.09
347.07
347.052
347.034
347.017
347
346.985
346.97
346.956
346.943
346.93
346.919
346.907
346.897
346.887
346.878
346.869
346.861
346.854
346.847
346.841
346.835
346.83
346.825
346.821
346.818
346.815
346.812
346.81
346.809
346.808
346.808
346.808
388.563
374.692
366.928
362.358
359.44
357.426
355.941
354.787
353.852
353.07
352.399
351.81
351.284
350.808
350.372
349.969
349.593
349.24
348.907
348.591
348.29
348.002
347.726
347.46
347.205
346.958
346.72
346.489
346.266
346.05
345.84
345.636
345.439
345.247
345.06
344.879
344.703
344.532
344.366
344.204
344.047
343.895
343.747
343.604
343.464
343.329
343.198
343.071
342.948
342.829
342.713
342.601
342.493
342.388
342.287
342.19
342.096
342.005
341.917
341.832
341.751
341.673
341.597
341.525
341.455
341.389
341.325
341.263
341.205
341.148
341.095
341.044
340.995
340.948
340.904
340.862
340.822
340.785
340.749
340.716
340.684
340.655
340.627
340.601
340.577
340.555
340.534
340.516
340.499
340.483
340.47
340.457
340.447
340.438
340.431
340.425
340.42
340.418
340.416
340.417
393.142
382.045
374.146
368.631
364.695
361.778
359.531
357.734
356.252
354.997
353.909
352.949
352.088
351.306
350.588
349.923
349.301
348.717
348.165
347.64
347.14
346.662
346.204
345.763
345.338
344.928
344.531
344.148
343.777
343.417
343.067
342.728
342.399
342.08
341.769
341.468
341.174
340.89
340.613
340.344
340.083
339.829
339.583
339.344
339.112
338.886
338.668
338.456
338.251
338.053
337.86
337.674
337.494
337.319
337.151
336.988
336.831
336.68
336.534
336.393
336.258
336.127
336.002
335.881
335.765
335.654
335.547
335.445
335.347
335.254
335.164
335.079
334.998
334.92
334.847
334.777
334.711
334.648
334.589
334.533
334.48
334.431
334.385
334.342
334.302
334.265
334.231
334.2
334.171
334.146
334.123
334.102
334.085
334.07
334.058
334.048
334.041
334.036
334.034
334.034
395.093
386.207
378.979
373.328
368.932
365.464
362.672
360.37
358.429
356.759
355.296
353.993
352.818
351.745
350.757
349.838
348.978
348.168
347.401
346.672
345.977
345.311
344.672
344.057
343.464
342.892
342.339
341.804
341.285
340.782
340.294
339.821
339.361
338.914
338.48
338.058
337.648
337.25
336.863
336.487
336.122
335.767
335.423
335.088
334.764
334.449
334.144
333.848
333.561
333.283
333.013
332.753
332.501
332.257
332.022
331.794
331.575
331.363
331.158
330.961
330.772
330.589
330.413
330.245
330.083
329.927
329.778
329.635
329.498
329.367
329.242
329.123
329.009
328.901
328.798
328.7
328.607
328.52
328.437
328.359
328.285
328.216
328.152
328.091
328.035
327.984
327.936
327.892
327.853
327.817
327.785
327.756
327.732
327.711
327.694
327.68
327.67
327.664
327.661
327.661
396.105
388.716
382.235
376.773
372.241
368.478
365.326
362.648
360.34
358.32
356.527
354.916
353.452
352.108
350.863
349.702
348.613
347.584
346.609
345.681
344.793
343.943
343.127
342.341
341.582
340.85
340.142
339.456
338.791
338.146
337.521
336.913
336.323
335.75
335.194
334.652
334.126
333.615
333.119
332.636
332.167
331.712
331.269
330.84
330.423
330.019
329.627
329.247
328.878
328.521
328.176
327.841
327.517
327.204
326.902
326.61
326.327
326.055
325.793
325.54
325.296
325.062
324.836
324.619
324.411
324.211
324.02
323.836
323.66
323.492
323.332
323.178
323.032
322.893
322.761
322.635
322.516
322.403
322.297
322.197
322.102
322.014
321.931
321.853
321.781
321.715
321.654
321.597
321.546
321.5
321.459
321.423
321.391
321.365
321.342
321.325
321.312
321.304
321.3
321.301
396.707
390.323
384.473
379.291
374.784
370.886
367.509
364.563
361.968
359.66
357.585
355.7
353.974
352.379
350.895
349.506
348.197
346.959
345.783
344.66
343.586
342.556
341.566
340.611
339.69
338.799
337.938
337.103
336.294
335.509
334.747
334.007
333.288
332.59
331.911
331.251
330.61
329.986
329.38
328.792
328.22
327.664
327.125
326.601
326.092
325.599
325.12
324.656
324.207
323.771
323.349
322.941
322.546
322.164
321.794
321.438
321.093
320.761
320.441
320.132
319.834
319.548
319.273
319.008
318.754
318.51
318.276
318.052
317.837
317.632
317.436
317.249
317.07
316.901
316.739
316.586
316.44
316.303
316.173
316.05
315.935
315.827
315.725
315.631
315.543
315.462
315.387
315.319
315.256
315.2
315.15
315.106
315.067
315.034
315.007
314.986
314.97
314.96
314.955
314.956
397.096
391.402
386.044
381.137
376.72
372.778
369.267
366.132
363.318
360.775
358.459
356.336
354.375
352.551
350.845
349.241
347.725
346.287
344.917
343.607
342.352
341.146
339.986
338.866
337.785
336.739
335.727
334.746
333.794
332.87
331.973
331.102
330.255
329.432
328.633
327.855
327.099
326.364
325.65
324.956
324.282
323.626
322.99
322.372
321.773
321.191
320.626
320.079
319.548
319.034
318.536
318.055
317.588
317.138
316.702
316.281
315.875
315.483
315.105
314.74
314.389
314.051
313.726
313.414
313.114
312.826
312.55
312.285
312.032
311.79
311.559
311.338
311.127
310.927
310.736
310.555
310.384
310.221
310.068
309.923
309.787
309.659
309.54
309.428
309.325
309.229
309.14
309.06
308.986
308.92
308.86
308.808
308.762
308.724
308.692
308.667
308.648
308.636
308.63
308.631
397.361
392.152
387.167
382.496
378.186
374.245
370.656
367.388
364.405
361.671
359.153
356.821
354.65
352.619
350.708
348.904
347.192
345.563
344.007
342.518
341.087
339.712
338.385
337.105
335.867
334.669
333.508
332.383
331.29
330.23
329.2
328.199
327.226
326.28
325.36
324.466
323.596
322.751
321.929
321.131
320.355
319.601
318.868
318.157
317.466
316.796
316.146
315.516
314.905
314.313
313.74
313.185
312.649
312.129
311.628
311.143
310.675
310.223
309.788
309.368
308.964
308.574
308.2
307.84
307.495
307.163
306.845
306.54
306.248
305.969
305.703
305.448
305.206
304.975
304.755
304.547
304.349
304.162
303.985
303.818
303.662
303.514
303.377
303.248
303.129
303.018
302.917
302.823
302.739
302.662
302.594
302.533
302.481
302.437
302.4
302.371
302.349
302.335
302.329
302.33
397.546
392.684
387.977
383.498
379.288
375.367
371.732
368.368
365.253
362.362
359.672
357.158
354.8
352.58
350.481
348.49
346.594
344.785
343.052
341.39
339.791
338.25
336.763
335.326
333.935
332.588
331.282
330.014
328.784
327.588
326.427
325.298
324.2
323.132
322.094
321.084
320.103
319.148
318.22
317.317
316.44
315.588
314.76
313.956
313.176
312.419
311.684
310.971
310.28
309.611
308.963
308.336
307.728
307.141
306.574
306.026
305.496
304.985
304.493
304.018
303.561
303.12
302.697
302.29
301.899
301.524
301.164
300.819
300.489
300.173
299.872
299.584
299.309
299.048
298.8
298.564
298.34
298.128
297.928
297.74
297.562
297.396
297.24
297.095
296.959
296.834
296.719
296.614
296.518
296.431
296.354
296.286
296.226
296.176
296.134
296.101
296.077
296.061
296.054
296.055
397.679
393.065
388.565
384.233
380.108
376.21
372.545
369.108
365.887
362.866
360.028
357.354
354.829
352.437
350.165
348
345.932
343.951
342.05
340.222
338.461
336.761
335.118
333.528
331.988
330.495
329.046
327.64
326.274
324.946
323.655
322.4
321.179
319.991
318.836
317.712
316.619
315.556
314.522
313.517
312.54
311.591
310.669
309.773
308.903
308.059
307.24
306.446
305.676
304.93
304.207
303.508
302.831
302.176
301.543
300.932
300.342
299.772
299.223
298.693
298.183
297.692
297.22
296.766
296.33
295.911
295.51
295.125
294.757
294.405
294.069
293.748
293.441
293.15
292.873
292.61
292.36
292.124
291.901
291.69
291.492
291.307
291.133
290.971
290.82
290.68
290.552
290.434
290.327
290.231
290.144
290.068
290.002
289.946
289.899
289.862
289.835
289.818
289.81
289.811
397.773
393.338
388.989
384.767
380.707
376.827
373.139
369.643
366.334
363.201
360.234
357.418
354.742
352.194
349.761
347.435
345.204
343.062
341.001
339.014
337.097
335.243
333.449
331.711
330.026
328.391
326.803
325.261
323.761
322.303
320.885
319.505
318.163
316.857
315.587
314.35
313.147
311.977
310.839
309.733
308.657
307.611
306.595
305.608
304.65
303.72
302.818
301.942
301.094
300.272
299.475
298.704
297.958
297.236
296.539
295.865
295.214
294.586
293.98
293.396
292.834
292.292
291.772
291.271
290.79
290.329
289.886
289.462
289.056
288.668
288.297
287.943
287.605
287.283
286.978
286.687
286.412
286.152
285.905
285.673
285.455
285.25
285.058
284.88
284.713
284.559
284.418
284.288
284.17
284.063
283.968
283.884
283.811
283.749
283.698
283.657
283.627
283.608
283.599
283.6
397.839
393.53
389.289
385.146
381.131
377.263
373.552
370.004
366.617
363.386
360.304
357.361
354.548
351.856
349.275
346.797
344.414
342.119
339.905
337.767
335.699
333.697
331.758
329.876
328.05
326.276
324.552
322.876
321.247
319.661
318.118
316.616
315.155
313.732
312.348
311
309.689
308.413
307.172
305.965
304.791
303.65
302.542
301.465
300.419
299.404
298.419
297.463
296.537
295.639
294.769
293.927
293.112
292.324
291.562
290.826
290.115
289.429
288.768
288.13
287.516
286.924
286.355
285.808
285.283
284.779
284.295
283.832
283.388
282.964
282.559
282.172
281.803
281.452
281.118
280.8
280.5
280.215
279.946
279.692
279.454
279.23
279.02
278.825
278.643
278.475
278.32
278.178
278.049
277.933
277.829
277.737
277.657
277.589
277.533
277.489
277.456
277.435
277.425
277.426
397.885
393.662
389.494
385.404
381.417
377.55
373.815
370.217
366.76
363.439
360.252
357.193
354.254
351.429
348.71
346.09
343.564
341.123
338.764
336.481
334.269
332.125
330.044
328.023
326.059
324.151
322.294
320.488
318.731
317.02
315.354
313.733
312.154
310.617
309.12
307.663
306.245
304.865
303.522
302.216
300.946
299.711
298.51
297.344
296.212
295.112
294.045
293.01
292.007
291.034
290.092
289.18
288.297
287.443
286.617
285.819
285.049
284.306
283.588
282.897
282.231
281.59
280.974
280.381
279.811
279.265
278.741
278.238
277.758
277.298
276.858
276.439
276.039
275.658
275.296
274.952
274.626
274.317
274.025
273.75
273.491
273.249
273.021
272.809
272.612
272.43
272.262
272.108
271.968
271.842
271.729
271.629
271.543
271.469
271.408
271.36
271.325
271.302
271.291
271.292
397.915
393.748
389.625
385.566
381.591
377.715
373.951
370.305
366.78
363.377
360.093
356.926
353.87
350.921
348.072
345.319
342.656
340.078
337.58
335.158
332.808
330.526
328.308
326.153
324.056
322.016
320.03
318.097
316.215
314.381
312.596
310.856
309.162
307.512
305.905
304.34
302.817
301.334
299.891
298.487
297.121
295.793
294.503
293.249
292.03
290.848
289.7
288.586
287.506
286.46
285.446
284.464
283.513
282.594
281.705
280.847
280.017
279.217
278.445
277.701
276.984
276.294
275.63
274.991
274.378
273.79
273.225
272.684
272.166
271.671
271.198
270.746
270.315
269.905
269.515
269.144
268.793
268.461
268.146
267.85
267.571
267.31
267.065
266.837
266.625
266.428
266.247
266.081
265.931
265.794
265.673
265.565
265.472
265.393
265.327
265.275
265.237
265.212
265.2
265.202
397.931
393.796
389.697
385.65
381.674
377.781
373.983
370.286
366.696
363.214
359.839
356.57
353.405
350.339
347.368
344.488
341.696
338.987
336.356
333.801
331.317
328.902
326.553
324.267
322.04
319.873
317.761
315.704
313.699
311.746
309.843
307.988
306.181
304.42
302.705
301.034
299.407
297.823
296.281
294.78
293.32
291.901
290.521
289.18
287.877
286.612
285.384
284.193
283.037
281.917
280.832
279.782
278.765
277.781
276.83
275.911
275.023
274.166
273.34
272.543
271.775
271.037
270.326
269.642
268.986
268.356
267.751
267.172
266.617
266.087
265.58
265.096
264.635
264.196
263.778
263.381
263.005
262.649
262.312
261.995
261.697
261.416
261.154
260.91
260.682
260.472
260.278
260.101
259.939
259.793
259.663
259.548
259.448
259.363
259.292
259.237
259.196
259.169
259.156
259.158
397.938
393.814
389.721
385.673
381.683
377.764
373.927
370.178
366.523
362.964
359.502
356.136
352.866
349.689
346.603
343.603
340.687
337.852
335.095
332.411
329.8
327.257
324.78
322.366
320.015
317.723
315.488
313.31
311.186
309.116
307.097
305.13
303.211
301.342
299.52
297.745
296.016
294.332
292.693
291.097
289.545
288.035
286.567
285.14
283.753
282.407
281.1
279.832
278.602
277.41
276.255
275.136
274.053
273.005
271.992
271.014
270.068
269.156
268.275
267.427
266.609
265.822
265.065
264.336
263.637
262.966
262.322
261.705
261.114
260.548
260.008
259.493
259.001
258.533
258.088
257.665
257.264
256.885
256.526
256.188
255.87
255.572
255.292
255.031
254.789
254.565
254.358
254.169
253.997
253.841
253.702
253.58
253.473
253.382
253.307
253.248
253.204
253.175
253.162
253.164
397.937
393.809
389.708
385.644
381.631
377.679
373.797
369.994
366.273
362.638
359.091
355.633
352.263
348.98
345.783
342.668
339.634
336.679
333.799
330.993
328.257
325.59
322.99
320.454
317.98
315.567
313.213
310.917
308.677
306.492
304.361
302.282
300.255
298.279
296.352
294.475
292.646
290.864
289.129
287.44
285.796
284.197
282.642
281.13
279.662
278.235
276.85
275.506
274.203
272.939
271.715
270.529
269.381
268.27
267.196
266.158
265.155
264.188
263.254
262.354
261.487
260.652
259.849
259.077
258.335
257.623
256.939
256.285
255.658
255.058
254.485
253.939
253.417
252.92
252.448
252
251.574
251.172
250.791
250.432
250.095
249.778
249.481
249.205
248.947
248.709
248.49
248.289
248.106
247.941
247.794
247.664
247.551
247.454
247.375
247.311
247.265
247.234
247.22
247.222
397.929
393.784
389.663
385.574
381.529
377.536
373.606
369.745
365.957
362.247
358.618
355.069
351.603
348.218
344.914
341.689
338.542
335.47
332.473
329.548
326.693
323.906
321.186
318.531
315.939
313.408
310.938
308.526
306.173
303.876
301.634
299.447
297.314
295.233
293.204
291.226
289.298
287.42
285.59
283.809
282.076
280.389
278.748
277.153
275.604
274.098
272.636
271.218
269.842
268.507
267.214
265.962
264.75
263.577
262.442
261.346
260.287
259.265
258.279
257.328
256.412
255.53
254.681
253.865
253.081
252.329
251.607
250.915
250.253
249.619
249.014
248.436
247.885
247.36
246.861
246.387
245.937
245.511
245.109
244.73
244.373
244.038
243.725
243.432
243.16
242.909
242.677
242.465
242.271
242.097
241.941
241.803
241.683
241.582
241.497
241.431
241.381
241.349
241.334
241.336
397.916
393.744
389.593
385.47
381.384
377.346
373.363
369.441
365.586
361.801
358.089
354.453
350.893
347.409
344.002
340.67
337.414
334.231
331.12
328.08
325.109
322.207
319.37
316.599
313.892
311.247
308.663
306.14
303.675
301.269
298.92
296.626
294.388
292.205
290.075
287.999
285.974
284.001
282.08
280.208
278.386
276.613
274.888
273.211
271.581
269.998
268.46
266.968
265.52
264.117
262.756
261.438
260.163
258.928
257.734
256.58
255.466
254.39
253.351
252.351
251.386
250.457
249.564
248.705
247.879
247.087
246.327
245.598
244.901
244.234
243.596
242.987
242.407
241.854
241.328
240.829
240.356
239.907
239.484
239.084
238.708
238.355
238.025
237.717
237.431
237.166
236.921
236.698
236.494
236.31
236.146
236
235.874
235.767
235.678
235.608
235.556
235.522
235.506
235.507
397.898
393.69
389.501
385.336
381.205
377.116
373.076
369.091
365.167
361.306
357.514
353.791
350.139
346.559
343.052
339.618
336.255
332.964
329.743
326.592
323.509
320.494
317.545
314.662
311.842
309.086
306.392
303.759
301.186
298.673
296.218
293.821
291.481
289.197
286.969
284.796
282.676
280.611
278.598
276.637
274.728
272.87
271.063
269.305
267.597
265.937
264.324
262.76
261.241
259.769
258.342
256.96
255.621
254.326
253.073
251.863
250.693
249.564
248.474
247.424
246.412
245.437
244.499
243.598
242.731
241.9
241.102
240.337
239.605
238.904
238.235
237.596
236.986
236.406
235.854
235.33
234.832
234.362
233.917
233.497
233.103
232.732
232.385
232.062
231.761
231.483
231.226
230.991
230.777
230.584
230.411
230.259
230.126
230.013
229.92
229.846
229.791
229.755
229.738
229.74
397.877
393.625
389.391
385.179
380.997
376.853
372.753
368.702
364.707
360.771
356.898
353.089
349.348
345.674
342.07
338.535
335.07
331.673
328.346
325.087
321.896
318.772
315.713
312.72
309.792
306.927
304.126
301.386
298.708
296.09
293.532
291.034
288.593
286.211
283.886
281.618
279.406
277.249
275.147
273.099
271.105
269.163
267.274
265.437
263.651
261.916
260.23
258.594
257.006
255.466
253.974
252.528
251.128
249.773
248.462
247.195
245.972
244.79
243.65
242.551
241.492
240.472
239.49
238.546
237.639
236.769
235.934
235.133
234.367
233.633
232.932
232.263
231.625
231.018
230.44
229.891
229.37
228.877
228.412
227.972
227.559
227.171
226.808
226.469
226.154
225.862
225.593
225.347
225.123
224.921
224.74
224.58
224.441
224.323
224.225
224.148
224.09
224.052
224.035
224.036
397.853
393.552
389.267
385.003
380.765
376.561
372.398
368.281
364.214
360.202
356.248
352.354
348.524
344.759
341.06
337.427
333.862
330.363
326.933
323.569
320.272
317.041
313.877
310.778
307.743
304.773
301.866
299.022
296.241
293.521
290.863
288.265
285.727
283.249
280.829
278.468
276.164
273.918
271.728
269.595
267.517
265.493
263.524
261.609
259.747
257.937
256.18
254.473
252.817
251.211
249.654
248.145
246.684
245.27
243.903
242.581
241.304
240.07
238.88
237.733
236.627
235.563
234.538
233.553
232.606
231.697
230.825
229.989
229.189
228.423
227.691
226.993
226.326
225.692
225.088
224.515
223.971
223.456
222.97
222.511
222.079
221.674
221.295
220.941
220.612
220.307
220.026
219.769
219.535
219.324
219.135
218.968
218.822
218.699
218.596
218.515
218.455
218.416
218.397
218.399
397.826
393.471
389.131
384.81
380.513
376.247
372.018
367.831
363.691
359.603
355.568
351.591
347.674
343.819
340.026
336.298
332.635
329.037
325.506
322.04
318.64
315.306
312.038
308.835
305.697
302.624
299.615
296.67
293.788
290.969
288.212
285.517
282.883
280.311
277.798
275.346
272.953
270.619
268.344
266.126
263.966
261.862
259.815
257.823
255.886
254.003
252.174
250.399
248.675
247.004
245.383
243.813
242.292
240.82
239.397
238.02
236.691
235.407
234.168
232.973
231.821
230.712
229.645
228.619
227.633
226.686
225.778
224.907
224.073
223.276
222.513
221.786
221.091
220.43
219.802
219.204
218.638
218.101
217.595
217.116
216.667
216.244
215.849
215.48
215.137
214.82
214.527
214.259
214.015
213.794
213.597
213.423
213.272
213.143
213.036
212.951
212.888
212.847
212.828
212.829
397.797
393.384
388.985
384.603
380.244
375.913
371.616
367.359
363.145
358.979
354.865
350.805
346.801
342.857
338.973
335.151
331.393
327.698
324.068
320.503
317.003
313.569
310.2
306.896
303.658
300.484
297.375
294.331
291.35
288.434
285.581
282.791
280.064
277.399
274.796
272.255
269.775
267.355
264.995
262.695
260.454
258.271
256.147
254.08
252.069
250.115
248.216
246.373
244.583
242.847
241.164
239.533
237.954
236.425
234.946
233.516
232.135
230.801
229.513
228.272
227.075
225.923
224.814
223.747
222.723
221.738
220.794
219.89
219.023
218.194
217.401
216.645
215.923
215.236
214.582
213.961
213.372
212.814
212.287
211.79
211.323
210.883
210.472
210.089
209.732
209.402
209.097
208.819
208.565
208.335
208.13
207.949
207.792
207.658
207.546
207.458
207.393
207.35
207.329
207.331
397.766
393.292
388.831
384.385
379.961
375.563
371.197
366.867
362.579
358.336
354.142
349.999
345.91
341.878
337.904
333.991
330.139
326.35
322.624
318.962
315.364
311.832
308.364
304.962
301.625
298.354
295.148
292.007
288.93
285.919
282.972
280.09
277.271
274.516
271.825
269.196
266.63
264.126
261.684
259.303
256.982
254.722
252.522
250.381
248.299
246.274
244.307
242.397
240.542
238.743
236.999
235.308
233.671
232.086
230.553
229.07
227.638
226.255
224.92
223.632
222.391
221.196
220.046
218.94
217.877
216.856
215.877
214.938
214.039
213.179
212.357
211.572
210.823
210.11
209.432
208.787
208.176
207.598
207.051
206.535
206.05
205.594
205.167
204.769
204.399
204.056
203.74
203.451
203.187
202.949
202.736
202.548
202.385
202.245
202.13
202.038
201.97
201.925
201.904
201.905
397.734
393.196
388.67
384.158
379.667
375.2
370.763
366.361
361.997
357.676
353.402
349.177
345.004
340.886
336.824
332.82
328.877
324.995
321.175
317.418
313.726
310.097
306.534
303.036
299.603
296.236
292.935
289.699
286.53
283.425
280.387
277.414
274.506
271.663
268.884
266.17
263.52
260.934
258.411
255.951
253.553
251.217
248.943
246.729
244.576
242.483
240.448
238.472
236.554
234.693
232.889
231.14
229.445
227.805
226.219
224.684
223.202
221.77
220.388
219.056
217.771
216.534
215.343
214.198
213.098
212.041
211.027
210.055
209.124
208.233
207.382
206.569
205.794
205.055
204.353
203.685
203.053
202.453
201.887
201.352
200.85
200.377
199.935
199.523
199.14
198.784
198.457
198.157
197.884
197.637
197.417
197.222
197.052
196.908
196.788
196.693
196.622
196.576
196.553
196.554
397.701
393.096
388.504
383.924
379.363
374.826
370.317
365.841
361.402
357.004
352.65
348.343
344.087
339.883
335.734
331.642
327.609
323.636
319.725
315.875
312.089
308.368
304.711
301.119
297.593
294.132
290.738
287.411
284.15
280.955
277.827
274.765
271.77
268.84
265.977
263.18
260.448
257.781
255.178
252.641
250.167
247.757
245.41
243.125
240.903
238.742
236.641
234.601
232.62
230.699
228.835
227.028
225.278
223.584
221.945
220.36
218.828
217.349
215.921
214.544
213.217
211.938
210.708
209.524
208.387
207.294
206.246
205.242
204.279
203.359
202.478
201.638
200.837
200.073
199.347
198.657
198.002
197.383
196.797
196.244
195.724
195.236
194.779
194.353
193.956
193.589
193.25
192.94
192.657
192.402
192.174
191.972
191.797
191.647
191.523
191.425
191.351
191.303
191.28
191.281
397.667
392.994
388.333
383.684
379.053
374.444
369.863
365.312
360.797
356.321
351.888
347.5
343.161
338.873
334.639
330.46
326.339
322.277
318.275
314.335
310.458
306.645
302.897
299.213
295.596
292.045
288.56
285.143
281.792
278.509
275.294
272.145
269.064
266.051
263.105
260.225
257.413
254.667
251.988
249.374
246.826
244.343
241.925
239.571
237.28
235.053
232.888
230.785
228.743
226.761
224.839
222.976
221.172
219.424
217.734
216.099
214.519
212.993
211.52
210.099
208.729
207.41
206.141
204.919
203.745
202.618
201.537
200.5
199.507
198.557
197.648
196.781
195.954
195.166
194.416
193.704
193.028
192.388
191.784
191.213
190.676
190.172
189.7
189.26
188.85
188.471
188.121
187.801
187.509
187.246
187.01
186.801
186.62
186.465
186.337
186.235
186.159
186.109
186.085
186.086
397.632
392.89
388.159
383.44
378.737
374.056
369.401
364.776
360.185
355.631
351.119
346.651
342.23
337.859
333.54
329.276
325.068
320.919
316.829
312.801
308.835
304.932
301.094
297.322
293.615
289.975
286.402
282.897
279.459
276.09
272.789
269.556
266.392
263.296
260.268
257.309
254.418
251.595
248.84
246.152
243.531
240.977
238.489
236.067
233.71
231.417
229.189
227.024
224.922
222.882
220.903
218.985
217.127
215.327
213.586
211.902
210.275
208.703
207.185
205.722
204.311
202.952
201.644
200.385
199.176
198.015
196.9
195.832
194.808
193.829
192.893
191.999
191.146
190.334
189.561
188.827
188.131
187.471
186.848
186.26
185.706
185.187
184.7
184.246
183.824
183.433
183.072
182.742
182.441
182.169
181.926
181.711
181.524
181.364
181.232
181.127
181.048
180.996
180.971
180.972
397.597
392.784
387.982
383.192
378.417
373.664
368.935
364.234
359.567
354.936
350.345
345.797
341.296
336.843
332.441
328.092
323.8
319.565
315.389
311.274
307.221
303.231
299.306
295.446
291.652
287.925
284.266
280.675
277.152
273.698
270.313
266.998
263.752
260.576
257.469
254.432
251.465
248.566
245.737
242.976
240.284
237.66
235.104
232.615
230.193
227.837
225.546
223.321
221.16
219.062
217.028
215.056
213.145
211.294
209.503
207.772
206.098
204.481
202.92
201.414
199.963
198.564
197.219
195.924
194.679
193.484
192.338
191.238
190.185
189.177
188.214
187.294
186.416
185.58
184.785
184.029
183.312
182.633
181.992
181.386
180.817
180.282
179.781
179.313
178.878
178.476
178.104
177.764
177.454
177.174
176.924
176.702
176.509
176.345
176.208
176.1
176.019
175.965
175.939
175.94
397.562
392.677
387.804
382.942
378.095
373.268
368.465
363.69
358.946
354.239
349.57
344.943
340.361
335.827
331.343
326.912
322.536
318.217
313.956
309.756
305.618
301.543
297.532
293.587
289.708
285.896
282.153
278.478
274.872
271.336
267.87
264.474
261.148
257.894
254.709
251.596
248.553
245.581
242.679
239.848
237.086
234.394
231.771
229.217
226.731
224.312
221.961
219.677
217.458
215.304
213.215
211.19
209.227
207.326
205.487
203.708
201.989
200.328
198.724
197.177
195.686
194.249
192.866
191.536
190.257
189.029
187.851
186.721
185.638
184.603
183.612
182.667
181.765
180.905
180.088
179.311
178.574
177.876
177.217
176.594
176.008
175.458
174.943
174.463
174.015
173.601
173.219
172.869
172.551
172.263
172.005
171.777
171.579
171.409
171.269
171.157
171.074
171.018
170.991
170.991
397.526
392.57
387.624
382.69
377.77
372.87
367.993
363.143
358.324
353.54
348.794
344.088
339.427
334.813
330.249
325.736
321.278
316.877
312.533
308.25
304.028
299.87
295.776
291.747
287.785
283.891
280.065
276.308
272.621
269.004
265.459
261.984
258.581
255.249
251.989
248.802
245.686
242.641
239.669
236.768
233.938
231.179
228.491
225.873
223.324
220.845
218.434
216.092
213.817
211.608
209.465
207.388
205.375
203.425
201.538
199.713
197.949
196.245
194.6
193.012
191.482
190.008
188.589
187.223
185.911
184.65
183.441
182.281
181.17
180.107
179.09
178.119
177.193
176.311
175.472
174.674
173.918
173.201
172.524
171.885
171.283
170.718
170.189
169.696
169.236
168.811
168.419
168.059
167.732
167.436
167.171
166.937
166.733
166.559
166.414
166.299
166.213
166.157
166.128
166.128
397.49
392.462
387.445
382.438
377.445
372.472
367.521
362.596
357.702
352.842
348.019
343.236
338.497
333.804
329.16
324.568
320.029
315.547
311.122
306.757
302.454
298.214
294.038
289.928
285.884
281.909
278.003
274.166
270.4
266.705
263.081
259.53
256.051
252.644
249.311
246.05
242.862
239.748
236.706
233.737
230.841
228.017
225.265
222.584
219.975
217.436
214.967
212.568
210.238
207.975
205.78
203.652
201.589
199.592
197.659
195.788
193.98
192.234
190.548
188.921
187.352
185.841
184.386
182.987
181.641
180.349
179.109
177.92
176.781
175.69
174.648
173.653
172.703
171.799
170.938
170.12
169.344
168.609
167.914
167.259
166.642
166.062
165.52
165.013
164.542
164.106
163.703
163.335
162.998
162.695
162.423
162.183
161.973
161.795
161.646
161.528
161.44
161.381
161.352
161.352
397.454
392.354
387.265
382.185
377.12
372.074
367.049
362.051
357.082
352.146
347.248
342.388
337.572
332.802
328.079
323.408
318.791
314.228
309.724
305.279
300.896
296.576
292.32
288.13
284.008
279.954
275.969
272.054
268.211
264.439
260.74
257.113
253.56
250.08
246.674
243.343
240.085
236.902
233.793
230.758
227.796
224.909
222.094
219.353
216.684
214.087
211.561
209.106
206.722
204.407
202.161
199.983
197.872
195.827
193.848
191.934
190.083
188.295
186.569
184.903
183.297
181.75
180.26
178.827
177.449
176.126
174.856
173.638
172.472
171.355
170.288
169.268
168.295
167.369
166.487
165.649
164.854
164.101
163.39
162.718
162.086
161.492
160.936
160.417
159.934
159.487
159.075
158.697
158.352
158.041
157.762
157.516
157.301
157.118
156.966
156.844
156.753
156.693
156.663
156.662
397.418
392.246
387.085
381.934
376.796
371.677
366.579
361.507
356.465
351.455
346.481
341.546
336.653
331.806
327.007
322.259
317.563
312.923
308.341
303.818
299.357
294.958
290.624
286.357
282.157
278.025
273.964
269.973
266.054
262.208
258.434
254.734
251.109
247.558
244.082
240.681
237.355
234.104
230.929
227.83
224.805
221.855
218.98
216.179
213.451
210.797
208.216
205.707
203.27
200.904
198.607
196.381
194.223
192.132
190.109
188.151
186.258
184.43
182.664
180.961
179.318
177.736
176.212
174.746
173.337
171.983
170.684
169.438
168.244
167.102
166.009
164.966
163.971
163.023
162.12
161.263
160.45
159.679
158.951
158.263
157.616
157.009
156.439
155.908
155.414
154.956
154.534
154.147
153.794
153.475
153.19
152.937
152.717
152.529
152.373
152.249
152.156
152.094
152.063
152.062
397.382
392.139
386.907
381.683
376.474
371.282
366.112
360.967
355.851
350.768
345.719
340.71
335.743
330.82
325.946
321.121
316.35
311.633
306.974
302.375
297.837
293.362
288.952
284.608
280.332
276.126
271.989
267.924
263.931
260.012
256.166
252.395
248.699
245.078
241.533
238.065
234.672
231.356
228.117
224.954
221.867
218.857
215.922
213.063
210.279
207.569
204.934
202.372
199.883
197.467
195.122
192.847
190.643
188.508
186.44
184.441
182.507
180.639
178.835
177.095
175.416
173.799
172.242
170.744
169.303
167.92
166.592
165.319
164.099
162.931
161.814
160.748
159.731
158.761
157.839
156.962
156.131
155.343
154.598
153.895
153.234
152.612
152.03
151.487
150.982
150.513
150.081
149.685
149.325
148.998
148.706
148.448
148.223
148.031
147.871
147.743
147.648
147.584
147.552
147.551
397.347
392.033
386.729
381.435
376.154
370.891
365.649
360.432
355.243
350.087
344.965
339.883
334.841
329.845
324.896
319.997
315.15
310.359
305.625
300.95
296.337
291.788
287.303
282.885
278.535
274.255
270.046
265.908
261.843
257.853
253.936
250.095
246.33
242.642
239.03
235.496
232.038
228.659
225.356
222.132
218.985
215.915
212.922
210.006
207.167
204.403
201.715
199.101
196.562
194.096
191.704
189.383
187.133
184.954
182.845
180.803
178.83
176.923
175.082
173.305
171.592
169.941
168.351
166.821
165.351
163.938
162.582
161.282
160.036
158.844
157.703
156.614
155.575
154.585
153.643
152.748
151.899
151.094
150.333
149.615
148.939
148.304
147.71
147.155
146.638
146.16
145.718
145.314
144.945
144.612
144.313
144.049
143.819
143.622
143.458
143.328
143.23
143.165
143.132
143.13
397.312
391.927
386.553
381.188
375.837
370.503
365.19
359.902
354.641
349.413
344.219
339.064
333.95
328.881
323.859
318.886
313.967
309.102
304.295
299.547
294.86
290.238