/*--------------------------------*- C++ -*----------------------------------*\
  =========                 |
  \\      /  F ield         | OpenFOAM: The Open Source CFD Toolbox
   \\    /   O peration     | Website:  https://openfoam.org
    \\  /    A nd           | Version:  10
     \\/     M anipulation  |
\*---------------------------------------------------------------------------*/
FoamFile
{
    format      ascii;
    class       volScalarField;
    location    "15";
    object      T_0;
}
// * * * * * * * * * * * * * * * * * * * * * * * * * * * * * * * * * * * * * //

dimensions      [0 0 0 1 0 0 0];

internalField   nonuniform List<scalar> 
10000
(
374.96
361.233
356.516
354.429
353.281
352.543
352.019
351.619
351.299
351.033
350.806
350.607
350.43
350.27
350.124
349.989
349.863
349.745
349.634
349.528
349.427
349.331
349.239
349.15
349.065
348.983
348.903
348.826
348.752
348.679
348.609
348.541
348.476
348.411
348.349
348.289
348.23
348.173
348.118
348.064
348.011
347.961
347.911
347.863
347.817
347.772
347.728
347.686
347.645
347.605
347.566
347.529
347.493
347.458
347.424
347.392
347.36
347.33
347.301
347.273
347.246
347.219
347.194
347.17
347.147
347.125
347.103
347.083
347.063
347.045
347.027
347.01
346.993
346.978
346.963
346.949
346.936
346.923
346.912
346.9
346.89
346.88
346.871
346.862
346.854
346.847
346.84
346.834
346.828
346.823
346.818
346.814
346.811
346.808
346.805
346.803
346.802
346.801
346.801
346.8
388.556
374.693
366.929
362.358
359.44
357.426
355.941
354.787
353.852
353.07
352.398
351.809
351.283
350.807
350.371
349.968
349.592
349.239
348.906
348.589
348.288
348
347.724
347.458
347.203
346.956
346.718
346.487
346.264
346.047
345.838
345.634
345.436
345.244
345.057
344.876
344.7
344.529
344.363
344.201
344.044
343.892
343.744
343.6
343.461
343.326
343.195
343.068
342.944
342.825
342.71
342.598
342.49
342.385
342.284
342.186
342.092
342.001
341.913
341.829
341.748
341.669
341.594
341.521
341.452
341.385
341.321
341.26
341.201
341.145
341.091
341.04
340.991
340.945
340.901
340.859
340.819
340.782
340.746
340.712
340.681
340.651
340.624
340.598
340.574
340.552
340.531
340.513
340.495
340.48
340.466
340.454
340.444
340.435
340.427
340.422
340.417
340.415
340.413
340.413
393.136
382.047
374.146
368.631
364.694
361.778
359.53
357.733
356.251
354.995
353.907
352.947
352.086
351.303
350.585
349.92
349.298
348.713
348.161
347.637
347.136
346.658
346.199
345.758
345.333
344.923
344.527
344.143
343.771
343.411
343.062
342.723
342.394
342.074
341.763
341.462
341.168
340.883
340.607
340.338
340.076
339.823
339.576
339.337
339.105
338.88
338.661
338.45
338.244
338.046
337.853
337.667
337.487
337.313
337.144
336.981
336.824
336.673
336.527
336.386
336.251
336.12
335.995
335.874
335.758
335.647
335.54
335.438
335.34
335.247
335.158
335.072
334.991
334.914
334.84
334.77
334.704
334.641
334.582
334.526
334.474
334.424
334.378
334.335
334.295
334.258
334.224
334.193
334.165
334.139
334.116
334.096
334.079
334.064
334.051
334.042
334.034
334.03
334.028
334.028
395.086
386.208
378.978
373.327
368.93
365.463
362.67
360.368
358.427
356.756
355.293
353.99
352.814
351.741
350.752
349.833
348.973
348.163
347.396
346.666
345.971
345.305
344.665
344.05
343.457
342.885
342.332
341.796
341.277
340.774
340.286
339.812
339.352
338.905
338.471
338.049
337.639
337.241
336.854
336.478
336.113
335.758
335.413
335.079
334.754
334.439
334.134
333.837
333.551
333.272
333.003
332.743
332.491
332.247
332.011
331.784
331.564
331.352
331.148
330.951
330.761
330.579
330.403
330.234
330.072
329.917
329.768
329.625
329.488
329.357
329.232
329.113
328.999
328.891
328.788
328.69
328.598
328.51
328.427
328.349
328.275
328.206
328.142
328.082
328.026
327.974
327.926
327.883
327.843
327.807
327.775
327.747
327.723
327.702
327.684
327.671
327.661
327.654
327.651
327.652
396.099
388.717
382.234
376.772
372.239
368.476
365.323
362.645
360.337
358.316
356.523
354.912
353.447
352.102
350.857
349.696
348.606
347.578
346.602
345.673
344.786
343.935
343.118
342.332
341.573
340.841
340.132
339.446
338.781
338.136
337.51
336.903
336.313
335.739
335.182
334.641
334.115
333.603
333.107
332.624
332.155
331.699
331.257
330.827
330.411
330.006
329.614
329.234
328.865
328.508
328.162
327.828
327.504
327.191
326.889
326.596
326.314
326.042
325.779
325.527
325.283
325.048
324.823
324.606
324.398
324.198
324.006
323.823
323.647
323.479
323.319
323.165
323.019
322.88
322.748
322.622
322.503
322.391
322.284
322.184
322.09
322.001
321.918
321.841
321.769
321.702
321.641
321.585
321.534
321.488
321.447
321.411
321.379
321.352
321.33
321.313
321.3
321.292
321.288
321.288
396.7
390.324
384.472
379.289
374.781
370.883
367.506
364.559
361.964
359.655
357.579
355.695
353.968
352.373
350.888
349.499
348.19
346.951
345.774
344.651
343.577
342.546
341.555
340.6
339.679
338.788
337.926
337.091
336.282
335.496
334.734
333.994
333.275
332.576
331.897
331.237
330.595
329.972
329.366
328.777
328.205
327.649
327.109
326.585
326.077
325.583
325.105
324.64
324.191
323.755
323.333
322.925
322.529
322.147
321.778
321.421
321.077
320.745
320.424
320.116
319.818
319.532
319.257
318.992
318.738
318.494
318.26
318.036
317.821
317.616
317.42
317.233
317.055
316.885
316.723
316.57
316.425
316.287
316.157
316.035
315.92
315.811
315.71
315.616
315.528
315.447
315.372
315.304
315.241
315.185
315.135
315.091
315.052
315.02
314.993
314.971
314.955
314.945
314.941
314.941
397.089
391.403
386.043
381.135
376.717
372.775
369.264
366.128
363.313
360.769
358.453
356.329
354.368
352.543
350.837
349.233
347.716
346.277
344.906
343.596
342.341
341.135
339.974
338.854
337.772
336.726
335.713
334.732
333.779
332.855
331.958
331.086
330.24
329.416
328.616
327.838
327.082
326.347
325.633
324.939
324.264
323.609
322.972
322.354
321.754
321.172
320.608
320.06
319.529
319.015
318.518
318.036
317.57
317.119
316.683
316.262
315.856
315.464
315.085
314.721
314.37
314.032
313.707
313.395
313.095
312.807
312.531
312.267
312.013
311.771
311.54
311.319
311.109
310.908
310.718
310.537
310.365
310.203
310.049
309.905
309.769
309.641
309.522
309.41
309.307
309.211
309.123
309.042
308.968
308.902
308.843
308.79
308.745
308.706
308.674
308.649
308.631
308.619
308.613
308.614
397.354
392.152
387.165
382.493
378.183
374.242
370.652
367.383
364.399
361.665
359.146
356.813
354.642
352.61
350.699
348.893
347.181
345.552
343.996
342.505
341.075
339.698
338.372
337.091
335.852
334.654
333.493
332.367
331.274
330.213
329.182
328.181
327.207
326.261
325.341
324.447
323.577
322.732
321.91
321.111
320.334
319.58
318.847
318.136
317.445
316.775
316.125
315.495
314.884
314.292
313.719
313.164
312.627
312.108
311.606
311.121
310.653
310.201
309.766
309.346
308.942
308.552
308.178
307.818
307.473
307.141
306.823
306.518
306.227
305.948
305.681
305.427
305.184
304.954
304.734
304.526
304.328
304.141
303.964
303.797
303.641
303.494
303.356
303.228
303.108
302.998
302.896
302.803
302.718
302.642
302.574
302.513
302.461
302.416
302.38
302.351
302.329
302.315
302.309
302.31
397.54
392.684
387.976
383.495
379.285
375.363
371.727
368.362
365.246
362.355
359.664
357.15
354.791
352.57
350.47
348.478
346.582
344.772
343.039
341.376
339.776
338.235
336.747
335.31
333.918
332.571
331.264
329.996
328.765
327.569
326.407
325.278
324.179
323.111
322.073
321.063
320.081
319.126
318.197
317.295
316.417
315.565
314.737
313.933
313.152
312.395
311.66
310.947
310.256
309.587
308.939
308.311
307.704
307.117
306.549
306.001
305.471
304.961
304.468
303.993
303.536
303.096
302.672
302.265
301.874
301.499
301.139
300.795
300.465
300.149
299.847
299.56
299.285
299.024
298.776
298.54
298.316
298.105
297.905
297.716
297.539
297.372
297.217
297.071
296.936
296.811
296.696
296.591
296.495
296.408
296.331
296.263
296.204
296.153
296.112
296.079
296.055
296.039
296.032
296.033
397.672
393.064
388.563
384.23
380.104
376.205
372.539
369.102
365.88
362.858
360.019
357.345
354.819
352.426
350.153
347.987
345.918
343.937
342.035
340.207
338.444
336.744
335.1
333.51
331.969
330.476
329.027
327.62
326.253
324.924
323.633
322.377
321.156
319.968
318.812
317.688
316.595
315.532
314.498
313.492
312.515
311.565
310.643
309.747
308.877
308.032
307.213
306.419
305.649
304.903
304.18
303.48
302.803
302.149
301.516
300.904
300.314
299.744
299.195
298.665
298.155
297.664
297.192
296.738
296.302
295.884
295.483
295.098
294.73
294.378
294.042
293.721
293.415
293.123
292.846
292.583
292.334
292.097
291.874
291.664
291.466
291.28
291.107
290.945
290.794
290.655
290.526
290.409
290.302
290.205
290.119
290.043
289.977
289.92
289.874
289.837
289.81
289.793
289.785
289.786
397.766
393.337
388.987
384.764
380.702
376.822
373.133
369.637
366.326
363.192
360.224
357.408
354.731
352.182
349.748
347.421
345.19
343.047
340.985
338.997
337.079
335.225
333.43
331.691
330.006
328.37
326.781
325.238
323.738
322.28
320.861
319.481
318.138
316.832
315.561
314.324
313.121
311.95
310.812
309.705
308.629
307.583
306.567
305.58
304.621
303.691
302.788
301.913
301.064
300.242
299.445
298.674
297.928
297.206
296.508
295.834
295.183
294.555
293.95
293.366
292.803
292.262
291.741
291.241
290.76
290.299
289.856
289.432
289.026
288.638
288.267
287.913
287.575
287.254
286.948
286.658
286.383
286.123
285.877
285.645
285.426
285.222
285.03
284.851
284.685
284.531
284.39
284.26
284.142
284.035
283.94
283.856
283.783
283.721
283.67
283.629
283.599
283.58
283.571
283.573
397.833
393.53
389.287
385.143
381.127
377.257
373.546
369.997
366.609
363.377
360.293
357.349
354.535
351.842
349.261
346.782
344.398
342.102
339.887
337.748
335.68
333.677
331.737
329.854
328.027
326.253
324.529
322.852
321.222
319.635
318.092
316.589
315.127
313.704
312.319
310.971
309.66
308.384
307.142
305.935
304.761
303.62
302.511
301.433
300.387
299.372
298.387
297.431
296.504
295.606
294.737
293.894
293.079
292.291
291.529
290.793
290.082
289.396
288.735
288.097
287.483
286.891
286.322
285.775
285.25
284.746
284.263
283.799
283.356
282.932
282.526
282.14
281.771
281.42
281.086
280.769
280.468
280.183
279.914
279.661
279.422
279.199
278.989
278.794
278.612
278.444
278.289
278.148
278.019
277.902
277.798
277.706
277.627
277.559
277.503
277.458
277.426
277.404
277.395
277.396
397.878
393.662
389.491
385.4
381.412
377.544
373.807
370.209
366.75
363.429
360.241
357.181
354.241
351.414
348.695
346.074
343.546
341.105
338.745
336.461
334.248
332.103
330.021
327.999
326.035
324.126
322.269
320.462
318.704
316.992
315.326
313.704
312.124
310.587
309.089
307.632
306.213
304.833
303.49
302.183
300.912
299.677
298.477
297.31
296.177
295.078
294.011
292.975
291.972
290.999
290.057
289.144
288.261
287.407
286.581
285.784
285.013
284.27
283.553
282.861
282.196
281.555
280.938
280.345
279.776
279.229
278.705
278.203
277.722
277.262
276.823
276.404
276.004
275.623
275.261
274.917
274.591
274.283
273.991
273.716
273.458
273.215
272.988
272.776
272.579
272.397
272.229
272.075
271.935
271.809
271.696
271.597
271.51
271.437
271.376
271.328
271.292
271.269
271.258
271.26
397.908
393.747
389.622
385.562
381.585
377.709
373.943
370.296
366.77
363.366
360.081
356.913
353.856
350.905
348.056
345.302
342.638
340.058
337.56
335.137
332.785
330.502
328.284
326.127
324.03
321.989
320.003
318.069
316.186
314.352
312.565
310.825
309.13
307.48
305.872
304.307
302.783
301.3
299.856
298.452
297.086
295.757
294.466
293.212
291.994
290.811
289.662
288.549
287.469
286.422
285.408
284.426
283.475
282.556
281.667
280.808
279.979
279.179
278.406
277.662
276.945
276.255
275.591
274.953
274.34
273.751
273.187
272.646
272.128
271.633
271.16
270.708
270.278
269.868
269.478
269.107
268.756
268.424
268.11
267.814
267.535
267.274
267.029
266.801
266.589
266.392
266.211
266.046
265.895
265.759
265.637
265.53
265.437
265.358
265.292
265.24
265.202
265.177
265.166
265.167
397.924
393.795
389.694
385.646
381.668
377.774
373.975
370.277
366.685
363.202
359.826
356.556
353.389
350.322
347.35
344.47
341.676
338.966
336.334
333.778
331.293
328.877
326.527
324.24
322.013
319.844
317.732
315.674
313.668
311.714
309.81
307.955
306.147
304.386
302.67
300.998
299.371
297.786
296.243
294.743
293.282
291.862
290.482
289.141
287.838
286.572
285.344
284.153
282.997
281.877
280.792
279.741
278.724
277.74
276.789
275.87
274.982
274.125
273.299
272.502
271.734
270.996
270.285
269.601
268.945
268.315
267.71
267.131
266.577
266.047
265.54
265.056
264.595
264.156
263.738
263.342
262.966
262.61
262.273
261.956
261.658
261.378
261.116
260.871
260.644
260.434
260.24
260.063
259.901
259.755
259.625
259.51
259.41
259.325
259.255
259.2
259.158
259.132
259.119
259.121
397.931
393.813
389.718
385.668
381.677
377.757
373.918
370.168
366.511
362.951
359.488
356.121
352.85
349.672
346.584
343.583
340.666
337.83
335.071
332.387
329.774
327.23
324.752
322.338
319.985
317.692
315.457
313.278
311.153
309.082
307.063
305.094
303.175
301.305
299.483
297.707
295.977
294.293
292.653
291.057
289.504
287.994
286.525
285.098
283.712
282.365
281.058
279.789
278.559
277.367
276.212
275.093
274.01
272.962
271.949
270.97
270.024
269.112
268.232
267.383
266.565
265.778
265.021
264.293
263.594
262.922
262.279
261.662
261.071
260.506
259.966
259.45
258.959
258.491
258.046
257.623
257.223
256.843
256.485
256.147
255.829
255.531
255.251
254.991
254.748
254.524
254.318
254.129
253.956
253.801
253.662
253.54
253.433
253.343
253.268
253.208
253.164
253.136
253.123
253.124
397.93
393.808
389.705
385.639
381.624
377.671
373.788
369.983
366.261
362.625
359.076
355.617
352.246
348.962
345.763
342.647
339.612
336.655
333.774
330.967
328.23
325.562
322.961
320.423
317.949
315.535
313.18
310.883
308.642
306.456
304.324
302.245
300.217
298.24
296.313
294.435
292.605
290.823
289.087
287.397
285.753
284.154
282.598
281.086
279.617
278.191
276.805
275.461
274.158
272.894
271.669
270.483
269.335
268.224
267.15
266.112
265.109
264.142
263.208
262.308
261.441
260.606
259.803
259.031
258.289
257.577
256.894
256.239
255.613
255.013
254.44
253.894
253.372
252.876
252.404
251.955
251.53
251.128
250.747
250.389
250.051
249.734
249.438
249.162
248.905
248.667
248.447
248.247
248.064
247.899
247.752
247.622
247.509
247.412
247.333
247.27
247.223
247.193
247.179
247.18
397.922
393.783
389.66
385.569
381.522
377.528
373.596
369.733
365.944
362.233
358.602
355.052
351.585
348.198
344.893
341.667
338.518
335.445
332.447
329.521
326.664
323.876
321.155
318.499
315.906
313.374
310.903
308.491
306.136
303.838
301.596
299.408
297.273
295.192
293.162
291.183
289.255
287.376
285.546
283.765
282.031
280.343
278.702
277.107
275.557
274.051
272.589
271.17
269.794
268.46
267.166
265.914
264.701
263.528
262.394
261.298
260.239
259.216
258.23
257.279
256.363
255.481
254.633
253.817
253.033
252.281
251.559
250.867
250.205
249.572
248.966
248.389
247.838
247.313
246.814
246.34
245.891
245.465
245.063
244.684
244.327
243.993
243.679
243.387
243.115
242.864
242.632
242.42
242.227
242.052
241.896
241.759
241.639
241.537
241.453
241.387
241.337
241.305
241.29
241.292
397.909
393.742
389.589
385.464
381.377
377.338
373.353
369.429
365.572
361.786
358.073
354.435
350.873
347.388
343.98
340.647
337.389
334.205
331.092
328.051
325.079
322.175
319.338
316.566
313.857
311.211
308.627
306.102
303.637
301.229
298.879
296.585
294.346
292.162
290.032
287.954
285.929
283.956
282.033
280.161
278.339
276.565
274.84
273.163
271.532
269.949
268.411
266.918
265.47
264.066
262.706
261.388
260.112
258.877
257.683
256.529
255.415
254.339
253.3
252.3
251.335
250.407
249.513
248.654
247.829
247.037
246.277
245.548
244.851
244.184
243.546
242.938
242.358
241.805
241.279
240.78
240.307
239.859
239.435
239.036
238.66
238.308
237.978
237.67
237.383
237.118
236.874
236.651
236.447
236.263
236.099
235.954
235.828
235.721
235.632
235.562
235.51
235.476
235.46
235.461
397.891
393.689
389.497
385.331
381.198
377.107
373.065
369.079
365.153
361.291
357.497
353.772
350.119
346.538
343.029
339.593
336.229
332.936
329.714
326.562
323.478
320.462
317.512
314.627
311.806
309.049
306.354
303.72
301.146
298.632
296.176
293.778
291.437
289.152
286.923
284.749
282.629
280.563
278.549
276.588
274.679
272.82
271.013
269.254
267.545
265.885
264.273
262.707
261.189
259.716
258.289
256.907
255.568
254.273
253.02
251.809
250.64
249.511
248.421
247.371
246.359
245.384
244.446
243.545
242.678
241.847
241.049
240.285
239.552
238.852
238.183
237.544
236.935
236.355
235.803
235.279
234.782
234.311
233.866
233.447
233.053
232.682
232.336
232.012
231.712
231.433
231.177
230.942
230.728
230.535
230.363
230.21
230.078
229.965
229.872
229.798
229.743
229.707
229.69
229.692
397.87
393.624
389.388
385.173
380.99
376.843
372.741
368.689
364.693
360.755
356.88
353.07
349.327
345.652
342.046
338.509
335.042
331.645
328.316
325.056
321.863
318.738
315.678
312.684
309.754
306.888
304.085
301.345
298.665
296.047
293.488
290.988
288.547
286.164
283.839
281.57
279.357
277.199
275.096
273.048
271.053
269.111
267.222
265.384
263.598
261.862
260.176
258.54
256.952
255.412
253.919
252.473
251.072
249.717
248.407
247.14
245.916
244.735
243.595
242.495
241.436
240.416
239.435
238.491
237.584
236.714
235.879
235.078
234.312
233.579
232.878
232.209
231.572
230.964
230.386
229.838
229.317
228.825
228.359
227.92
227.507
227.119
226.756
226.417
226.102
225.811
225.542
225.296
225.072
224.87
224.689
224.53
224.391
224.273
224.175
224.097
224.04
224.002
223.985
223.986
397.845
393.55
389.263
384.996
380.757
376.552
372.386
368.267
364.199
360.185
356.229
352.334
348.503
344.736
341.035
337.4
333.833
330.334
326.901
323.536
320.238
317.006
313.84
310.739
307.704
304.732
301.824
298.979
296.197
293.476
290.817
288.218
285.679
283.2
280.779
278.417
276.113
273.866
271.676
269.542
267.463
265.439
263.47
261.554
259.692
257.882
256.123
254.416
252.76
251.154
249.596
248.088
246.627
245.213
243.845
242.523
241.246
240.013
238.823
237.675
236.57
235.505
234.48
233.495
232.549
231.64
230.768
229.932
229.132
228.367
227.635
226.936
226.27
225.636
225.033
224.46
223.916
223.402
222.915
222.457
222.025
221.62
221.241
220.887
220.558
220.254
219.973
219.716
219.482
219.271
219.082
218.915
218.77
218.647
218.544
218.463
218.403
218.364
218.345
218.347
397.818
393.469
389.127
384.803
380.504
376.236
372.006
367.817
363.676
359.585
355.549
351.57
347.651
343.794
340
336.27
332.605
329.006
325.473
322.006
318.605
315.27
312
308.796
305.657
302.582
299.572
296.625
293.742
290.922
288.164
285.468
282.834
280.26
277.747
275.294
272.9
270.566
268.289
266.071
263.91
261.806
259.758
257.766
255.828
253.945
252.116
250.34
248.616
246.945
245.324
243.753
242.233
240.761
239.337
237.96
236.631
235.347
234.108
232.913
231.761
230.653
229.586
228.559
227.574
226.627
225.719
224.848
224.015
223.217
222.455
221.728
221.034
220.373
219.744
219.147
218.581
218.045
217.538
217.06
216.61
216.188
215.793
215.425
215.082
214.764
214.472
214.204
213.96
213.74
213.543
213.369
213.218
213.089
212.982
212.897
212.835
212.794
212.774
212.776
397.789
393.382
388.981
384.596
380.235
375.902
371.604
367.344
363.129
358.961
354.845
350.783
346.778
342.832
338.946
335.123
331.362
327.666
324.035
320.468
316.967
313.531
310.16
306.855
303.615
300.44
297.33
294.285
291.303
288.386
285.532
282.741
280.013
277.347
274.743
272.201
269.72
267.299
264.939
262.638
260.396
258.213
256.088
254.02
252.01
250.055
248.156
246.312
244.522
242.786
241.103
239.472
237.892
236.363
234.884
233.454
232.073
230.739
229.451
228.21
227.013
225.861
224.752
223.686
222.661
221.677
220.733
219.829
218.962
218.133
217.341
216.585
215.863
215.176
214.523
213.902
213.313
212.756
212.229
211.732
211.265
210.826
210.415
210.031
209.675
209.345
209.041
208.762
208.508
208.279
208.074
207.893
207.736
207.602
207.491
207.403
207.337
207.294
207.274
207.275
397.759
393.29
388.826
384.378
379.952
375.552
371.184
366.853
362.562
358.317
354.121
349.976
345.886
341.852
337.876
333.961
330.108
326.317
322.589
318.925
315.326
311.792
308.323
304.92
301.582
298.309
295.101
291.959
288.882
285.869
282.921
280.037
277.218
274.462
271.769
269.14
266.573
264.068
261.625
259.244
256.923
254.662
252.462
250.32
248.237
246.212
244.245
242.334
240.479
238.68
236.936
235.245
233.607
232.022
230.489
229.006
227.574
226.191
224.856
223.568
222.327
221.132
219.982
218.876
217.813
216.793
215.814
214.875
213.977
213.117
212.295
211.51
210.762
210.049
209.371
208.727
208.116
207.537
206.991
206.475
205.99
205.534
205.108
204.71
204.34
203.997
203.682
203.392
203.129
202.891
202.678
202.49
202.327
202.188
202.072
201.981
201.913
201.868
201.846
201.848
397.727
393.194
388.665
384.151
379.657
375.188
370.749
366.345
361.98
357.657
353.381
349.154
344.979
340.859
336.795
332.79
328.845
324.961
321.139
317.381
313.686
310.057
306.492
302.992
299.558
296.19
292.887
289.65
286.479
283.374
280.334
277.36
274.451
271.607
268.827
266.113
263.462
260.875
258.351
255.89
253.492
251.155
248.88
246.666
244.513
242.419
240.384
238.408
236.489
234.628
232.823
231.074
229.38
227.74
226.153
224.619
223.136
221.704
220.323
218.99
217.705
216.468
215.278
214.133
213.032
211.976
210.962
209.99
209.06
208.169
207.318
206.505
205.73
204.992
204.29
203.623
202.99
202.391
201.825
201.291
200.788
200.316
199.874
199.462
199.079
198.724
198.397
198.097
197.824
197.578
197.357
197.162
196.993
196.849
196.729
196.634
196.563
196.517
196.494
196.496
397.694
393.094
388.499
383.917
379.354
374.815
370.304
365.825
361.384
356.984
352.628
348.319
344.061
339.855
335.704
331.611
327.576
323.601
319.688
315.837
312.049
308.326
304.667
301.074
297.546
294.085
290.689
287.36
284.098
280.902
277.773
274.71
271.713
268.783
265.919
263.12
260.387
257.72
255.117
252.578
250.104
247.693
245.346
243.06
240.837
238.676
236.575
234.535
232.554
230.632
228.768
226.961
225.211
223.517
221.877
220.292
218.761
217.281
215.853
214.476
213.149
211.871
210.64
209.457
208.32
207.227
206.18
205.175
204.213
203.293
202.413
201.573
200.771
200.008
199.282
198.592
197.938
197.319
196.733
196.181
195.661
195.173
194.717
194.29
193.894
193.527
193.188
192.878
192.596
192.341
192.113
191.911
191.736
191.586
191.463
191.364
191.291
191.243
191.219
191.22
397.66
392.992
388.328
383.677
379.043
374.432
369.849
365.296
360.779
356.301
351.865
347.475
343.134
338.844
334.608
330.428
326.304
322.241
318.237
314.296
310.417
306.602
302.852
299.167
295.548
291.996
288.51
285.091
281.739
278.455
275.238
272.088
269.006
265.992
263.045
260.165
257.351
254.605
251.924
249.31
246.761
244.278
241.859
239.504
237.213
234.985
232.82
230.716
228.674
226.692
224.77
222.907
221.102
219.355
217.664
216.029
214.449
212.923
211.45
210.03
208.66
207.341
206.071
204.85
203.677
202.55
201.468
200.432
199.439
198.489
197.581
196.714
195.887
195.099
194.349
193.637
192.962
192.323
191.718
191.148
190.611
190.108
189.636
189.196
188.786
188.407
188.058
187.738
187.446
187.183
186.947
186.739
186.558
186.403
186.275
186.173
186.097
186.047
186.023
186.024
397.625
392.888
388.154
383.432
378.727
374.044
369.387
364.759
360.166
355.61
351.096
346.625
342.202
337.829
333.509
329.243
325.033
320.882
316.79
312.76
308.792
304.888
301.049
297.274
293.566
289.925
286.35
282.843
279.405
276.034
272.731
269.497
266.332
263.235
260.207
257.247
254.355
251.531
248.775
246.086
243.465
240.91
238.421
235.999
233.641
231.348
229.119
226.954
224.852
222.811
220.832
218.914
217.056
215.256
213.515
211.831
210.203
208.632
207.114
205.651
204.24
202.881
201.573
200.315
199.106
197.944
196.83
195.762
194.739
193.76
192.824
191.93
191.078
190.266
189.493
188.759
188.063
187.404
186.781
186.193
185.64
185.121
184.634
184.181
183.759
183.368
183.007
182.677
182.376
182.105
181.862
181.647
181.46
181.3
181.168
181.063
180.985
180.933
180.908
180.908
397.59
392.782
387.977
383.184
378.407
373.651
368.92
364.217
359.548
354.915
350.322
345.772
341.268
336.812
332.409
328.058
323.764
319.527
315.349
311.232
307.177
303.186
299.259
295.397
291.602
287.873
284.213
280.62
277.096
273.641
270.255
266.938
263.691
260.514
257.406
254.368
251.4
248.5
245.67
242.909
240.216
237.592
235.035
232.545
230.122
227.766
225.475
223.249
221.088
218.99
216.956
214.983
213.072
211.221
209.431
207.699
206.025
204.408
202.847
201.341
199.89
198.492
197.146
195.852
194.607
193.413
192.266
191.167
190.114
189.106
188.143
187.223
186.346
185.51
184.715
183.96
183.243
182.565
181.924
181.318
180.749
180.214
179.714
179.246
178.812
178.409
178.038
177.698
177.388
177.109
176.858
176.637
176.444
176.28
176.144
176.035
175.954
175.901
175.875
175.875
397.554
392.675
387.798
382.933
378.084
373.255
368.449
363.672
358.927
354.217
349.545
344.916
340.332
335.796
331.31
326.877
322.499
318.178
313.915
309.713
305.573
301.496
297.484
293.537
289.657
285.844
282.098
278.422
274.815
271.277
267.81
264.413
261.086
257.83
254.645
251.531
248.487
245.514
242.611
239.779
237.017
234.324
231.7
229.145
226.659
224.24
221.888
219.603
217.384
215.23
213.141
211.115
209.153
207.252
205.413
203.634
201.914
200.253
198.65
197.103
195.612
194.175
192.793
191.462
190.184
188.956
187.778
186.648
185.566
184.53
183.54
182.595
181.693
180.834
180.017
179.241
178.504
177.806
177.147
176.525
175.939
175.39
174.875
174.394
173.947
173.534
173.152
172.802
172.484
172.196
171.938
171.71
171.512
171.343
171.203
171.091
171.008
170.953
170.925
170.926
397.518
392.567
387.619
382.681
377.759
372.857
367.977
363.125
358.304
353.517
348.769
344.061
339.398
334.782
330.215
325.701
321.241
316.837
312.492
308.206
303.983
299.822
295.726
291.696
287.733
283.837
280.009
276.251
272.563
268.945
265.397
261.921
258.517
255.184
251.924
248.735
245.618
242.573
239.599
236.697
233.867
231.107
228.419
225.8
223.251
220.771
218.36
216.017
213.742
211.533
209.39
207.312
205.299
203.349
201.463
199.637
197.873
196.169
194.524
192.937
191.407
189.932
188.513
187.148
185.836
184.576
183.366
182.207
181.096
180.033
179.017
178.046
177.121
176.239
175.4
174.602
173.846
173.13
172.453
171.814
171.213
170.648
170.12
169.626
169.167
168.742
168.35
167.991
167.663
167.368
167.103
166.869
166.665
166.491
166.347
166.232
166.146
166.089
166.061
166.061
397.482
392.459
387.439
382.429
377.434
372.458
367.505
362.578
357.682
352.819
347.994
343.209
338.467
333.772
329.126
324.532
319.991
315.506
311.08
306.713
302.407
298.165
293.988
289.876
285.831
281.854
277.946
274.108
270.34
266.644
263.019
259.466
255.986
252.578
249.244
245.982
242.793
239.678
236.635
233.666
230.769
227.944
225.191
222.51
219.9
217.361
214.892
212.492
210.161
207.899
205.703
203.575
201.512
199.515
197.581
195.711
193.903
192.156
190.47
188.844
187.275
185.764
184.31
182.91
181.565
180.273
179.033
177.844
176.705
175.616
174.574
173.578
172.629
171.725
170.864
170.047
169.271
168.537
167.842
167.187
166.57
165.991
165.449
164.943
164.472
164.036
163.634
163.265
162.929
162.626
162.354
162.114
161.905
161.726
161.578
161.46
161.371
161.313
161.284
161.284
397.446
392.351
387.259
382.177
377.109
372.06
367.033
362.032
357.061
352.123
347.222
342.36
337.542
332.769
328.044
323.371
318.751
314.187
309.681
305.234
300.849
296.527
292.269
288.078
283.953
279.898
275.911
271.995
268.15
264.377
260.676
257.048
253.494
250.013
246.606
243.273
240.015
236.831
233.721
230.685
227.723
224.834
222.019
219.277
216.607
214.01
211.484
209.029
206.644
204.329
202.082
199.904
197.793
195.749
193.77
191.855
190.004
188.216
186.49
184.825
183.219
181.672
180.182
178.749
177.372
176.049
174.779
173.562
172.395
171.279
170.212
169.193
168.22
167.294
166.412
165.575
164.78
164.028
163.316
162.645
162.013
161.42
160.864
160.346
159.863
159.416
159.004
158.626
158.282
157.971
157.692
157.446
157.231
157.048
156.896
156.775
156.684
156.624
156.594
156.593
397.41
392.244
387.079
381.925
376.785
371.663
366.563
361.488
356.443
351.431
346.454
341.517
336.623
331.773
326.972
322.221
317.524
312.881
308.297
303.772
299.308
294.908
290.572
286.303
282.101
277.968
273.905
269.913
265.992
262.144
258.369
254.668
251.041
247.489
244.012
240.61
237.283
234.032
230.856
227.755
224.73
221.779
218.903
216.102
213.374
210.719
208.138
205.629
203.191
200.824
198.528
196.301
194.143
192.052
190.029
188.071
186.178
184.35
182.585
180.881
179.239
177.656
176.133
174.667
173.258
171.904
170.605
169.36
168.166
167.024
165.932
164.89
163.895
162.947
162.045
161.188
160.375
159.604
158.876
158.189
157.543
156.935
156.366
155.835
155.342
154.884
154.462
154.075
153.723
153.404
153.119
152.866
152.647
152.459
152.303
152.179
152.086
152.024
151.993
151.992
397.375
392.137
386.9
381.674
376.462
371.268
366.096
360.948
355.83
350.743
345.693
340.681
335.711
330.787
325.909
321.083
316.309
311.59
306.929
302.328
297.788
293.311
288.899
284.553
280.276
276.067
271.929
267.863
263.868
259.947
256.1
252.328
248.63
245.008
241.462
237.993
234.599
231.283
228.042
224.879
221.791
218.78
215.844
212.985
210.2
207.49
204.854
202.292
199.803
197.386
195.041
192.766
190.562
188.426
186.359
184.359
182.426
180.558
178.754
177.014
175.335
173.718
172.162
170.664
169.224
167.84
166.513
165.24
164.02
162.853
161.736
160.67
159.653
158.684
157.762
156.886
156.055
155.267
154.523
153.82
153.159
152.538
151.956
151.413
150.908
150.44
150.009
149.613
149.252
148.926
148.634
148.376
148.151
147.959
147.8
147.672
147.577
147.513
147.481
147.48
397.339
392.03
386.723
381.426
376.142
370.876
365.632
360.412
355.221
350.062
344.938
339.853
334.809
329.811
324.859
319.958
315.109
310.316
305.579
300.903
296.288
291.736
287.25
282.83
278.478
274.196
269.985
265.846
261.78
257.787
253.87
250.027
246.261
242.571
238.958
235.423
231.964
228.584
225.281
222.055
218.907
215.837
212.844
209.927
207.087
204.323
201.634
199.02
196.481
194.015
191.622
189.301
187.051
184.872
182.762
180.721
178.748
176.841
175
173.223
171.51
169.859
168.269
166.74
165.27
163.857
162.502
161.202
159.956
158.764
157.624
156.536
155.497
154.507
153.566
152.671
151.822
151.017
150.257
149.539
148.864
148.229
147.635
147.08
146.564
146.086
145.645
145.24
144.872
144.539
144.24
143.976
143.746
143.55
143.386
143.256
143.158
143.093
143.06
143.058
397.304
391.925
386.547
381.179
375.825
370.488
365.173
359.882
354.619
349.388
344.192
339.034
333.918
328.846
323.822
318.847
313.925