/*--------------------------------*- C++ -*----------------------------------*\
| =========                 |                                                 |
| \\      /  F ield         | OpenFOAM: The Open Source CFD Toolbox           |
|  \\    /   O peration     | Version:  2406                                  |
|   \\  /    A nd           | Website:  www.openfoam.com                      |
|    \\/     M anipulation  |                                                 |
\*---------------------------------------------------------------------------*/
FoamFile
{
    version     2.0;
    format      ascii;
    arch        "LSB;label=32;scalar=64";
    class       volScalarField;
    location    "19";
    object      p;
}
// * * * * * * * * * * * * * * * * * * * * * * * * * * * * * * * * * * * * * //

dimensions      [0 2 -2 0 0 0 0];

internalField   nonuniform List<scalar> 
1176
(
0.79699976
0.79702263
0.79704629
0.79705396
0.79702243
0.79692773
0.7967705
0.79658434
0.79640514
0.79623798
0.79608336
0.79598776
0.79598776
0.79608337
0.79623799
0.79640516
0.79658437
0.79677057
0.79692783
0.79702257
0.79705414
0.79704651
0.79702286
0.79699998
0.77385133
0.77380437
0.77375661
0.77373971
0.77380221
0.77400457
0.77436989
0.77483429
0.77526516
0.77555126
0.77567066
0.77570492
0.77570492
0.77567066
0.77555126
0.77526513
0.77483424
0.77436979
0.77400442
0.77380203
0.7737395
0.77375638
0.77380414
0.77385111
0.75676657
0.75678858
0.75680837
0.75680647
0.7567474
0.75658623
0.75631446
0.75598651
0.7556803
0.75546751
0.75535671
0.7553079
0.7553079
0.75535673
0.75546753
0.75568033
0.75598654
0.75631451
0.75658629
0.75674748
0.75680655
0.75680846
0.75678867
0.75676666
0.74009468
0.7401038
0.74011586
0.74013226
0.74015481
0.74017238
0.74014014
0.74000673
0.73977462
0.73950206
0.73927785
0.73915735
0.73915735
0.73927785
0.73950205
0.73977461
0.74000673
0.74014015
0.7401724
0.74015484
0.74013231
0.74011591
0.74010386
0.74009474
0.72367563
0.72367958
0.72368457
0.72369063
0.72370034
0.72372061
0.72375679
0.72379831
0.72381998
0.72379611
0.72373399
0.72368136
0.72368136
0.72373399
0.7237961
0.72381997
0.7237983
0.7237568
0.72372062
0.72370035
0.72369066
0.7236846
0.72367961
0.72367566
0.70721397
0.70721638
0.70721963
0.70722367
0.70722858
0.70723542
0.70724958
0.7072809
0.70733089
0.70738814
0.70743085
0.7074475
0.7074475
0.70743085
0.70738814
0.70733088
0.70728089
0.70724959
0.70723543
0.7072286
0.7072237
0.70721966
0.70721642
0.70721401
0.69080816
0.6908103
0.69081311
0.69081654
0.69082043
0.69082395
0.69082601
0.69082819
0.69083674
0.69085397
0.69087187
0.69088359
0.69088359
0.69087187
0.69085397
0.69083673
0.69082819
0.69082601
0.69082396
0.69082045
0.69081656
0.69081313
0.69081033
0.69080819
0.67442829
0.67443005
0.67443238
0.6744353
0.67443897
0.67444334
0.6744478
0.67445095
0.67445219
0.67445381
0.67445085
0.67444834
0.67444834
0.67445085
0.6744538
0.67445218
0.67445095
0.6744478
0.67444335
0.67443899
0.67443532
0.6744324
0.67443008
0.67442833
0.65807401
0.65807546
0.65807739
0.65807981
0.65808282
0.65808661
0.65809165
0.6580987
0.65810738
0.65811741
0.65812518
0.65812877
0.65812877
0.65812518
0.65811741
0.65810738
0.65809869
0.65809165
0.65808661
0.65808284
0.65807982
0.65807742
0.65807549
0.65807404
0.64173632
0.64173752
0.64173913
0.64174116
0.64174373
0.64174691
0.64175107
0.64175746
0.64176762
0.64178075
0.64179508
0.64180439
0.64180439
0.64179508
0.64178075
0.64176761
0.64175745
0.64175107
0.64174691
0.64174374
0.64174118
0.64173915
0.64173754
0.64173634
0.62541194
0.62541297
0.62541434
0.62541609
0.6254183
0.62542102
0.62542442
0.62542927
0.62543713
0.62544779
0.62546035
0.62546949
0.62546949
0.62546035
0.62544779
0.62543712
0.62542926
0.62542442
0.62542103
0.62541831
0.6254161
0.62541436
0.62541298
0.62541196
0.60909846
0.60909936
0.60910055
0.60910208
0.60910402
0.60910642
0.60910938
0.60911339
0.60911961
0.60912827
0.60913883
0.60914628
0.60914628
0.60913883
0.60912827
0.6091196
0.60911339
0.60910938
0.60910642
0.60910403
0.60910209
0.60910057
0.60909937
0.60909848
0.59279427
0.59279506
0.59279611
0.59279746
0.59279918
0.59280131
0.59280395
0.59280748
0.59281289
0.59282063
0.59283032
0.592837
0.592837
0.59283032
0.59282063
0.59281288
0.59280748
0.59280395
0.59280131
0.59279919
0.59279747
0.59279612
0.59279507
0.59279428
0.57649805
0.57649875
0.57649969
0.57650089
0.57650243
0.57650434
0.57650668
0.57650982
0.57651459
0.57652156
0.57653023
0.57653632
0.57653632
0.57653023
0.57652156
0.57651459
0.57650981
0.57650668
0.57650434
0.57650243
0.5765009
0.5764997
0.57649876
0.57649806
0.56020878
0.56020941
0.56021025
0.56021134
0.56021272
0.56021443
0.56021654
0.5602193
0.56022346
0.56022959
0.56023711
0.56024252
0.56024252
0.56023711
0.56022959
0.56022346
0.5602193
0.56021654
0.56021444
0.56021272
0.56021134
0.56021026
0.56020941
0.56020879
0.54392566
0.54392623
0.54392699
0.54392797
0.54392922
0.54393078
0.54393267
0.54393513
0.54393876
0.54394414
0.54395068
0.54395547
0.54395547
0.54395068
0.54394414
0.54393876
0.54393513
0.54393267
0.54393078
0.54392923
0.54392797
0.54392699
0.54392623
0.54392566
0.52764803
0.52764855
0.52764924
0.52765014
0.52765128
0.5276527
0.52765442
0.52765662
0.52765984
0.5276646
0.52767033
0.52767462
0.52767462
0.52767033
0.5276646
0.52765984
0.52765662
0.52765442
0.5276527
0.52765128
0.52765014
0.52764925
0.52764855
0.52764804
0.51137535
0.51137583
0.51137646
0.51137728
0.51137832
0.51137962
0.51138119
0.51138318
0.51138606
0.5113903
0.51139536
0.51139922
0.51139922
0.51139536
0.5113903
0.51138606
0.51138318
0.51138119
0.51137962
0.51137833
0.51137728
0.51137646
0.51137583
0.51137536
0.49510716
0.49510759
0.49510817
0.49510892
0.49510989
0.49511108
0.49511252
0.49511432
0.4951169
0.49512071
0.4951252
0.49512869
0.49512869
0.4951252
0.49512071
0.4951169
0.49511432
0.49511252
0.49511108
0.49510989
0.49510893
0.49510818
0.49510759
0.49510716
0.47884305
0.47884345
0.47884398
0.47884467
0.47884556
0.47884666
0.47884799
0.47884963
0.47885196
0.47885538
0.47885941
0.47886257
0.47886257
0.47885941
0.47885538
0.47885196
0.47884963
0.47884799
0.47884666
0.47884556
0.47884468
0.47884399
0.47884345
0.47884305
0.46258267
0.46258304
0.46258354
0.46258418
0.462585
0.46258602
0.46258724
0.46258875
0.46259085
0.46259395
0.4625976
0.46260047
0.46260047
0.4625976
0.46259395
0.46259085
0.46258875
0.46258724
0.46258602
0.46258501
0.46258419
0.46258355
0.46258305
0.46258268
0.44632574
0.44632608
0.44632654
0.44632714
0.4463279
0.44632884
0.44632997
0.44633136
0.44633328
0.44633609
0.44633941
0.44634202
0.44634202
0.44633941
0.44633609
0.44633328
0.44633136
0.44632997
0.44632884
0.4463279
0.44632714
0.44632655
0.44632609
0.44632575
0.43007197
0.43007229
0.43007272
0.43007327
0.43007398
0.43007486
0.43007591
0.43007719
0.43007894
0.43008151
0.43008455
0.43008693
0.43008693
0.43008455
0.43008151
0.43007894
0.43007719
0.43007591
0.43007486
0.43007399
0.43007328
0.43007273
0.4300723
0.43007199
0.41382114
0.41382144
0.41382183
0.41382235
0.41382301
0.41382383
0.4138248
0.41382599
0.4138276
0.41382995
0.41383274
0.41383493
0.41383493
0.41383274
0.41382995
0.4138276
0.41382599
0.4138248
0.41382383
0.41382302
0.41382236
0.41382185
0.41382145
0.41382116
0.39757302
0.3975733
0.39757367
0.39757415
0.39757477
0.39757553
0.39757644
0.39757754
0.39757902
0.39758119
0.39758376
0.39758577
0.39758577
0.39758376
0.39758118
0.39757902
0.39757754
0.39757644
0.39757553
0.39757477
0.39757416
0.39757369
0.39757332
0.39757304
0.38132743
0.38132769
0.38132804
0.38132848
0.38132906
0.38132977
0.38133062
0.38133165
0.38133302
0.38133501
0.38133739
0.38133924
0.38133924
0.38133739
0.38133501
0.38133301
0.38133165
0.38133062
0.38132978
0.38132907
0.3813285
0.38132805
0.38132771
0.38132745
0.36508419
0.36508443
0.36508475
0.36508517
0.36508571
0.36508638
0.36508718
0.36508813
0.3650894
0.36509124
0.36509345
0.36509516
0.36509516
0.36509345
0.36509124
0.36508939
0.36508813
0.36508718
0.36508639
0.36508572
0.36508519
0.36508478
0.36508446
0.36508422
0.34884313
0.34884336
0.34884367
0.34884406
0.34884456
0.34884519
0.34884594
0.34884683
0.348848
0.34884971
0.34885176
0.34885335
0.34885335
0.34885176
0.34884971
0.348848
0.34884682
0.34884594
0.3488452
0.34884458
0.34884408
0.34884369
0.34884339
0.34884317
0.33260413
0.33260434
0.33260463
0.332605
0.33260547
0.33260606
0.33260676
0.33260759
0.33260869
0.33261027
0.33261219
0.33261365
0.33261365
0.33261218
0.33261027
0.33260868
0.33260759
0.33260676
0.33260607
0.33260549
0.33260502
0.33260466
0.33260438
0.33260417
0.31636704
0.31636724
0.31636751
0.31636785
0.3163683
0.31636885
0.31636951
0.31637029
0.31637131
0.31637278
0.31637457
0.31637593
0.31637593
0.31637457
0.31637278
0.3163713
0.31637028
0.31636951
0.31636886
0.31636832
0.31636789
0.31636755
0.31636729
0.31636709
0.30013174
0.30013193
0.30013218
0.30013251
0.30013293
0.30013345
0.30013406
0.3001348
0.30013575
0.30013712
0.30013879
0.30014006
0.30014006
0.30013879
0.30013711
0.30013574
0.30013479
0.30013406
0.30013346
0.30013295
0.30013255
0.30013223
0.30013199
0.30013181
0.28389813
0.2838983
0.28389854
0.28389885
0.28389924
0.28389973
0.28390031
0.283901
0.28390189
0.28390317
0.28390473
0.28390591
0.28390591
0.28390473
0.28390316
0.28390188
0.28390099
0.28390031
0.28389974
0.28389927
0.28389889
0.2838986
0.28389837
0.2838982
0.26766609
0.26766625
0.26766648
0.26766676
0.26766713
0.26766759
0.26766814
0.26766879
0.26766962
0.26767082
0.26767228
0.26767339
0.26767339
0.26767228
0.26767081
0.26766961
0.26766878
0.26766814
0.26766761
0.26766717
0.26766682
0.26766654
0.26766633
0.26766617
0.25143553
0.25143569
0.2514359
0.25143617
0.25143652
0.25143695
0.25143746
0.25143807
0.25143885
0.25143997
0.25144134
0.25144238
0.25144238
0.25144134
0.25143996
0.25143884
0.25143806
0.25143746
0.25143697
0.25143656
0.25143623
0.25143597
0.25143578
0.25143563
0.23520636
0.23520651
0.23520671
0.23520696
0.23520729
0.2352077
0.23520819
0.23520876
0.23520949
0.23521054
0.23521183
0.2352128
0.2352128
0.23521183
0.23521053
0.23520947
0.23520874
0.23520819
0.23520773
0.23520734
0.23520704
0.2352068
0.23520662
0.23520648
0.21897851
0.21897865
0.21897883
0.21897907
0.21897938
0.21897977
0.21898023
0.21898076
0.21898145
0.21898243
0.21898365
0.21898455
0.21898455
0.21898364
0.21898242
0.21898143
0.21898075
0.21898023
0.2189798
0.21897944
0.21897916
0.21897894
0.21897877
0.21897864
0.20275189
0.20275202
0.20275219
0.20275242
0.20275271
0.20275307
0.2027535
0.20275401
0.20275466
0.20275558
0.20275673
0.20275758
0.20275758
0.20275672
0.20275557
0.20275464
0.20275399
0.20275351
0.20275311
0.20275278
0.20275252
0.20275231
0.20275216
0.20275204
0.18652643
0.18652655
0.18652672
0.18652693
0.18652721
0.18652755
0.18652795
0.18652843
0.18652904
0.1865299
0.18653097
0.18653177
0.18653177
0.18653097
0.18652989
0.18652901
0.18652841
0.18652796
0.18652759
0.18652729
0.18652705
0.18652686
0.18652672
0.18652661
0.17030206
0.17030217
0.17030233
0.17030253
0.17030279
0.17030312
0.1703035
0.17030395
0.17030452
0.17030533
0.17030635
0.17030711
0.17030711
0.17030635
0.17030532
0.17030449
0.17030393
0.1703035
0.17030316
0.17030289
0.17030267
0.1703025
0.17030237
0.17030227
0.15407873
0.15407884
0.15407899
0.15407918
0.15407942
0.15407973
0.15408009
0.15408051
0.15408105
0.15408181
0.15408275
0.15408346
0.15408346
0.15408275
0.15408179
0.15408102
0.15408049
0.15408009
0.15407978
0.15407953
0.15407933
0.15407917
0.15407906
0.15407897
0.13785636
0.13785647
0.13785661
0.13785679
0.13785702
0.13785731
0.13785765
0.13785805
0.13785855
0.13785927
0.13786017
0.13786083
0.13786083
0.13786016
0.13785925
0.13785852
0.13785802
0.13785765
0.13785737
0.13785714
0.13785696
0.13785682
0.13785672
0.13785664
0.12163494
0.12163503
0.12163517
0.12163534
0.12163556
0.12163583
0.12163615
0.12163653
0.121637
0.12163765
0.12163847
0.12163908
0.12163908
0.12163847
0.12163763
0.12163695
0.12163649
0.12163615
0.1216359
0.12163569
0.12163554
0.12163541
0.12163532
0.12163524
0.10541435
0.10541445
0.10541457
0.10541473
0.10541494
0.1054152
0.1054155
0.10541585
0.10541629
0.10541691
0.10541768
0.10541825
0.10541825
0.10541768
0.10541688
0.10541624
0.10541581
0.10541551
0.10541527
0.10541509
0.10541496
0.10541484
0.10541476
0.1054147
0.08919464
0.089194728
0.089194847
0.089195
0.089195197
0.08919544
0.089195726
0.089196055
0.089196456
0.089196998
0.089197659
0.089198136
0.089198138
0.089197652
0.089196965
0.089196399
0.089196005
0.089195726
0.089195521
0.089195365
0.089195245
0.089195143
0.089195072
0.089195017
0.072975636
0.072975719
0.072975831
0.072975975
0.072976163
0.072976396
0.072976671
0.072976983
0.072977358
0.072977855
0.072978446
0.072978856
0.072978858
0.072978439
0.072977817
0.072977293
0.072976926
0.072976668
0.072976482
0.072976344
0.072976239
0.072976148
0.072976087
0.072976039
0.056757517
0.056757598
0.056757706
0.056757844
0.056758019
0.056758234
0.056758485
0.056758766
0.056759085
0.056759461
0.056759847
0.056760074
0.056760076
0.05675984
0.056759421
0.056759013
0.056758702
0.056758479
0.056758322
0.056758206
0.056758116
0.056758033
0.056757976
0.05675793
0.040539731
0.040539802
0.0405399
0.04054003
0.040540205
0.040540428
0.040540692
0.04054098
0.040541303
0.04054171
0.040542187
0.040542508
0.040542511
0.040542181
0.040541669
0.040541228
0.040540911
0.040540681
0.040540511
0.040540385
0.04054029
0.04054021
0.040540157
0.040540117
0.024323463
0.024323545
0.024323653
0.024323781
0.024323927
0.024324088
0.024324259
0.024324438
0.024324601
0.024324679
0.024324601
0.024324384
0.024324388
0.024324597
0.024324641
0.02432453
0.024324374
0.024324251
0.024324165
0.02432409
0.024324008
0.024323918
0.024323841
0.024323779
0.0081053689
0.0081054391
0.0081055317
0.0081056529
0.0081058133
0.0081060121
0.0081062315
0.0081064687
0.0081068442
0.0081076793
0.0081091626
0.0081105402
0.0081105444
0.008109164
0.0081076573
0.0081067971
0.0081064237
0.0081062248
0.0081060636
0.0081059203
0.0081057998
0.0081056991
0.0081056227
0.0081055626
)
;

boundaryField
{
    INLET
    {
        type            zeroGradient;
    }
    OUTLET
    {
        type            fixedValue;
        value           uniform 0;
    }
    WALL
    {
        type            zeroGradient;
    }
    frontAndBackPlanes
    {
        type            empty;
    }
}


// ************************************************************************* //
