/*--------------------------------*- C++ -*----------------------------------*\
| =========                 |                                                 |
| \\      /  F ield         | OpenFOAM: The Open Source CFD Toolbox           |
|  \\    /   O peration     | Version:  2406                                  |
|   \\  /    A nd           | Website:  www.openfoam.com                      |
|    \\/     M anipulation  |                                                 |
\*---------------------------------------------------------------------------*/
FoamFile
{
    version     2.0;
    format      ascii;
    arch        "LSB;label=32;scalar=64";
    class       surfaceScalarField;
    location    "19";
    object      phi;
}
// * * * * * * * * * * * * * * * * * * * * * * * * * * * * * * * * * * * * * //

dimensions      [0 3 -1 0 0 0 0];

oriented        oriented;

internalField   nonuniform List<scalar> 
2279
(
2.3617485e-08
1.0148926e-05
2.0509758e-07
4.982375e-05
6.9331735e-07
0.00014252872
1.5784709e-06
0.00034353082
2.6788463e-06
0.00075378089
3.347289e-06
0.0015415573
3.043517e-06
0.0029497096
2.151681e-06
0.005249171
1.4318007e-06
0.008582269
9.8958869e-07
0.012685995
5.1266361e-07
0.016666385
-5.0306614e-12
0.01918202
-5.1267723e-07
0.01918202
-9.8961842e-07
0.016666385
-1.4318718e-06
0.012685995
-2.151827e-06
0.0085822692
-3.0437497e-06
0.0052491712
-3.347579e-06
0.0029497098
-2.6791334e-06
0.0015415575
-1.5787006e-06
0.000753781
-6.9346829e-07
0.00034353086
-2.0517666e-07
0.00014252873
-2.3646927e-08
4.982375e-05
1.0148926e-05
-9.5248483e-08
1.0244175e-05
-5.3794016e-07
5.0266442e-05
-1.6230014e-06
0.00014361378
-3.538953e-06
0.00034544677
-5.9201877e-06
0.00075616213
-7.4055043e-06
0.0015430426
-6.5847301e-06
0.0029488888
-3.9361632e-06
0.0052465224
-1.388393e-06
0.0085797213
-6.5123542e-08
0.012684671
2.4240169e-07
0.016666078
-4.4607778e-12
0.019182263
-2.4240274e-07
0.019182263
6.5149885e-08
0.016666078
1.3884767e-06
0.012684671
3.9363414e-06
0.0085797212
6.5850157e-06
0.0052465223
7.4058465e-06
0.0029488887
5.920488e-06
0.0015430425
3.5391477e-06
0.00075616204
1.6230952e-06
0.00034544673
5.3797106e-07
0.00014361376
9.5249522e-08
5.0266433e-05
1.0244173e-05
5.0139837e-08
1.0194035e-05
2.6334494e-07
5.0053236e-05
7.4910702e-07
0.00014312802
1.531458e-06
0.00034466442
2.336655e-06
0.00075535693
2.5476609e-06
0.0015428316
1.8390945e-06
0.0029495974
9.7567206e-07
0.0052473859
6.7695436e-07
0.00858002
6.7178012e-07
0.012684677
4.8415289e-07
0.016666266
-1.9719382e-11
0.019182747
-4.8419874e-07
0.019182747
-6.7184165e-07
0.016666266
-6.7703312e-07
0.012684677
-9.7576039e-07
0.0085800201
-1.8391848e-06
0.0052473859
-2.5477468e-06
0.0029495974
-2.3367223e-06
0.0015428317
-1.5314948e-06
0.00075535695
-7.4911749e-07
0.00034466443
-2.6334288e-07
0.00014312802
-5.0134654e-08
5.0053239e-05
1.0194036e-05
1.9586722e-08
1.0174448e-05
1.1184924e-07
4.9960974e-05
3.6128422e-07
0.00014287858
9.0504761e-07
0.00034412066
1.8716596e-06
0.00075439032
3.0948231e-06
0.0015416085
3.8987235e-06
0.0029487935
3.7285543e-06
0.005247556
2.9242091e-06
0.0085808243
1.9733729e-06
0.012685627
1.0127705e-06
0.016667226
4.2476151e-12
0.01918376
-1.0127594e-06
0.01918376
-1.9733567e-06
0.016667226
-2.9241913e-06
0.012685627
-3.7285458e-06
0.0085808243
-3.8987402e-06
0.005247556
-3.094866e-06
0.0029487935
-1.8717103e-06
0.0015416085
-9.0508777e-07
0.00075439033
-3.6130704e-07
0.00034412067
-1.1185844e-07
0.00014287859
-1.9588379e-08
4.9960975e-05
1.0174449e-05
8.0839237e-09
1.0166364e-05
4.7141422e-08
4.9921916e-05
1.5494679e-07
0.00014277078
3.9846302e-07
0.00034387714
8.797946e-07
0.00075390899
1.7015165e-06
0.0015407867
2.7512752e-06
0.0029477437
3.4623605e-06
0.0052468449
3.4708592e-06
0.0085808158
2.8006827e-06
0.012686298
1.5505104e-06
0.016668476
-4.1481044e-12
0.01918531
-1.5505179e-06
0.01918531
-2.8006881e-06
0.016668476
-3.4708626e-06
0.012686298
-3.4623646e-06
0.0085808158
-2.751284e-06
0.0052468449
-1.7015313e-06
0.0029477437
-8.7981147e-07
0.0015407867
-3.9847676e-07
0.00075390899
-1.549548e-07
0.00034387714
-4.7144571e-08
0.00014277078
-8.084439e-09
4.9921916e-05
1.0166364e-05
4.9358665e-09
1.0161429e-05
2.8698829e-08
4.9898154e-05
9.5121398e-08
0.00014270436
2.4921434e-07
0.00034372305
5.6360958e-07
0.00075359459
1.1213754e-06
0.001540229
1.9184581e-06
0.0029469467
2.6588202e-06
0.0052461046
2.8930571e-06
0.0085805816
2.478763e-06
0.012686712
1.4344216e-06
0.016669521
-3.971667e-12
0.019186745
-1.4344281e-06
0.019186745
-2.4787662e-06
0.016669521
-2.893059e-06
0.012686712
-2.6588257e-06
0.0085805816
-1.9184724e-06
0.0052461046
-1.1213981e-06
0.0029469467
-5.6363333e-07
0.001540229
-2.4923199e-07
0.0007535946
-9.5130594e-08
0.00034372305
-2.8701916e-08
0.00014270436
-4.9359454e-09
4.9898154e-05
1.0161429e-05
4.4123578e-09
1.0157016e-05
2.5525669e-08
4.987704e-05
8.3830126e-08
0.00014264605
2.1689425e-07
0.00034358999
4.8450155e-07
0.00075332699
9.5636178e-07
0.0015397571
1.6413749e-06
0.0029462617
2.324583e-06
0.0052454214
2.5939524e-06
0.0085803122
2.2393602e-06
0.012687066
1.3066699e-06
0.016670453
-2.3118132e-12
0.019188051
-1.3066724e-06
0.019188051
-2.2393577e-06
0.016670453
-2.5939465e-06
0.012687066
-2.3245807e-06
0.0085803122
-1.6413835e-06
0.0052454214
-9.5638075e-07
0.0029462617
-4.8452365e-07
0.0015397571
-2.1691159e-07
0.00075332699
-8.3839636e-08
0.00034358999
-2.5529139e-08
0.00014264605
-4.4126935e-09
4.987704e-05
1.0157016e-05
3.6255425e-09
1.0153391e-05
2.10366e-08
4.9859629e-05
6.9438162e-08
0.00014259765
1.8114168e-07
0.00034347828
4.0971498e-07
0.00075309842
8.2390525e-07
0.0015393429
1.4539945e-06
0.0029456316
2.1430774e-06
0.0052447323
2.4674736e-06
0.0085799878
2.1883917e-06
0.012687346
1.2866396e-06
0.016671355
-2.0306789e-12
0.019189338
-1.2866413e-06
0.019189338
-2.1883879e-06
0.016671355
-2.4674665e-06
0.012687346
-2.1430744e-06
0.0085799878
-1.4540015e-06
0.0052447323
-8.2392155e-07
0.0029456316
-4.0973411e-07
0.0015393429
-1.8115669e-07
0.00075309841
-6.9446337e-08
0.00034347828
-2.1039528e-08
0.00014259765
-3.6257805e-09
4.9859629e-05
1.0153391e-05
2.9831364e-09
1.0150408e-05
1.7347015e-08
4.9845265e-05
5.737735e-08
0.00014255762
1.5007407e-07
0.00034338559
3.4097185e-07
0.00075290752
6.9193337e-07
0.001538992
1.2441112e-06
0.0029450794
1.9041887e-06
0.0052440722
2.301602e-06
0.0085795904
2.0975073e-06
0.01268755
1.2520079e-06
0.016672201
-2.1209614e-12
0.01919059
-1.2520096e-06
0.01919059
-2.0975036e-06
0.016672201
-2.3015956e-06
0.01268755
-1.9041868e-06
0.0085795904
-1.2441186e-06
0.0052440722
-6.9194918e-07
0.0029450794
-3.4098998e-07
0.001538992
-1.5008802e-07
0.00075290752
-5.7384782e-08
0.00034338559
-1.7349592e-08
0.00014255762
-2.9832812e-09
4.9845266e-05
1.0150408e-05
2.4654279e-09
1.0147942e-05
1.4363135e-08
4.9833368e-05
4.762656e-08
0.00014252436
1.2502895e-07
0.00034330819
2.8558968e-07
0.00075274696
5.8418101e-07
0.0015386934
1.0641869e-06
0.0029445994
1.6641607e-06
0.0052434722
2.0898761e-06
0.0085791647
1.9528937e-06
0.012687687
1.1802419e-06
0.016672973
-2.9093359e-12
0.01919177
-1.1802451e-06
0.01919177
-1.9528919e-06
0.016672973
-2.0898717e-06
0.012687687
-1.6641598e-06
0.0085791647
-1.0641938e-06
0.0052434722
-5.8419555e-07
0.0029445994
-2.8560613e-07
0.0015386934
-1.2504145e-07
0.00075274696
-4.7633138e-08
0.00034330819
-1.4365383e-08
0.00014252436
-2.4655351e-09
4.9833368e-05
1.0147942e-05
2.1024506e-09
1.014584e-05
1.225809e-08
4.9823212e-05
4.0688372e-08
0.00014249593
1.0699052e-07
0.00034324188
2.4507923e-07
0.00075260887
5.038545e-07
0.0015384346
9.2623714e-07
0.002944177
1.4715139e-06
0.005242927
1.8909099e-06
0.0085787453
1.8050217e-06
0.012687773
1.1036869e-06
0.016673675
-3.6051006e-12
0.019192874
-1.1036917e-06
0.019192874
-1.8050218e-06
0.016673675
-1.8909076e-06
0.012687773
-1.4715139e-06
0.0085787453
-9.2624366e-07
0.005242927
-5.0386736e-07
0.002944177
-2.4509346e-07
0.0015384346
-1.0700114e-07
0.00075260887
-4.0693884e-08
0.00034324188
-1.2259942e-08
0.00014249593
-2.1025199e-09
4.9823212e-05
1.014584e-05
1.8282367e-09
1.0144012e-05
1.0665532e-08
4.9814375e-05
3.5430434e-08
0.00014247116
9.3283353e-08
0.00034318403
2.1413992e-07
0.00075248801
4.4192899e-07
0.0015382068
8.1811571e-07
0.0029438008
1.316383e-06
0.0052424287
1.7244952e-06
0.0085783372
1.6780418e-06
0.012687819
1.0378012e-06
0.016674315
-4.0670984e-12
0.019193912
-1.0378072e-06
0.019193912
-1.6780437e-06
0.016674315
-1.7244947e-06
0.012687819
-1.3163839e-06
0.0085783372
-8.1812173e-07
0.0052424287
-4.4194002e-07
0.0029438008
-2.1415179e-07
0.0015382068
-9.329205e-08
0.00075248801
-3.5434881e-08
0.00034318403
-1.0667003e-08
0.00014247116
-1.8282786e-09
4.9814375e-05
1.0144012e-05
1.6104934e-09
1.0142401e-05
9.3997144e-09
4.9806586e-05
3.1244577e-08
0.00014244932
8.2340794e-08
0.00034313294
1.893215e-07
0.00075238103
3.9182447e-07
0.0015380043
7.2924362e-07
0.0029434634
1.1851479e-06
0.0052419728
1.5781765e-06
0.0085779442
1.5623385e-06
0.012687835
9.7669492e-07
0.0166749
-4.2175179e-12
0.019194888
-9.7670165e-07
0.019194888
-1.5623418e-06
0.0166749
-1.5781775e-06
0.012687835
-1.1851494e-06
0.0085779442
-7.2924896e-07
0.0052419728
-3.9183353e-07
0.0029434634
-1.8933097e-07
0.0015380043
-8.234763e-08
0.00075238103
-3.1248039e-08
0.00034313294
-9.4008518e-09
0.00014244932
-1.6105236e-09
4.9806586e-05
1.0142401e-05
1.4323227e-09
1.0140969e-05
8.3630867e-09
4.9799655e-05
2.7812826e-08
0.00014242987
7.3353272e-08
0.0003430874
1.6886975e-07
0.00075228552
3.5026967e-07
0.0015378229
6.545854e-07
0.0029431591
1.0720617e-06
0.0052415553
1.446435e-06
0.0085775698
1.4548757e-06
0.012687826
9.1880668e-07
0.016675437
-3.992729e-12
0.019195807
-9.1881342e-07
0.019195807
-1.4548798e-06
0.016675437
-1.4464369e-06
0.012687826
-1.0720637e-06
0.0085775698
-6.5458993e-07
0.0052415553
-3.502768e-07
0.0029431591
-1.6887702e-07
0.0015378229
-7.3358459e-08
0.00075228552
-2.7815446e-08
0.0003430874
-8.3639523e-09
0.00014242987
-1.4323517e-09
4.9799655e-05
1.0140969e-05
1.2850157e-09
1.0139684e-05
7.5051678e-09
4.9793435e-05
2.4969102e-08
0.0001424124
6.5891703e-08
0.00034304647
1.5183918e-07
0.00075219957
3.1548727e-07
0.0015376593
5.9149935e-07
0.0029428831
9.7478993e-07
0.005241172
1.3297068e-06
0.0085772149
1.3567872e-06
0.012687799
8.6524999e-07
0.016675928
-3.3845539e-12
0.019196672
-8.6525594e-07
0.019196672
-1.3567913e-06
0.016675928
-1.329709e-06
0.012687799
-9.7479184e-07
0.0085772149
-5.91503e-07
0.005241172
-3.1549269e-07
0.0029428831
-1.5184462e-07
0.0015376593
-6.5895581e-08
0.00075219957
-2.4971081e-08
0.00034304647
-7.5058382e-09
0.0001424124
-1.2850518e-09
4.9793435e-05
1.0139684e-05
1.1615036e-09
1.0138522e-05
6.7853008e-09
4.9787811e-05
2.2580736e-08
0.00014239661
5.9616017e-08
0.00034300944
1.3748229e-07
0.00075212171
2.8604868e-07
0.0015375107
5.3771393e-07
0.0029426314
8.9070935e-07
0.005240819
1.2264004e-06
0.0085768792
1.2674907e-06
0.012687758
8.159258e-07
0.01667638
-2.3629031e-12
0.019197488
-8.1593017e-07
0.019197488
-1.2674939e-06
0.01667638
-1.2264021e-06
0.012687758
-8.9071087e-07
0.0085768792
-5.3771672e-07
0.005240819
-2.8605274e-07
0.0029426314
-1.3748639e-07
0.0015375107
-5.9618995e-08
0.00075212171
-2.2582301e-08
0.00034300944
-6.7858586e-09
0.00014239661
-1.1615532e-09
4.9787811e-05
1.0138522e-05
1.0561642e-09
1.0137466e-05
6.1710762e-09
4.9782696e-05
2.0541615e-08
0.00014238224
5.4252711e-08
0.00034297573
1.2519191e-07
0.00075205077
2.6076993e-07
0.0015373751
4.9125463e-07
0.0029424009
8.1722863e-07
0.0052404931
1.1341867e-06
0.0085765622
1.1857925e-06
0.012687707
7.7021504e-07
0.016676795
-1.2060133e-12
0.019198259
-7.7021741e-07
0.019198259
-1.1857943e-06
0.016676795
-1.1341876e-06
0.012687707
-8.1722955e-07
0.0085765622
-4.9125669e-07
0.0052404931
-2.607731e-07
0.0029424009
-1.2519522e-07
0.0015373751
-5.425522e-08
0.00075205077
-2.0542999e-08
0.00034297573
-6.1716034e-09
0.00014238224
-1.056233e-09
4.9782696e-05
1.0137466e-05
9.6516288e-10
1.0136501e-05
5.6402555e-09
4.9778021e-05
1.8778512e-08
0.0001423691
4.9611773e-08
0.00034294489
1.1454267e-07
0.00075198584
2.3881277e-07
0.0015372509
4.5070674e-07
0.002942189
7.5248628e-07
0.0052401913
1.0515033e-06
0.0085762632
1.1108342e-06
0.012687647
7.2769001e-07
0.016677178
-2.8845185e-15
0.019198986
-7.2769018e-07
0.019198986
-1.1108343e-06
0.016677178
-1.0515031e-06
0.012687647
-7.5248653e-07
0.0085762632
-4.507083e-07
0.0052401913
-2.3881551e-07
0.002942189
-1.1454573e-07
0.0015372509
-4.9614229e-08
0.00075198584
-1.8779937e-08
0.00034294489
-5.6408295e-09
0.0001423691
-9.6525583e-10
4.9778021e-05
1.0136501e-05
8.858199e-10
1.0135615e-05
5.1772754e-09
4.977373e-05
1.7240047e-08
0.00014235704
4.5559338e-08
0.00034291658
1.052331e-07
0.00075192616
2.1957808e-07
0.0015371365
4.1504483e-07
0.0029419936
6.9509258e-07
0.0052399112
9.770979e-07
0.0085759812
1.0418706e-06
0.012687582
6.8800738e-07
0.016677532
1.1328938e-12
0.019199674
-6.880054e-07
0.019199674
-1.0418689e-06
0.016677532
-9.770964e-07
0.012687582
-6.9509217e-07
0.0085759812
-4.1504612e-07
0.0052399112
-2.1958085e-07
0.0029419936
-1.0523642e-07
0.0015371365
-4.5562121e-08
0.00075192616
-1.7241715e-08
0.00034291658
-5.1779673e-09
0.00014235704
-8.8594185e-10
4.977373e-05
1.0135615e-05
8.1603869e-10
1.0134799e-05
4.769973e-09
4.9769776e-05
1.5886096e-08
0.00014234592
4.1990887e-08
0.00034289047
9.7027526e-08
0.00075187113
2.0259498e-07
0.001537031
3.8345126e-07
0.0029418127
6.4389899e-07
0.0052396508
9.0984662e-07
0.0085757153
9.782397e-07
0.012687514
6.5086942e-07
0.01667786
2.1273409e-12
0.019200325
-6.5086551e-07
0.019200325
-9.7823631e-07
0.01667786
-9.0984403e-07
0.012687514
-6.4389807e-07
0.0085757153
-3.8345257e-07
0.0052396508
-2.0259821e-07
0.0029418127
-9.7031552e-08
0.001537031
-4.1994341e-08
0.00075187113
-1.5888191e-08
0.00034289047
-4.7708477e-09
0.00014234592
-8.161945e-10
4.9769776e-05
1.0134799e-05
7.5416802e-10
1.0134045e-05
4.4087598e-09
4.9766121e-05
1.4684996e-08
0.00014233565
3.8823806e-08
0.00034286633
8.973912e-08
0.00075182021
1.8748821e-07
0.0015369332
3.5526761e-07
0.0029416449
5.9796157e-07
0.0052394081
8.4879237e-07
0.0085754644
9.1937088e-07
0.012687444
6.1601426e-07
0.016678163
2.9531874e-12
0.019200941
-6.160087e-07
0.019200941
-9.1936602e-07
0.016678163
-8.4878877e-07
0.012687444
-5.9796025e-07
0.0085754644
-3.5526916e-07
0.0052394081
-1.8749226e-07
0.0029416449
-8.9744256e-08
0.0015369332
-3.882824e-08
0.00075182021
-1.4687686e-08
0.00034286633
-4.4098782e-09
0.00014233565
-7.5436288e-10
4.9766121e-05
1.0134045e-05
6.9891869e-10
1.0133346e-05
4.0861402e-09
4.9762734e-05
1.3611954e-08
0.00014232612
3.5993263e-08
0.00034284395
8.3220768e-08
0.00075177299
1.7396063e-07
0.0015368425
3.299673e-07
0.0029414889
5.5651051e-07
0.0052391816
7.9312474e-07
0.0085752278
8.647727e-07
0.012687372
5.832359e-07
0.016678444
3.6227899e-12
0.019201524
-5.8322897e-07
0.019201524
-8.6476655e-07
0.016678444
-7.9312023e-07
0.012687372
-5.5650888e-07
0.0085752278
-3.2996931e-07
0.0052391816
-1.7396583e-07
0.0029414889
-8.3227383e-08
0.0015368425
-3.5998966e-08
0.00075177299
-1.3615399e-08
0.00034284395
-4.087561e-09
0.00014232612
-6.9915831e-10
4.9762734e-05
1.0133346e-05
6.4927439e-10
1.0132697e-05
3.7962007e-09
4.9759587e-05
1.2647391e-08
0.00014231727
3.3447988e-08
0.00034282315
7.7355874e-08
0.00075172908
1.6177586e-07
0.001536758
3.0712874e-07
0.0029413436
5.1892257e-07
0.0052389698
7.4217689e-07
0.0085750046
8.1401863e-07
0.0126873
5.5234727e-07
0.016678706
4.1722801e-12
0.019202077
-5.5233919e-07
0.019202077
-8.1401134e-07
0.016678706
-7.4217153e-07
0.0126873
-5.1892071e-07
0.0085750046
-3.071314e-07
0.0052389698
-1.6178254e-07
0.0029413436
-7.736433e-08
0.001536758
-3.3455244e-08
0.00075172908
-1.2651751e-08
0.00034282315
-3.7979833e-09
0.00014231727
-6.4956523e-10
4.9759587e-05
1.0132697e-05
6.0442108e-10
1.0132092e-05
3.5342025e-09
4.9756658e-05
1.1775609e-08
0.00014230903
3.1146822e-08
0.00034280378
7.2050662e-08
0.00075168817
1.5074315e-07
0.0015366794
2.8640953e-07
0.0029412079
4.8468461e-07
0.0052387715
6.9538483e-07
0.0085747939
7.6674875e-07
0.012687229
5.2320968e-07
0.01667895
4.6455297e-12
0.0192026
-5.2320057e-07
0.0192026
-7.6674039e-07
0.01667895
-6.9537864e-07
0.012687229
-4.8468258e-07
0.0085747939
-2.8641302e-07
0.0052387715
-1.5075164e-07
0.0029412079
-7.2061324e-08
0.0015366794
-3.1155924e-08
0.00075168817
-1.1781047e-08
0.00034280378
-3.5364094e-09
0.00014230903
-6.0477057e-10
4.9756657e-05
1.0132092e-05
5.6370021e-10
1.0131529e-05
3.2963102e-09
4.9753925e-05
1.0983895e-08
0.00014230134
2.9056419e-08
0.00034278571
6.7229065e-08
0.00075165
1.4070746e-07
0.0015366059
2.6753024e-07
0.0029410811
4.5337518e-07
0.0052385857
6.5227969e-07
0.008574595
7.226412e-07
0.012687158
4.9567961e-07
0.016679177
5.0870029e-12
0.019203096
-4.9566952e-07
0.019203096
-7.2263177e-07
0.016679177
-6.5227264e-07
0.012687158
-4.5337301e-07
0.008574595
-2.6753475e-07
0.0052385857
-1.4071808e-07
0.0029410811
-6.7242314e-08
0.0015366059
-2.9067673e-08
0.00075165
-1.0990586e-08
0.00034278571
-3.2990087e-09
0.00014230134
-5.6411691e-10
4.9753925e-05
1.0131529e-05
5.2657259e-10
1.0131002e-05
3.0793828e-09
4.9751372e-05
1.0261832e-08
0.00014229416
2.7149428e-08
0.00034276882
6.282861e-08
0.00075161432
1.3154111e-07
0.0015365372
2.5025955e-07
0.0029409624
4.2464073e-07
0.0052384113
6.1245735e-07
0.0085744072
6.8142821e-07
0.012687089
4.6966314e-07
0.016679388
5.5349985e-12
0.019203565
-4.6965205e-07
0.019203565
-6.8141765e-07
0.016679388
-6.1244936e-07
0.012687089
-4.2463842e-07
0.0085744072
-2.5026525e-07
0.0052384113
-1.3155422e-07
0.0029409624
-6.2844858e-08
0.0015365372
-2.7163169e-08
0.00075161432
-1.0269969e-08
0.00034276882
-3.0826473e-09
0.00014229416
-5.2706636e-10
4.9751372e-05
1.0131002e-05
4.9259369e-10
1.0130509e-05
2.8808295e-09
4.9748984e-05
9.6008291e-09
0.00014228744
2.5403285e-08
0.00034275302
5.8797734e-08
0.00075158093
1.2313863e-07
0.0015364728
2.3440605e-07
0.0029408511
3.9818834e-07
0.0052382475
5.7558135e-07
0.0085742298
6.4285765e-07
0.012687022
4.4503896e-07
0.016679586
6.0222201e-12
0.01920401
-4.4502677e-07
0.01920401
-6.4284583e-07
0.016679586
-5.7557231e-07
0.012687022
-3.9818589e-07
0.0085742298
-2.3441313e-07
0.0052382475
-1.2315461e-07
0.0029408511
-5.8817432e-08
0.0015364728
-2.5419884e-08
0.00075158093
-9.6106255e-09
0.00034275302
-2.8847436e-09
0.00014228744
-4.9317598e-10
4.9748984e-05
1.0130509e-05
4.6139202e-10
1.0130048e-05
2.6984855e-09
4.9746747e-05
8.9937018e-09
0.00014228114
2.379911e-08
0.00034273821
5.5093224e-08
0.00075154964
1.154114e-07
0.0015364125
2.1980797e-07
0.0029407467
3.7376665e-07
0.0052380935
5.413542e-07
0.0085740622
6.0672933e-07
0.012686957
4.2174757e-07
0.016679771
6.5719613e-12
0.019204432
-4.2173415e-07
0.019204432
-6.0671608e-07
0.016679771
-5.4134396e-07
0.012686957
-3.7376404e-07
0.0085740622
-2.1981665e-07
0.0052380935
-1.1543067e-07
0.0029407467
-5.5116878e-08
0.0015364125
-2.3818983e-08
0.00075154964
-9.0054001e-09
0.00034273821
-2.7031446e-09
0.00014228114
-4.6207613e-10
4.9746747e-05
1.0130048e-05
4.3265522e-10
1.0129615e-05
2.530529e-09
4.9744649e-05
8.4344056e-09
0.00014227524
2.2321022e-08
0.00034272433
5.1678766e-08
0.00075152028
1.0828499e-07
0.0015363559
2.0632956e-07
0.0029406487
3.5116562e-07
0.0052379487
5.0952779e-07
0.0085739038
5.7283549e-07
0.012686893
3.9967442e-07
0.016679944
7.2004234e-12
0.019204832
-3.9965958e-07
0.019204832
-5.728206e-07
0.016679944
-5.0951616e-07
0.012686893
-3.5116282e-07
0.0085739038
-2.0634005e-07
0.0052379487
-1.0830803e-07
0.0029406487
-5.170695e-08
0.0015363559
-2.2344647e-08
0.00075152028
-8.4482841e-09
0.00034272433
-2.5360429e-09
0.00014227524
-4.3345657e-10
4.9744649e-05
1.0129615e-05
4.0611803e-10
1.0129209e-05
2.3754149e-09
4.974268e-05
7.9178109e-09
0.0001422697
2.0955522e-08
0.00034271129
4.8523396e-08
0.00075149271
1.0169568e-07
0.0015363027
1.9385378e-07
0.0029405565
3.3020067e-07
0.0052378124
4.7987707e-07
0.0085737541
5.4102949e-07
0.012686832
3.787917e-07
0.016680107
7.9120695e-12
0.019205211
-3.7877527e-07
0.019205211
-5.4101275e-07
0.016680107
-4.7986386e-07
0.012686832
-3.3019764e-07
0.0085737542
-1.9386635e-07
0.0052378124
-1.0172304e-07
0.0029405565
-4.8556773e-08
0.0015363027
-2.0983451e-08
0.00075149271
-7.9341916e-09
0.00034271129
-2.3819104e-09
0.0001422697
-4.0705454e-10
4.974268e-05
1.0129209e-05
3.8155288e-10
1.0128828e-05
2.231814e-09
4.9740829e-05
7.4395066e-09
0.00014226449
1.9691027e-08
0.00034269904
4.5600639e-08
0.0007514668
9.5589157e-08
0.0015362527
1.822812e-07
0.0029404698
3.1071659e-07
0.0052376839
4.5221358e-07
0.0085736126
5.1112812e-07
0.012686773
3.5897819e-07
0.016680259
8.7034249e-12
0.019205569
-3.5895997e-07
0.019205569
-5.1110929e-07
0.016680259
-4.5219859e-07
0.012686773
-3.1071333e-07
0.0085736127
-1.8229618e-07
0.0052376839
-9.5621473e-08
0.0029404698
-4.563998e-08
0.0015362527
-1.9723899e-08
0.0007514668
-7.4587624e-09
0.00034269904
-2.2394381e-09
0.00014226449
-3.8264521e-10
4.9740829e-05
1.0128828e-05
3.5876564e-10
1.0128469e-05
2.0985974e-09
4.973909e-05
6.9957428e-09
0.00014225959
1.8517643e-08
0.00034268752
4.2887713e-08
0.00075144243
8.9918335e-08
0.0015362057
1.7152481e-07
0.0029403882
2.9257441e-07
0.0052375629
4.2636449e-07
0.0085734789
4.8303358e-07
0.012686717
3.4024177e-07
0.016680402
9.5548234e-12
0.01920591
-3.4022161e-07
0.01920591
-4.8301244e-07
0.016680402
-4.2634752e-07
0.012686717
-2.9257093e-07
0.0085734789
-1.7154258e-07
0.0052375629
-8.9956365e-08
0.0029403882
-4.2933915e-08
0.0015362057
-1.8556199e-08
0.00075144243
-7.0183053e-09
0.00034268752
-2.1075197e-09
0.00014225959
-3.6003738e-10
4.973909e-05
1.0128469e-05
3.3758422e-10
1.0128131e-05
1.9747564e-09
4.9737453e-05
6.5831717e-09
0.00014225498
1.7426604e-08
0.00034267667
4.0364653e-08
0.00075141949
8.4642323e-08
0.0015361614
1.6150951e-07
0.0029403114
2.7565571e-07
0.0052374487
4.0218066e-07
0.0085733523
4.5656858e-07
0.012686662
3.2243982e-07
0.016680536
1.0447537e-11
0.019206232
-3.2241759e-07
0.019206232
-4.5654494e-07
0.016680536
-4.0216153e-07
0.012686662
-2.7565206e-07
0.0085733524
-1.6153054e-07
0.0052374487
-8.4686948e-08
0.0029403114
-4.0418754e-08
0.0015361614
-1.74717e-08
0.0007514195
-6.6095368e-09
0.00034267667
-1.9851708e-09
0.00014225498
-3.3906191e-10
4.9737452e-05
1.0128131e-05
3.1786577e-10
1.0127814e-05
1.8594653e-09
4.9735911e-05
6.1990479e-09
0.00014225064
1.6410613e-08
0.00034266646
3.8014497e-08
0.00075139789
7.9725763e-08
0.0015361197
1.5216961e-07
0.0029402389
2.5985499e-07
0.005237341
3.7953141e-07
0.0085732327
4.316884e-07
0.01268661
3.0562687e-07
0.016680662
1.133677e-11
0.019206538
-3.0560254e-07
0.019206538
-4.316621e-07
0.016680662
-3.7950997e-07
0.01268661
-2.5985125e-07
0.0085732327
-1.5219446e-07
0.0052373411
-7.9778009e-08
0.0029402389
-3.8077695e-08
0.0015361197
-1.6463229e-08
0.00075139789
-6.2297804e-09
0.00034266646
-1.8715918e-09
0.00014225064
-3.1957877e-10
4.9735911e-05
1.0127813e-05
2.9947318e-10
1.0127514e-05
1.7519122e-09
4.9734459e-05
5.8406778e-09
0.00014224656
1.5462683e-08
0.00034265684
3.5821523e-08
0.00075137753
7.5136714e-08
0.0015360804
1.4344621e-07
0.0029401706
2.4507735e-07
0.0052372394
3.5828902e-07
0.0085731194
4.0819935e-07
0.01268656
2.8961953e-07
0.01668078
1.2182768e-11
0.019206827
-2.895931e-07
0.019206827
-4.0817027e-07
0.01668078
-3.5826514e-07
0.01268656
-2.4507368e-07
0.0085731195
-1.4347553e-07
0.0052372394
-7.5197764e-08
0.0029401706
-3.5895186e-08
0.0015360804
-1.5523935e-08
0.00075137753
-5.8764201e-09
0.00034265684
-1.7660001e-09
0.00014224656
-3.0145473e-10
4.9734458e-05
1.0127514e-05
2.8230663e-10
1.0127232e-05
1.6515332e-09
4.9733089e-05
5.506181e-09
0.0001422427
1.4577697e-08
0.00034264777
3.3773466e-08
0.00075135834
7.0849012e-08
0.0015360433
1.3529052e-07
0.0029401062
2.3124586e-07
0.0052371435
3.3836538e-07
0.0085730123
3.8612592e-07
0.012686512
2.7453909e-07
0.016680892
1.2910472e-11
0.019207102
-2.7451071e-07
0.019207102
-3.8609403e-07
0.016680892
-3.3833897e-07
0.012686512
-2.3124244e-07
0.0085730124
-1.3532509e-07
0.0052371435
-7.0920196e-08
0.0029401062
-3.3859121e-08
0.0015360433
-1.4648821e-08
0.00075135834
-5.5476387e-09
0.00034264777
-1.6678534e-09
0.0001422427
-2.8459074e-10
4.9733089e-05
1.0127232e-05
2.6624498e-10
1.0126966e-05
1.5575923e-09
4.9731798e-05
5.1931213e-09
0.00014223907
1.3749484e-08
0.00034263921
3.1856915e-08
0.00075134023
6.6836105e-08
0.0015360084
1.2765317e-07
0.0029400453
2.1827657e-07
0.0052370528
3.196325e-07
0.008572911
3.6522568e-07
0.012686467
2.6013314e-07
0.016680997
1.3477431e-11
0.019207362
-2.6010304e-07
0.019207362
-3.65191e-07
0.016680997
-3.1960352e-07
0.012686467
-2.1827365e-07
0.008572911
-1.2769386e-07
0.0052370529
-6.6918921e-08
0.0029400453
-3.1956259e-08
0.0015360084
-1.3831837e-08
0.00075134023
-5.2410611e-09
0.00034263921
-1.5764348e-09
0.00014223907
-2.6886524e-10
4.9731798e-05
1.0126965e-05
2.5123826e-10
1.0126714e-05
1.4698424e-09
4.9730579e-05
4.9006581e-09
0.00014223563
1.2975428e-08
0.00034263114
3.00646e-08
0.00075132314
6.3080968e-08
0.0015359753
1.2050242e-07
0.0029399879
2.0612509e-07
0.0052369672
3.0206066e-07
0.008572815
3.4562733e-07
0.012686423
2.4662355e-07
0.016681096
1.3786432e-11
0.019207609
-2.4659213e-07
0.019207609
-3.4559e-07
0.016681096
-3.0202914e-07
0.012686423
-2.0612298e-07
0.0085728151
-1.2055022e-07
0.0052369672
-6.3177099e-08
0.0029399879
-3.0179538e-08
0.0015359753
-1.3070538e-08
0.00075132314
-4.9559482e-09
0.00034263114
-1.4915409e-09
0.00014223563
-2.5423823e-10
4.9730579e-05
1.0126714e-05
2.3715277e-10
1.0126477e-05
1.3874334e-09
4.9729429e-05
4.6259933e-09
0.0001422324
1.2248769e-08
0.00034262351
2.8382897e-08
0.00075130701
5.955833e-08
0.0015359442
1.1379068e-07
0.0029399337
1.9470106e-07
0.0052368863
2.8548692e-07
0.0085727242
3.2698819e-07
0.012686382
2.3364645e-07
0.016681189
1.3791199e-11
0.019207842
-2.3361419e-07
0.019207842
-3.2694841e-07
0.016681189
-2.8545291e-07
0.012686382
-1.9470012e-07
0.0085727243
-1.1384662e-07
0.0052368863
-5.9669486e-08
0.0029399337
-2.8515345e-08
0.0015359442
-1.2358151e-08
0.00075130701
-4.6894754e-09
0.00034262352
-1.4122987e-09
0.0001422324
-2.4056386e-10
4.9729429e-05
1.0126477e-05
2.2402957e-10
1.0126253e-05
1.3107117e-09
4.9728343e-05
4.3702183e-09
0.00014222934
1.1571351e-08
0.00034261631
2.6812807e-08
0.00075129177
5.6265071e-08
0.0015359147
1.0751184e-07
0.0029398824
1.8401357e-07
0.0052368098
2.6998522e-07
0.0085726383
3.0960929e-07
0.012686342
2.215801e-07
0.016681277
1.3393309e-11
0.019208064
-2.2154764e-07
0.019208064
-3.0956735e-07
0.016681277
-2.6994883e-07
0.012686342
-1.8401417e-07
0.0085726384
-1.0757701e-07
0.0052368098
-5.6393044e-08
0.0029398824
-2.6964694e-08
0.0015359147
-1.1696452e-08
0.00075129177
-4.4426449e-09
0.00034261632
-1.3389939e-09
0.00014222934
-2.278579e-10
4.9728342e-05
1.0126253e-05
2.1164965e-10
1.0126041e-05
1.2382299e-09
4.9727316e-05
4.1286181e-09
0.00014222645
1.0932389e-08
0.00034260951
2.5334656e-08
0.00075127736
5.3168584e-08
0.0015358869
1.0160512e-07
0.002939834
1.7393263e-07
0.0052367375
2.5529339e-07
0.0085725569
2.9296447e-07
0.012686304
2.0988655e-07
0.01668136
1.2540636e-11
0.019208274
-2.0985459e-07
0.019208274
-2.9292067e-07
0.016681361
-2.5525469e-07
0.012686305
-1.739351e-07
0.008572557
-1.0168059e-07
0.0052367375
-5.3315247e-08
0.002939834
-2.5508127e-08
0.0015358869
-1.1074936e-08
0.00075127737
-4.2109788e-09
0.00034260951
-1.2703208e-09
0.00014222645
-2.1595598e-10
4.9727316e-05
1.0126041e-05
2.0029483e-10
1.0125841e-05
1.1718924e-09
4.9726344e-05
3.9073038e-09
0.00014222371
1.0345101e-08
0.00034260307
2.3969837e-08
0.00075126374
5.0298124e-08
0.0015358606
9.6120804e-08
0.0029397882
1.6458151e-07
0.005236669
2.4169581e-07
0.0085724798
2.7765648e-07
0.012686268
1.9919507e-07
0.016681439
1.1160276e-11
0.019208473
-1.9916443e-07
0.019208473
-2.7761115e-07
0.016681439
-2.4165468e-07
0.012686269
-1.6458576e-07
0.0085724799
-9.6206898e-08
0.005236669
-5.0464219e-08
0.0029397882
-2.4165699e-08
0.0015358605
-1.0505612e-08
0.00075126374
-3.9997591e-09
0.00034260308
-1.2077622e-09
0.00014222371
-2.0500717e-10
4.9726344e-05
1.0125841e-05
1.893631e-10
1.0125652e-05
1.1077782e-09
4.9725426e-05
3.6936915e-09
0.00014222113
9.781418e-09
0.00034259698
2.2669673e-08
0.00075125085
4.7580375e-08
0.0015358356
9.0935573e-08
0.0029397448
1.5570724e-07
0.0052366042
2.2870488e-07
0.0085724068
2.628526e-07
0.012686234
1.8871207e-07
0.016681513
9.1547975e-12
0.019208662
-1.8868371e-07
0.019208662
-2.6280594e-07
0.016681513
-2.2866105e-07
0.012686234
-1.5571316e-07
0.0085724069
-9.1032738e-08
0.0052366043
-4.7766678e-08
0.0029397448
-2.2888417e-08
0.0015358356
-9.9598086e-09
0.00075125086
-3.7958405e-09
0.00034259699
-1.1470649e-09
0.00014222113
-1.9429412e-10
4.9725426e-05
1.0125652e-05
1.7999068e-10
1.0125472e-05
1.053141e-09
4.9724553e-05
3.5108427e-09
0.00014221867
9.2924778e-09
0.0003425912
2.1522098e-08
0.00075123862
4.5144694e-08
0.001535812
8.6255542e-08
0.0029397037
1.4770798e-07
0.0052365428
2.1705315e-07
0.0085723374
2.4970466e-07
0.012686202
1.7948833e-07
0.016681583
6.575306e-12
0.019208841
-1.7946318e-07
0.019208841
-2.4965713e-07
0.016681583
-2.1700595e-07
0.012686202
-1.4771415e-07
0.0085723376
-8.6362843e-08
0.0052365428
-4.5351037e-08
0.0029397037
-2.1763729e-08
0.001535812
-9.4885882e-09
0.00075123863
-3.6224876e-09
0.00034259121
-1.0957551e-09
0.00014221867
-1.8514605e-10
4.9724553e-05
1.0125472e-05
1.6888755e-10
1.0125303e-05
9.8823924e-10
4.9723734e-05
3.2975074e-09
0.00014221636
8.7431139e-09
0.00034258576
2.0295275e-08
0.00075122707
4.2664799e-08
0.0015357897
8.1644268e-08
0.0029396647
1.3992652e-07
0.0052364845
2.0571824e-07
0.0085722716
2.3675719e-07
0.012686171
1.7030822e-07
0.01668165
3.4212317e-12
0.019209011
-1.702877e-07
0.019209011
-2.3671015e-07
0.01668165
-2.056675e-07
0.012686171
-1.3993069e-07
0.0085722718
-8.1758078e-08
0.0052364845
-4.2886517e-08
0.0029396647
-2.0554128e-08
0.0015357896
-8.951344e-09
0.00075122708
-3.4145786e-09
0.00034258577
-1.0320867e-09
0.00014221636
-1.7365498e-10
4.9723735e-05
1.0125303e-05
1.6409328e-10
1.0125139e-05
9.6035526e-10
4.9722938e-05