/*--------------------------------*- C++ -*----------------------------------*\
| =========                 |                                                 |
| \\      /  F ield         | OpenFOAM: The Open Source CFD Toolbox           |
|  \\    /   O peration     | Version:  2406                                  |
|   \\  /    A nd           | Website:  www.openfoam.com                      |
|    \\/     M anipulation  |                                                 |
\*---------------------------------------------------------------------------*/
FoamFile
{
    version     2.0;
    format      ascii;
    arch        "LSB;label=32;scalar=64";
    class       volVectorField;
    location    "19";
    object      U;
}
// * * * * * * * * * * * * * * * * * * * * * * * * * * * * * * * * * * * * * //

dimensions      [0 1 -1 0 0 0 0];

internalField   nonuniform List<vector> 
1176
(
(0.019493789 7.0786254e-07 0)
(0.066677318 8.1696557e-06 0)
(0.13357994 3.9503145e-05 0)
(0.22724701 0.00010873571 0)
(0.35591522 0.00021176015 0)
(0.52772023 0.00030396266 0)
(0.74780387 0.00031817991 0)
(1.0136216 0.00024904556 0)
(1.3093323 0.00016666962 0)
(1.6017081 0.00011264644 0)
(1.8421723 7.0213685e-05 0)
(1.9793239 2.3940329e-05 0)
(1.9793239 -2.3941385e-05 0)
(1.8421723 -7.0215728e-05 0)
(1.6017081 -0.00011265126 0)
(1.3093323 -0.00016668034 0)
(1.0136216 -0.00024906514 0)
(0.74780389 -0.00031820829 0)
(0.52772026 -0.00030399501 0)
(0.35591523 -0.00021178769 0)
(0.227247 -0.00010875563 0)
(0.13357993 -3.9504973e-05 0)
(0.06667731 -8.1829443e-06 0)
(0.019493787 -7.0596806e-07 0)
(0.020187017 -3.7419187e-06 0)
(0.068813532 -2.4638642e-05 0)
(0.13732107 -9.6548569e-05 0)
(0.23247391 -0.00024839465 0)
(0.36204617 -0.0004726879 0)
(0.53373557 -0.000674212 0)
(0.75267407 -0.00069486969 0)
(1.0170176 -0.00049687404 0)
(1.3116385 -0.00023345961 0)
(1.6034438 -4.9824913e-05 0)
(1.8436588 1.9764161e-05 0)
(1.9807026 1.3427232e-05 0)
(1.9807026 -1.3427762e-05 0)
(1.8436588 -1.9763056e-05 0)
(1.6034438 4.983028e-05 0)
(1.3116385 0.00023347242 0)
(1.0170177 0.00049689711 0)
(0.75267408 0.00069490209 0)
(0.53373558 0.00067424578 0)
(0.36204618 0.00047271265 0)
(0.23247391 0.00024840838 0)
(0.13732107 9.6550571e-05 0)
(0.068813526 2.4643092e-05 0)
(0.020187014 3.7412854e-06 0)
(0.020018442 2.091836e-06 0)
(0.068327405 1.2720774e-05 0)
(0.13655405 4.6877247e-05 0)
(0.23159544 0.00011389736 0)
(0.36138709 0.00019769263 0)
(0.53366969 0.00023903227 0)
(0.75344344 0.000205598 0)
(1.0184881 0.00011361084 0)
(1.3134639 7.4313134e-05 0)
(1.6053464 7.9532238e-05 0)
(1.8455118 7.0515576e-05 0)
(1.9825245 2.7824183e-05 0)
(1.9825245 -2.7828012e-05 0)
(1.8455118 -7.0520553e-05 0)
(1.6053464 -7.9539046e-05 0)
(1.3134639 -7.4321656e-05 0)
(1.0184881 -0.00011362022 0)
(0.75344342 -0.0002056062 0)
(0.53366967 -0.00023903963 0)
(0.36138707 -0.00019769718 0)
(0.23159543 -0.00011389892 0)
(0.13655404 -4.6879005e-05 0)
(0.068327404 -1.27189e-05 0)
(0.020018441 -2.092251e-06 0)
(0.019966547 7.0076232e-07 0)
(0.068159232 4.6870559e-06 0)
(0.13624021 1.935543e-05 0)
(0.2311194 5.645616e-05 0)
(0.36078093 0.00013444563 0)
(0.53306293 0.00025829311 0)
(0.75295637 0.00035344729 0)
(1.0181104 0.00036911987 0)
(1.313184 0.00030758853 0)
(1.6051633 0.00022777215 0)
(1.8453995 0.00014555929 0)
(1.9824491 4.9997432e-05 0)
(1.9824491 -4.9996496e-05 0)
(1.8453995 -0.000145558 0)
(1.6051633 -0.00022777062 0)
(1.313184 -0.00030758734 0)
(1.0181104 -0.00036912009 0)
(0.75295638 -0.00035345061 0)
(0.53306294 -0.00025829773 0)
(0.36078094 -0.00013445015 0)
(0.2311194 -5.6459099e-05 0)
(0.13624021 -1.9356995e-05 0)
(0.068159235 -4.687341e-06 0)
(0.019966548 -7.0083672e-07 0)
(0.019942204 2.9076643e-07 0)
(0.068078703 1.9872109e-06 0)
(0.13608628 8.2361055e-06 0)
(0.23087699 2.3699317e-05 0)
(0.36044744 5.6881615e-05 0)
(0.53266449 0.00012306884 0)
(0.75256878 0.00022681812 0)
(1.017808 0.00032272205 0)
(1.3129044 0.00034572432 0)
(1.604912 0.0003072994 0)
(1.8452029 0.00021095271 0)
(1.9822898 7.4614161e-05 0)
(1.9822898 -7.4614833e-05 0)
(1.8452029 -0.00021095333 0)
(1.604912 -0.00030730007 0)
(1.3129044 -0.00034572481 0)
(1.017808 -0.00032272259 0)
(0.75256878 -0.0002268192 0)
(0.53266449 -0.00012307011 0)
(0.36044744 -5.6883002e-05 0)
(0.23087699 -2.3700235e-05 0)
(0.13608628 -8.2372839e-06 0)
(0.068078703 -1.9867064e-06 0)
(0.019942204 -2.9094856e-07 0)
(0.019933132 1.718131e-07 0)
(0.068047756 1.1940828e-06 0)
(0.13602489 5.0651895e-06 0)
(0.23077535 1.4968859e-05 0)
(0.36029899 3.6219552e-05 0)
(0.5324792 7.6944266e-05 0)
(0.75239428 0.00014713773 0)
(1.0177222 0.00023749022 0)
(1.3129292 0.0002852558 0)
(1.6049746 0.00027441463 0)
(1.8452865 0.00019644586 0)
(1.9823834 7.1176642e-05 0)
(1.9823834 -7.1177294e-05 0)
(1.8452865 -0.00019644636 0)
(1.6049746 -0.00027441501 0)
(1.3129292 -0.00028525635 0)
(1.0177222 -0.00023749106 0)
(0.75239427 -0.00014713947 0)
(0.5324792 -7.6946387e-05 0)
(0.36029899 -3.6221465e-05 0)
(0.23077535 -1.4969977e-05 0)
(0.13602489 -5.0663223e-06 0)
(0.068047756 -1.193624e-06 0)
(0.019933132 -1.7198056e-07 0)
(0.0199234 1.5587372e-07 0)
(0.068015507 1.0700839e-06 0)
(0.13596286 4.4934575e-06 0)
(0.23067607 1.3195469e-05 0)
(0.36015773 3.1857152e-05 0)
(0.53230178 6.6958296e-05 0)
(0.75221429 0.00012411897 0)
(1.0176105 0.00019917059 0)
(1.3129358 0.00025490843 0)
(1.6050904 0.0002459516 0)
(1.8454579 0.00018127876 0)
(1.9825798 6.6548325e-05 0)
(1.9825798 -6.6548653e-05 0)
(1.8454579 -0.00018127883 0)
(1.6050904 -0.00024595129 0)
(1.3129358 -0.00025490806 0)
(1.0176105 -0.0001991709 0)
(0.75221429 -0.00012412024 0)
(0.53230178 -6.6960179e-05 0)
(0.36015773 -3.1859002e-05 0)
(0.23067607 -1.3196622e-05 0)
(0.13596286 -4.4945443e-06 0)
(0.068015507 -1.0697333e-06 0)
(0.0199234 -1.5601934e-07 0)
(0.019915697 1.275848e-07 0)
(0.067989793 8.7802401e-07 0)
(0.13591293 3.6959968e-06 0)
(0.23059503 1.0901615e-05 0)
(0.36003987 2.6613382e-05 0)
(0.53214753 5.7237203e-05 0)
(0.75204133 0.00010911063 0)
(1.0174723 0.00017936645 0)
(1.3128926 0.00023802489 0)
(1.6051414 0.00023746755 0)
(1.8455877 0.00017750666 0)
(1.9827514 6.5539252e-05 0)
(1.9827514 -6.553952e-05 0)
(1.8455877 -0.00017750662 0)
(1.6051414 -0.00023746708 0)
(1.3128926 -0.00023802443 0)
(1.0174723 -0.00017936665 0)
(0.75204133 -0.00010911168 0)
(0.53214753 -5.7238796e-05 0)
(0.36003987 -2.6614971e-05 0)
(0.23059503 -1.0902599e-05 0)
(0.13591293 -3.6969957e-06 0)
(0.067989793 -8.7765387e-07 0)
(0.019915697 -1.2772668e-07 0)
(0.019909217 1.046578e-07 0)
(0.067968141 7.2314022e-07 0)
(0.13587084 3.0521048e-06 0)
(0.23052654 9.0118446e-06 0)
(0.35993985 2.1999919e-05 0)
(0.53201542 4.7473531e-05 0)
(0.75188901 9.2014227e-05 0)
(1.0173341 0.0001561821 0)
(1.3128278 0.00021699694 0)
(1.6051595 0.00022709632 0)
(1.8456699 0.00017232621 0)
(1.982868 6.4147542e-05 0)
(1.982868 -6.4147818e-05 0)
(1.8456699 -0.00017232617 0)
(1.6051595 -0.00022709588 0)
(1.3128278 -0.00021699659 0)
(1.0173341 -0.00015618239 0)
(0.75188901 -9.2015278e-05 0)
(0.53201542 -4.747506e-05 0)
(0.35993985 -2.200141e-05 0)
(0.23052654 -9.0127502e-06 0)
(0.13587084 -3.0530062e-06 0)
(0.067968142 -7.2279886e-07 0)
(0.019909217 -1.0478669e-07 0)
(0.019903971 8.612751e-08 0)
(0.067950553 5.9696314e-07 0)
(0.13583649 2.527384e-06 0)
(0.2304703 7.4916324e-06 0)
(0.35985692 1.8376348e-05 0)
(0.53190436 3.9835796e-05 0)
(0.75175837 7.7712343e-05 0)
(1.0172122 0.0001343246 0)
(1.3127613 0.00019323392 0)
(1.6051772 0.00021058355 0)
(1.8457533 0.00016272961 0)
(1.9829863 6.1084041e-05 0)
(1.9829863 -6.1084445e-05 0)
(1.8457533 -0.00016272971 0)
(1.6051772 -0.0002105833 0)
(1.3127613 -0.00019323373 0)
(1.0172122 -0.00013432489 0)
(0.75175837 -7.7713311e-05 0)
(0.53190436 -3.9837201e-05 0)
(0.35985692 -1.8377698e-05 0)
(0.2304703 -7.4924443e-06 0)
(0.13583649 -2.5281634e-06 0)
(0.067950553 -5.9667549e-07 0)
(0.019903972 -8.6237684e-08 0)
(0.019899543 7.335815e-08 0)
(0.067935688 5.089602e-07 0)
(0.13580742 2.1568984e-06 0)
(0.23042259 6.4027862e-06 0)
(0.35978626 1.5747648e-05 0)
(0.5318089 3.427794e-05 0)
(0.75164409 6.72048e-05 0)
(1.0171021 0.0001172302 0)
(1.3126976 0.00017262487 0)
(1.6051928 0.00019308913 0)
(1.8458371 0.00015219853 0)
(1.9831061 5.7544526e-05 0)
(1.9831061 -5.7545065e-05 0)
(1.8458371 -0.00015219881 0)
(1.6051928 -0.00019308908 0)
(1.3126976 -0.00017262484 0)
(1.0171021 -0.0001172305 0)
(0.75164409 -6.720567e-05 0)
(0.5318089 -3.4279175e-05 0)
(0.35978626 -1.574881e-05 0)
(0.23042259 -6.403475e-06 0)
(0.13580742 -2.1575408e-06 0)
(0.067935689 -5.087259e-07 0)
(0.019899543 -7.3448554e-08 0)
(0.019895722 6.372896e-08 0)
(0.067922851 4.4251808e-07 0)
(0.13578228 1.8767511e-06 0)
(0.23038125 5.5765543e-06 0)
(0.35972484 1.3738746e-05 0)
(0.53172535 2.999813e-05 0)
(0.75154265 5.911176e-05 0)
(1.0170011 0.00010388844 0)
(1.3126345 0.00015540303 0)
(1.6052015 0.00017849534 0)
(1.8459125 0.0001427154 0)
(1.9832185 5.433031e-05 0)
(1.9832185 -5.4330946e-05 0)
(1.8459125 -0.00014271582 0)
(1.6052015 -0.00017849549 0)
(1.3126345 -0.00015540312 0)
(1.0170011 -0.00010388876 0)
(0.75154265 -5.9112529e-05 0)
(0.53172535 -2.9999182e-05 0)
(0.35972484 -1.3739711e-05 0)
(0.23038125 -5.5771171e-06 0)
(0.13578228 -1.8772575e-06 0)
(0.067922851 -4.4233781e-07 0)
(0.019895722 -6.3799519e-08 0)
(0.019892371 5.6092147e-08 0)
(0.067911587 3.8977397e-07 0)
(0.13576021 1.6541405e-06 0)
(0.2303449 4.9187959e-06 0)
(0.35967069 1.2132083e-05 0)
(0.53165136 2.654257e-05 0)
(0.7514519 5.2498981e-05 0)
(1.0169086 9.2875946e-05 0)
(1.3125728 0.00014061512 0)
(1.605205 0.00016529625 0)
(1.8459798 0.00013398915 0)
(1.9833221 5.1387143e-05 0)
(1.9833221 -5.1387821e-05 0)
(1.8459798 -0.00013398967 0)
(1.605205 -0.00016529656 0)
(1.3125728 -0.00014061529 0)
(1.0169086 -9.2876256e-05 0)
(0.7514519 -5.2499633e-05 0)
(0.53165136 -2.6543429e-05 0)
(0.35967069 -1.2132851e-05 0)
(0.2303449 -4.9192386e-06 0)
(0.13576021 -1.6545236e-06 0)
(0.067911587 -3.8964342e-07 0)
(0.019892371 -5.6144562e-08 0)
(0.019889403 4.9851259e-08 0)
(0.067901607 3.4661315e-07 0)
(0.13574064 1.4717819e-06 0)
(0.23031264 4.3794239e-06 0)
(0.35962253 1.0812387e-05 0)
(0.53158532 2.3691548e-05 0)
(0.75137029 4.6984352e-05 0)
(1.016824 8.3546562e-05 0)
(1.3125139 0.0001277377 0)
(1.6052051 0.00015293358 0)
(1.8460415 0.00012582029 0)
(1.9834196 4.8616227e-05 0)
(1.9834196 -4.8616878e-05 0)
(1.8460415 -0.00012582084 0)
(1.6052051 -0.00015293397 0)
(1.3125139 -0.00012773792 0)
(1.016824 -8.354685e-05 0)
(0.75137029 -4.6984882e-05 0)
(0.53158531 -2.369222e-05 0)
(0.35962253 -1.0812975e-05 0)
(0.23031264 -4.3797607e-06 0)
(0.13574064 -1.4720635e-06 0)
(0.067901608 -3.4652283e-07 0)
(0.019889404 -4.9888856e-08 0)
(0.019886752 4.4701328e-08 0)
(0.067892685 3.109392e-07 0)
(0.13572313 1.3208373e-06 0)
(0.23028376 3.9322422e-06 0)
(0.35957935 9.7159616e-06 0)
(0.53152593 2.131574e-05 0)
(0.75129648 4.2360488e-05 0)
(1.0167465 7.5620178e-05 0)
(1.3124581 0.00011654261 0)
(1.6052027 0.00014169889 0)
(1.8460982 0.00011827099 0)
(1.9835117 4.603136e-05 0)
(1.9835117 -4.6031908e-05 0)
(1.8460982 -0.00011827151 0)
(1.6052027 -0.00014169928 0)
(1.3124581 -0.00011654284 0)
(1.0167465 -7.5620424e-05 0)
(0.75129648 -4.2360903e-05 0)
(0.53152593 -2.1316251e-05 0)
(0.35957935 -9.7164033e-06 0)
(0.23028376 -3.9324957e-06 0)
(0.13572313 -1.3210447e-06 0)
(0.067892686 -3.1087779e-07 0)
(0.019886752 -4.4728221e-08 0)
(0.019884363 4.038894e-08 0)
(0.067884644 2.8103473e-07 0)
(0.13570735 1.1941759e-06 0)
(0.23025769 3.5565231e-06 0)
(0.35954035 8.7929771e-06 0)
(0.53147216 1.9310185e-05 0)
(0.75122934 3.8440405e-05 0)
(1.0166753 6.8839256e-05 0)
(1.3124053 0.00010678385 0)
(1.6051983 0.00013155253 0)
(1.8461504 0.00011132807 0)
(1.9835985 4.3631037e-05 0)
(1.9835985 -4.3631421e-05 0)
(1.8461504 -0.00011132848 0)
(1.6051983 -0.00013155283 0)
(1.3124053 -0.00010678403 0)
(1.0166753 -6.8839445e-05 0)
(0.75122934 -3.8440721e-05 0)
(0.53147216 -1.9310572e-05 0)
(0.35954035 -8.793314e-06 0)
(0.23025769 -3.5567202e-06 0)
(0.13570735 -1.1943385e-06 0)
(0.067884644 -2.8099065e-07 0)
(0.019884363 -4.0409452e-08 0)
(0.019882196 3.6713878e-08 0)
(0.067877349 2.5553407e-07 0)
(0.13569303 1.0860983e-06 0)
(0.23023403 3.2356645e-06 0)
(0.3595049 8.0036631e-06 0)
(0.53142321 1.7591082e-05 0)
(0.75116797 3.5067469e-05 0)
(1.0166096 6.296447e-05 0)
(1.3123554 9.8203562e-05 0)
(1.6051923 0.00012233392 0)
(1.8461982 0.00010491331 0)
(1.9836803 4.1390454e-05 0)
(1.9836803 -4.1390632e-05 0)
(1.8461982 -0.00010491354 0)
(1.6051923 -0.0001223341 0)
(1.3123553 -9.8203658e-05 0)
(1.0166096 -6.29646e-05 0)
(0.75116797 -3.5067713e-05 0)
(0.5314232 -1.7591389e-05 0)
(0.3595049 -8.0039408e-06 0)
(0.23023403 -3.2358333e-06 0)
(0.13569303 -1.0862448e-06 0)
(0.067877349 -2.5549649e-07 0)
(0.019882196 -3.6732143e-08 0)
(0.01988022 3.3540997e-08 0)
(0.067870696 2.3350669e-07 0)
(0.13567996 9.9269153e-07 0)
(0.23021243 2.9581857e-06 0)
(0.35947252 7.32037e-06 0)
(0.53137842 1.6100279e-05 0)
(0.75111165 3.2133239e-05 0)
(1.0165488 5.782372e-05 0)
(1.3123082 9.0602849e-05 0)
(1.6051852 0.00011395377 0)
(1.8462423 9.8956216e-05 0)
(1.9837576 3.9289053e-05 0)
(1.9837576 -3.9289013e-05 0)
(1.8462423 -9.8956259e-05 0)
(1.6051852 -0.00011395381 0)
(1.3123082 -9.0602851e-05 0)
(1.0165488 -5.7823799e-05 0)
(0.75111165 -3.2133442e-05 0)
(0.53137842 -1.6100554e-05 0)
(0.35947252 -7.3206333e-06 0)
(0.23021243 -2.9583534e-06 0)
(0.13567996 -9.9284824e-07 0)
(0.067870696 -2.3346599e-07 0)
(0.01988022 -3.3560748e-08 0)
(0.01987841 3.0776217e-08 0)
(0.0678646 2.1430335e-07 0)
(0.13566798 9.1121894e-07 0)
(0.23019263 2.7160187e-06 0)
(0.35944282 6.723498e-06 0)
(0.53133729 1.4796148e-05 0)
(0.75105977 2.9559913e-05 0)
(1.0164925 5.3292865e-05 0)
(1.3122638 8.3831977e-05 0)
(1.6051772 0.00010632446 0)
(1.8462831 9.3403565e-05 0)
(1.9838307 3.7312621e-05 0)
(1.9838307 -3.7312371e-05 0)
(1.846283 -9.3403412e-05 0)
(1.6051772 -0.00010632432 0)
(1.3122638 -8.3831887e-05 0)
(1.0164925 -5.3292906e-05 0)
(0.75105977 -2.9560107e-05 0)
(0.53133729 -1.4796434e-05 0)
(0.35944282 -6.7237883e-06 0)
(0.23019263 -2.7162101e-06 0)
(0.13566798 -9.1140965e-07 0)
(0.0678646 -2.1425113e-07 0)
(0.01987841 -3.0800756e-08 0)
(0.019876745 2.8345773e-08 0)
(0.067858993 1.9741587e-07 0)
(0.13565697 8.3954189e-07 0)
(0.23017441 2.5028636e-06 0)
(0.35941547 6.1977246e-06 0)
(0.53129937 1.3645935e-05 0)
(0.75101184 2.7285539e-05 0)
(1.0164401 4.9272062e-05 0)
(1.3122219 7.776813e-05 0)
(1.6051688 9.935658e-05 0)
(1.8463207 8.8213957e-05 0)
(1.9838998 3.5449775e-05 0)
(1.9838998 -3.5449341e-05 0)
(1.8463207 -8.8213623e-05 0)
(1.6051688 -9.9356305e-05 0)
(1.3122219 -7.7767962e-05 0)
(1.0164401 -4.9272085e-05 0)
(0.75101184 -2.7285756e-05 0)
(0.53129937 -1.3646271e-05 0)
(0.35941547 -6.198079e-06 0)
(0.23017441 -2.5031012e-06 0)
(0.13565697 -8.3978803e-07 0)
(0.067858993 -1.9734467e-07 0)
(0.019876745 -2.8378048e-08 0)
(0.019875209 2.6191667e-08 0)
(0.067853818 1.8244394e-07 0)
(0.1356468 7.7597396e-07 0)
(0.23015759 2.3137487e-06 0)
(0.3593902 5.7309498e-06 0)
(0.5312643 1.2623707e-05 0)
(0.75096742 2.5260585e-05 0)
(1.0163914 4.5679895e-05 0)
(1.3121824 7.2308515e-05 0)
(1.6051599 9.2973879e-05 0)
(1.8463555 8.3350782e-05 0)
(1.9839652 3.3689861e-05 0)
(1.9839652 -3.3689273e-05 0)
(1.8463555 -8.335029e-05 0)
(1.6051599 -9.2973479e-05 0)
(1.3121824 -7.2308281e-05 0)
(1.0163914 -4.5679916e-05 0)
(0.75096742 -2.5260852e-05 0)
(0.5312643 -1.262413e-05 0)
(0.3593902 -5.7314015e-06 0)
(0.23015759 -2.3140528e-06 0)
(0.1356468 -7.7629525e-07 0)
(0.067853818 -1.8234691e-07 0)
(0.019875209 -2.6234383e-08 0)
(0.019873787 2.4268729e-08 0)
(0.067849028 1.690751e-07 0)
(0.13563738 7.1919661e-07 0)
(0.230142 2.144779e-06 0)
(0.35936679 5.3136705e-06 0)
(0.53123179 1.170904e-05 0)
(0.75092617 2.3445826e-05 0)
(1.016346 4.2450911e-05 0)
(1.3121452 6.7368097e-05 0)
(1.6051509 8.7108077e-05 0)
(1.8463878 7.8785699e-05 0)
(1.9840271 3.20243e-05 0)
(1.9840271 -3.2023586e-05 0)
(1.8463878 -7.8785073e-05 0)
(1.6051509 -8.7107567e-05 0)
(1.3121452 -6.7367807e-05 0)
(1.016346 -4.2450943e-05 0)
(0.75092617 -2.3446168e-05 0)
(0.53123179 -1.1709581e-05 0)
(0.35936679 -5.3142503e-06 0)
(0.230142 -2.1451687e-06 0)
(0.13563738 -7.196119e-07 0)
(0.067849028 -1.6894576e-07 0)
(0.019873787 -2.4324469e-08 0)
(0.019872467 2.2541399e-08 0)
(0.067844582 1.5706312e-07 0)
(0.13562864 6.6816958e-07 0)
(0.23012754 1.9928773e-06 0)
(0.35934505 4.9383637e-06 0)
(0.53120157 1.0885725e-05 0)
(0.75088777 2.1810038e-05 0)
(1.0163035 3.9532589e-05 0)
(1.31211 6.2877007e-05 0)
(1.6051418 8.1702668e-05 0)
(1.8464179 7.4492478e-05 0)
(1.9840857 3.0444952e-05 0)
(1.9840857 -3.0444133e-05 0)
(1.8464179 -7.4491736e-05 0)
(1.6051418 -8.1702062e-05 0)
(1.31211 -6.287667e-05 0)
(1.0163035 -3.9532646e-05 0)
(0.75088777 -2.1810479e-05 0)
(0.53120157 -1.0886416e-05 0)
(0.35934505 -4.9391019e-06 0)
(0.23012754 -1.9933713e-06 0)
(0.13562864 -6.6869768e-07 0)
(0.067844582 -1.5689508e-07 0)
(0.019872467 -2.2612737e-08 0)
(0.01987124 2.0981216e-08 0)
(0.067840446 1.462108e-07 0)
(0.13562051 6.2205929e-07 0)
(0.23011408 1.8555754e-06 0)
(0.35932481 4.5989856e-06 0)
(0.53117342 1.0140702e-05 0)
(0.75085195 2.0327966e-05 0)
(1.0162638 3.6882236e-05 0)
(1.3120768 5.8777533e-05 0)
(1.6051327 7.6707383e-05 0)
(1.8464458 7.0452006e-05 0)
(1.9841412 2.8945778e-05 0)
(1.9841412 -2.8944868e-05 0)
(1.8464458 -7.0451161e-05 0)
(1.6051327 -7.6706686e-05 0)
(1.3120768 -5.8777154e-05 0)
(1.0162638 -3.6882328e-05 0)
(0.75085195 -2.0328529e-05 0)
(0.53117342 -1.0141573e-05 0)
(0.35932481 -4.5999128e-06 0)
(0.23011408 -1.8561932e-06 0)
(0.13562051 -6.2271969e-07 0)
(0.067840446 -1.4599753e-07 0)
(0.01987124 -2.1070809e-08 0)
(0.019870096 1.9565162e-08 0)
(0.067836593 1.3635863e-07 0)
(0.13561293 5.8019097e-07 0)
(0.23010153 1.7308747e-06 0)
(0.35930594 4.2906377e-06 0)
(0.53114716 9.4633707e-06 0)
(0.7508185 1.8979054e-05 0)
(1.0162266 3.4464861e-05 0)
(1.3120455 5.5021546e-05 0)
(1.6051237 7.2081433e-05 0)
(1.8464718 6.6643515e-05 0)
(1.9841938 2.752035e-05 0)
(1.9841938 -2.7519352e-05 0)
(1.8464718 -6.664257e-05 0)
(1.6051237 -7.2080646e-05 0)
(1.3120455 -5.5021126e-05 0)
(1.0162266 -3.4464999e-05 0)
(0.7508185 -1.8979762e-05 0)
(0.53114716 -9.4644547e-06 0)
(0.35930594 -4.2917863e-06 0)
(0.23010153 -1.7316368e-06 0)
(0.13561293 -5.8100448e-07 0)
(0.067836592 -1.3609322e-07 0)
(0.019870096 -1.967584e-08 0)
(0.019869029 1.82744e-08 0)
(0.067832995 1.2737603e-07 0)
(0.13560586 5.42012e-07 0)
(0.23008982 1.6171369e-06 0)
(0.35928832 4.0093005e-06 0)
(0.53112262 8.8450162e-06 0)
(0.7507872 1.7746352e-05 0)
(1.0161917 3.2251523e-05 0)
(1.312016 5.1568849e-05 0)
(1.6051149 6.7786984e-05 0)
(1.846496 6.3053786e-05 0)
(1.9842437 2.616464e-05 0)
(1.9842437 -2.6163551e-05 0)
(1.846496 -6.3052739e-05 0)
(1.6051149 -6.7786102e-05 0)
(1.312016 -5.1568385e-05 0)
(1.0161917 -3.2251717e-05 0)
(0.7507872 -1.774723e-05 0)
(0.53112262 -8.8463482e-06 0)
(0.35928832 -4.0107053e-06 0)
(0.23008982 -1.6180657e-06 0)
(0.13560586 -5.4300149e-07 0)
(0.067832995 -1.2705096e-07 0)
(0.019869029 -1.8409258e-08 0)
(0.019868031 1.7093398e-08 0)
(0.067829631 1.1915539e-07 0)
(0.13559924 5.0706653e-07 0)
(0.23007886 1.5130107e-06 0)
(0.35927183 3.7516574e-06 0)
(0.53109966 8.2784461e-06 0)
(0.75075788 1.661585e-05 0)
(1.0161589 3.0218138e-05 0)
(1.311988 4.8385414e-05 0)
(1.6051063 6.3794424e-05 0)
(1.8465187 5.9664629e-05 0)
(1.9842909 2.4873293e-05 0)
(1.9842909 -2.4872103e-05 0)
(1.8465187 -5.966347e-05 0)
(1.6051063 -6.3793437e-05 0)
(1.311988 -4.8384901e-05 0)
(1.0161589 -3.0218396e-05 0)
(0.75075788 -1.6616924e-05 0)
(0.53109966 -8.2800642e-06 0)
(0.35927183 -3.753357e-06 0)
(0.23007886 -1.514131e-06 0)
(0.13559924 -5.0825757e-07 0)
(0.067829631 -1.1876222e-07 0)
(0.019868031 -1.7255897e-08 0)
(0.019867097 1.6009177e-08 0)
(0.067826483 1.116068e-07 0)
(0.13559305 4.7497368e-07 0)
(0.2300686 1.417366e-06 0)
(0.35925639 3.5149308e-06 0)
(0.53107814 7.7576212e-06 0)
(0.75073039 1.5575759e-05 0)
(1.0161281 2.834445e-05 0)
(1.3119617 4.5442589e-05 0)
(1.6050979 6.0074241e-05 0)
(1.8465398 5.6467599e-05 0)
(1.9843356 2.3643992e-05 0)
(1.9843356 -2.3642688e-05 0)
(1.8465398 -5.6466314e-05 0)
(1.6050979 -6.0073136e-05 0)
(1.3119617 -4.544202e-05 0)
(1.0161281 -2.8344782e-05 0)
(0.75073039 -1.5577059e-05 0)
(0.53107814 -7.7595673e-06 0)
(0.35925639 -3.5169685e-06 0)
(0.2300686 -1.418706e-06 0)
(0.13559305 -4.7639543e-07 0)
(0.067826482 -1.111359e-07 0)
(0.019867097 -1.6203254e-08 0)
(0.019866221 1.5010823e-08 0)
(0.067823531 1.046546e-07 0)
(0.13558724 4.454128e-07 0)
(0.23005898 1.329252e-06 0)
(0.35924191 3.2967864e-06 0)
(0.53105796 7.2774733e-06 0)
(0.75070458 1.4616173e-05 0)
(1.0160992 2.6613271e-05 0)
(1.3119367 4.2715534e-05 0)
(1.6050897 5.6604766e-05 0)
(1.8465596 5.344512e-05 0)
(1.984378 2.2471761e-05 0)
(1.984378 -2.2470326e-05 0)
(1.8465596 -5.3443692e-05 0)
(1.6050897 -5.6603525e-05 0)
(1.3119368 -4.27149e-05 0)
(1.0160992 -2.6613687e-05 0)
(0.75070458 -1.4617731e-05 0)
(0.53105796 -7.2797954e-06 0)
(0.35924191 -3.2992114e-06 0)
(0.23005898 -1.3308437e-06 0)
(0.13558724 -4.4709881e-07 0)
(0.067823531 -1.0409481e-07 0)
(0.019866221 -1.5241007e-08 0)
(0.0198654 1.4089073e-08 0)
(0.067820762 9.8234692e-08 0)
(0.1355818 4.1811212e-07 0)
(0.23004996 1.2478615e-06 0)
(0.35922832 3.0952356e-06 0)
(0.53103901 6.8336662e-06 0)
(0.75068033 1.3728599e-05 0)
(1.0160719 2.5009971e-05 0)
(1.3119132 4.0183356e-05 0)
(1.6050819 5.3362067e-05 0)
(1.8465781 5.0593378e-05 0)
(1.9844182 2.1355845e-05 0)
(1.9844182 -2.1354261e-05 0)
(1.8465781 -5.0591788e-05 0)
(1.6050819 -5.3360672e-05 0)
(1.3119132 -4.0182649e-05 0)
(1.016072 -2.5010483e-05 0)
(0.75068033 -1.3730453e-05 0)
(0.53103901 -6.8364193e-06 0)
(0.35922832 -3.0981049e-06 0)
(0.23004996 -1.249742e-06 0)
(0.1355818 -4.2010128e-07 0)
(0.067820762 -9.757299e-08 0)
(0.0198654 -1.4360604e-08 0)
(0.019864628 1.3235977e-08 0)
(0.067818161 9.2291881e-08 0)
(0.13557668 3.9283753e-07 0)
(0.23004148 1.1725006e-06 0)
(0.35921556 2.9085772e-06 0)
(0.5310212 6.4225075e-06 0)
(0.75065752 1.29058e-05 0)
(1.0160463 2.3521845e-05 0)
(1.3118909 3.7827237e-05 0)
(1.6050743 5.0330319e-05 0)
(1.8465955 4.7893632e-05 0)
(1.9844563 2.0290933e-05 0)
(1.9844563 -2.0289182e-05 0)
(1.8465955 -4.789186e-05 0)
(1.6050743 -5.0328751e-05 0)
(1.3118909 -3.7826448e-05 0)
(1.0160463 -2.3522468e-05 0)
(0.75065752 -1.2907993e-05 0)
(0.5310212 -6.4257558e-06 0)
(0.35921556 -2.9119567e-06 0)
(0.23004148 -1.174713e-06 0)
(0.13557668 -3.95175e-07 0)
(0.067818161 -9.1513063e-08 0)
(0.019864628 -1.3554925e-08 0)
(0.019863903 1.2444759e-08 0)
(0.067815717 8.6779364e-08 0)
(0.13557187 3.6939068e-07 0)
(0.23003351 1.1025788e-06 0)
(0.35920355 2.7353501e-06 0)
(0.53100445 6.0407959e-06 0)
(0.75063606 1.2141486e-05 0)
(1.0160221 2.2138087e-05 0)
(1.3118699 3.5631793e-05 0)
(1.6050669 4.748948e-05 0)
(1.8466118 4.5347396e-05 0)
(1.9844924 1.927798e-05 0)
(1.9844924 -1.9276047e-05 0)
(1.8466118 -4.5345424e-05 0)
(1.6050669 -4.7487719e-05 0)
(1.3118699 -3.5630914e-05 0)
(1.0160221 -2.2138842e-05 0)
(0.75063606 -1.2144073e-05 0)
(0.53100445 -6.0446142e-06 0)
(0.35920355 -2.7393165e-06 0)
(0.23003351 -1.105173e-06 0)
(0.13557187 -3.721287e-07 0)
(0.067815716 -8.5865677e-08 0)
(0.019863903 -1.2818125e-08 0)
(0.019863221 1.1709409e-08 0)
(0.067813417 8.1655237e-08 0)
(0.13556735 3.4759359e-07 0)
(0.23002601 1.03757e-06 0)
(0.35919226 2.5742702e-06 0)
(0.53098869 5.6857553e-06 0)
(0.75061585 1.1430202e-05 0)
(1.0159993 2.0848948e-05 0)
(1.31185 3.3582067e-05 0)
(1.6050599 4.4828021e-05 0)
(1.8466272 4.2932759e-05 0)
(1.9845266 1.8310553e-05 0)
(1.9845266 -1.8308428e-05 0)
(1.8466272 -4.2930573e-05 0)
(1.6050599 -4.4826052e-05 0)
(1.31185 -3.3581095e-05 0)
(1.0159993 -2.0849861e-05 0)
(0.75061586 -1.1433244e-05 0)
(0.53098869 -5.6902307e-06 0)
(0.35919226 -2.578912e-06 0)
(0.23002601 -1.0406033e-06 0)
(0.13556735 -3.5079223e-07 0)
(0.067813417 -8.0586038e-08 0)
(0.019863221 -1.2145202e-08 0)
(0.019862579 1.1024946e-08 0)
(0.067811252 7.6885346e-08 0)
(0.13556309 3.2730166e-07 0)
(0.23001895 9.7704104e-07 0)
(0.35918162 2.4242539e-06 0)
(0.53097384 5.3549853e-06 0)
(0.75059682 1.0767218e-05 0)
(1.0159778 1.9646414e-05 0)
(1.3118312 3.1666982e-05 0)
(1.6050532 4.2328959e-05 0)
(1.8466415 4.065814e-05 0)
(1.984559 1.7391829e-05 0)
(1.984559 -1.7389508e-05 0)
(1.8466415 -4.0655731e-05 0)
(1.6050532 -4.232677e-05 0)
(1.3118312 -3.1665917e-05 0)
(1.0159778 -1.9647519e-05 0)
(0.75059682 -1.0770789e-05 0)
(0.53097384 -5.3602184e-06 0)
(0.35918162 -2.4296728e-06 0)
(0.23001895 -9.8057905e-07 0)
(0.13556309 -3.3102933e-07 0)
(0.067811252 -7.5636813e-08 0)
(0.019862579 -1.1532208e-08 0)
(0.019861974 1.0386581e-08 0)
(0.067809213 7.2435883e-08 0)
(0.13555908 3.0837093e-07 0)
(0.2300123 9.2056953e-07 0)
(0.3591716 2.2842855e-06 0)
(0.53095985 5.0463194e-06 0)
(0.75057887 1.0148267e-05 0)
(1.0159575 1.8522615e-05 0)
(1.3118134 2.9873726e-05 0)
(1.6050467 3.9983525e-05 0)
(1.8466551 3.849582e-05 0)
(1.9845898 1.6513243e-05 0)
(1.9845898 -1.6510731e-05 0)
(1.8466551 -3.8493185e-05 0)
(1.6050467 -3.9981107e-05 0)
(1.3118134 -2.9872571e-05 0)
(1.0159576 -1.8523951e-05 0)
(0.75057887 -1.0152453e-05 0)
(0.53095985 -5.0524258e-06 0)
(0.3591716 -2.2905974e-06 0)
(0.2300123 -9.2468711e-07 0)
(0.13555908 -3.12705e-07 0)
(0.067809213 -7.0981007e-08 0)
(0.019861974 -1.0975347e-08 0)
(0.019861404 9.7908428e-09 0)
(0.067807292 6.8283684e-08 0)
(0.1355553 2.9070379e-07 0)
(0.23000603 8.6785694e-07 0)
(0.35916216 2.1535909e-06 0)
(0.53094666 4.7579869e-06 0)
(0.75056194 9.5698389e-06 0)
(1.0159384 1.7471861e-05 0)
(1.3117965 2.8195248e-05 0)
(1.6050405 3.7778032e-05 0)
(1.8466678 3.6463833e-05 0)
(1.9846188 1.568121e-05 0)
(1.9846188 -1.5678525e-05 0)
(1.8466678 -3.6460979e-05 0)
(1.6050405 -3.7775383e-05 0)
(1.3117965 -2.8194012e-05 0)
(1.0159384 -1.7473478e-05 0)
(0.75056194 -9.5747368e-06 0)
(0.53094666 -4.7650959e-06 0)
(0.35916216 -2.1609247e-06 0)
(0.23000604 -8.726366e-07 0)
(0.1355553 -2.9572994e-07 0)
(0.067807291 -6.6591116e-08 0)
(0.019861404 -1.0472078e-08 0)
(0.019860867 9.2334993e-09 0)
(0.06780548 6.4397902e-08 0)
(0.13555173 2.7416827e-07 0)
(0.23000012 8.1852377e-07 0)
(0.35915325 2.0312919e-06 0)
(0.53093422 4.4881842e-06 0)
(0.75054596 9.0283909e-06 0)
(1.0159203 1.6487213e-05 0)
(1.3117806 2.6619076e-05 0)
(1.6050346 3.570424e-05 0)
(1.8466798 3.452491e-05 0)
(1.9846465 1.4883572e-05 0)
(1.9846465 -1.4880739e-05 0)
(1.8466798 -3.4521852e-05 0)
(1.6050347 -3.5701364e-05 0)
(1.3117806 -2.6617774e-05 0)
(1.0159203 -1.6489166e-05 0)
(0.75054596 -9.0341102e-06 0)
(0.53093422 -4.4964401e-06 0)
(0.35915325 -2.0397896e-06 0)
(0.23000012 -8.2405591e-07 0)
(0.13555173 -2.7997929e-07 0)
(0.067805479 -6.2432324e-08 0)
(0.019860867 -1.001858e-08 0)
(0.01986036 8.7128475e-09 0)
(0.067803771 6.0768828e-08 0)
(0.13554837 2.587247e-07 0)
(0.22999455 7.7243142e-07 0)
(0.35914485 1.9169558e-06 0)
(0.53092248 4.2357778e-06 0)
(0.75053089 8.5216185e-06 0)
(1.0159032 1.5565483e-05 0)
(1.3117655 2.5143115e-05 0)
(1.605029 3.3753791e-05 0)
(1.846691 3.2711072e-05 0)
(1.9846726 1.4131735e-05 0)
(1.9846726 -1.4128796e-05 0)
(1.846691 -3.2707839e-05 0)
(1.605029 -3.3750699e-05 0)
(1.3117655 -2.5141769e-05 0)
(1.0159033 -1.5567837e-05 0)
(0.75053089 -8.5282835e-06 0)
(0.53092248 -4.2453438e-06 0)
(0.35914485 -1.9267779e-06 0)
(0.22999455 -7.7881946e-07 0)
(0.13554837 -2.6542191e-07 0)
(0.06780377 -5.8493037e-08 0)
(0.01986036 -9.612722e-09 0)
(0.019859881 8.2241906e-09 0)
(0.067802157 5.7360347e-08 0)
(0.13554519 2.4421762e-07 0)
(0.22998928 7.2914923e-07 0)
(0.35913691 1.8096593e-06 0)
(0.53091139 3.9990295e-06 0)
(0.75051664 8.046171e-06 0)
(1.0158871 1.4699467e-05 0)
(1.3117512 2.3752626e-05 0)
(1.6050236 3.1914962e-05 0)
(1.8467017 3.0970048e-05 0)
(1.9846975 1.3407737e-05 0)
(1.9846975 -1.3404743e-05 0)
(1.8467017 -3.0966677e-05 0)
(1.6050236 -3.1911672e-05 0)
(1.3117512 -2.3751261e-05 0)
(1.0158871 -1.4702291e-05 0)
(0.75051664 -8.0539067e-06 0)
(0.53091139 -4.0100678e-06 0)
(0.35913691 -1.8209646e-06 0)
(0.22998928 -7.3649433e-07 0)
(0.13554519 -2.5190438e-07 0)
(0.067802156 -5.4726834e-08 0)
(0.019859881 -9.248511e-09 0)
(0.01985943 7.7691026e-09 0)
(0.067800635 5.4188302e-08 0)
(0.13554219 2.3071733e-07 0)
(0.22998432 6.8883328e-07 0)
(0.35912943 1.7095596e-06 0)
(0.53090093 3.7778113e-06 0)
(0.75050321 7.6015486e-06 0)
(1.0158719 1.3889861e-05 0)
(1.3117377 2.2453664e-05 0)
(1.6050185 3.0190194e-05 0)
(1.8467117 2.9354838e-05 0)
(1.9847208 1.2730903e-05 0)
(1.9847208 -1.2727922e-05 0)
(1.8467117 -2.9351378e-05 0)
(1.6050185 -3.0186733e-05 0)
(1.3117377 -2.2452311e-05 0)
(1.0158719 -1.389323e-05 0)
(0.7505032 -7.6104874e-06 0)
(0.53090093 -3.7904878e-06 0)
(0.35912943 -1.7225023e-06 0)
(0.22998432 -6.9723094e-07 0)
(0.1355422 -2.3948633e-07 0)
(0.067800634 -5.1138515e-08 0)
(0.019859429 -8.9208308e-09 0)
(0.019859003 7.3397725e-09 0)
(0.067799193 5.1190145e-08 0)
(0.13553936 2.1795455e-07 0)
(0.22997961 6.507667e-07 0)
(0.35912234 1.6152494e-06 0)
(0.53089102 3.5697863e-06 0)
(0.75049047 7.1835291e-06 0)
(1.0158574 1.3126929e-05 0)
(1.3117249 2.1224449e-05 0)
(1.6050136 2.8556756e-05 0)
(1.8467212 2.779036e-05 0)
(1.9847434 1.2074166e-05 0)
(1.9847434 -1.2071274e-05 0)
(1.8467212 -2.7786865e-05 0)
(1.6050136 -2.8553148e-05 0)
(1.3117249 -2.1223135e-05 0)
(1.0158574 -1.3130912e-05 0)
(0.75049047 -7.193807e-06 0)
(0.53089102 -3.584287e-06 0)
(0.35912234 -1.6300143e-06 0)
(0.22997961 -6.603292e-07 0)
(0.13553936 -2.2791486e-07 0)
(0.067799192 -4.772961e-08 0)
(0.019859002 -8.6503196e-09 0)
(0.0198586 6.9465586e-09 0)
(0.067797836 4.8449536e-08 0)
(0.13553669 2.0628807e-07 0)
(0.22997518 6.1586908e-07 0)
(0.35911566 1.5283795e-06 0)
(0.5308817 3.3772657e-06 0)
(0.75047849 6.79571e-06 0)
(1.0158438 1.2419618e-05 0)
(1.3117128 2.0087361e-05 0)
(1.605009 2.7040143e-05 0)
(1.84673 2.6362031e-05 0)
(1.9847642 1.1469746e-05 0)
(1.9847642 -1.1467031e-05 0)
(1.84673 -2.6358559e-05 0)
(1.605009 -2.7036408e-05 0)
(1.3117129 -2.0086083e-05 0)
(1.0158438 -1.2424224e-05 0)
(0.75047849 -6.8073643e-06 0)
(0.5308817 -3.3936437e-06 0)
(0.35911567 -1.5450173e-06 0)