/*--------------------------------*- C++ -*----------------------------------*\
  =========                 |
  \\      /  F ield         | OpenFOAM: The Open Source CFD Toolbox
   \\    /   O peration     | Website:  https://openfoam.org
    \\  /    A nd           | Version:  10
     \\/     M anipulation  |
\*---------------------------------------------------------------------------*/
FoamFile
{
    format      ascii;
    class       volScalarField;
    location    "6.4";
    object      T;
}
// * * * * * * * * * * * * * * * * * * * * * * * * * * * * * * * * * * * * * //

dimensions      [0 0 -1 0 0 0 0];

internalField   nonuniform List<scalar> 
100
(
-0.0357728
-0.10605
-0.172571
-0.232978
-0.285132
-0.327185
-0.357648
-0.37544
-0.379932
-0.370965
-0.348856
-0.314389
-0.268785
-0.213659
-0.150963
-0.0829202
-0.0119395
0.0594642
0.128761
0.193497
0.251378
0.300354
0.338689
0.365027
0.378433
0.378433
0.365026
0.338689
0.300353
0.251377
0.193496
0.128761
0.0594635
-0.0119401
-0.0829207
-0.150964
-0.213659
-0.268785
-0.314389
-0.348856
-0.370965
-0.379932
-0.375439
-0.357647
-0.327185
-0.285131
-0.232978
-0.17257
-0.10605
-0.035772
0.0357728
0.10605
0.172571
0.232978
0.285132
0.327185
0.357647
0.37544
0.379932
0.370965
0.348856
0.314389
0.268785
0.213658
0.150963
0.08292
0.0119393
-0.0594643
-0.128761
-0.193497
-0.251378
-0.300354
-0.338689
-0.365027
-0.378433
-0.378433
-0.365026
-0.338689
-0.300353
-0.251377
-0.193496
-0.128761
-0.0594634
0.0119403
0.082921
0.150964
0.213659
0.268786
0.31439
0.348857
0.370965
0.379932
0.37544
0.357647
0.327185
0.285132
0.232978
0.17257
0.10605
0.035772
)
;

boundaryField
{
    inlet
    {
        type            cyclic;
    }
    outlet
    {
        type            cyclic;
    }
    bottom
    {
        type            slip;
    }
    top
    {
        type            slip;
    }
    frontAndBack
    {
        type            empty;
    }
}


// ************************************************************************* //
