/*--------------------------------*- C++ -*----------------------------------*\
  =========                 |
  \\      /  F ield         | OpenFOAM: The Open Source CFD Toolbox
   \\    /   O peration     | Website:  https://openfoam.org
    \\  /    A nd           | Version:  10
     \\/     M anipulation  |
\*---------------------------------------------------------------------------*/
FoamFile
{
    format      ascii;
    class       volScalarField;
    location    "6.4";
    object      T_0;
}
// * * * * * * * * * * * * * * * * * * * * * * * * * * * * * * * * * * * * * //

dimensions      [0 0 -1 0 0 0 0];

internalField   nonuniform List<scalar> 
100
(
-0.0352849
-0.104604
-0.170217
-0.229801
-0.281243
-0.322723
-0.35277
-0.370319
-0.37475
-0.365906
-0.344098
-0.310101
-0.265119
-0.210745
-0.148904
-0.0817892
-0.0117766
0.0586531
0.127005
0.190858
0.247949
0.296257
0.33407
0.360048
0.373271
0.373271
0.360048
0.334069
0.296257
0.247949
0.190857
0.127004
0.0586525
-0.0117772
-0.0817898
-0.148905
-0.210745
-0.265119
-0.310102
-0.344098
-0.365905
-0.37475
-0.370319
-0.352769
-0.322722
-0.281243
-0.2298
-0.170217
-0.104603
-0.0352841
0.0352849
0.104604
0.170217
0.229801
0.281243
0.322722
0.352769
0.370319
0.37475
0.365905
0.344098
0.310101
0.265119
0.210744
0.148904
0.081789
0.0117765
-0.0586533
-0.127005
-0.190858
-0.247949
-0.296257
-0.33407
-0.360048
-0.373271
-0.373271
-0.360048
-0.334069
-0.296257
-0.247949
-0.190857
-0.127004
-0.0586524
0.0117774
0.08179
0.148905
0.210745
0.26512
0.310102
0.344099
0.365906
0.37475
0.370319
0.352769
0.322722
0.281243
0.2298
0.170217
0.104603
0.0352842
)
;

boundaryField
{
    inlet
    {
        type            cyclic;
    }
    outlet
    {
        type            cyclic;
    }
    bottom
    {
        type            slip;
    }
    top
    {
        type            slip;
    }
    frontAndBack
    {
        type            empty;
    }
}


// ************************************************************************* //
