/*--------------------------------*- C++ -*----------------------------------*\
  =========                 |
  \\      /  F ield         | OpenFOAM: The Open Source CFD Toolbox
   \\    /   O peration     | Website:  https://openfoam.org
    \\  /    A nd           | Version:  10
     \\/     M anipulation  |
\*---------------------------------------------------------------------------*/
FoamFile
{
    format      ascii;
    class       volScalarField;
    location    "6.3";
    object      T;
}
// * * * * * * * * * * * * * * * * * * * * * * * * * * * * * * * * * * * * * //

dimensions      [0 0 -1 0 0 0 0];

internalField   nonuniform List<scalar> 
100
(
0.0287376
0.0851941
0.138633
0.18716
0.229057
0.26284
0.287311
0.301604
0.305213
0.29801
0.280249
0.25256
0.215924
0.17164
0.121274
0.0666126
0.00959124
-0.0477699
-0.103439
-0.155443
-0.201941
-0.241285
-0.272081
-0.293239
-0.304009
-0.304009
-0.293239
-0.272081
-0.241285
-0.201941
-0.155443
-0.103438
-0.0477691
0.0095921
0.0666135
0.121275
0.17164
0.215925
0.252561
0.28025
0.29801
0.305214
0.301605
0.287311
0.26284
0.229057
0.18716
0.138632
0.0851936
0.028737
-0.0287376
-0.0851942
-0.138633
-0.18716
-0.229057
-0.26284
-0.287311
-0.301605
-0.305214
-0.29801
-0.280249
-0.252561
-0.215925
-0.17164
-0.121274
-0.0666128
-0.00959145
0.0477697
0.103439
0.155443
0.201941
0.241285
0.272081
0.293239
0.304009
0.304009
0.293239
0.272081
0.241285
0.201941
0.155443
0.103438
0.0477693
-0.00959186
-0.0666132
-0.121275
-0.17164
-0.215925
-0.252561
-0.280249
-0.29801
-0.305213
-0.301604
-0.287311
-0.262839
-0.229057
-0.187159
-0.138632
-0.0851935
-0.028737
)
;

boundaryField
{
    inlet
    {
        type            cyclic;
    }
    outlet
    {
        type            cyclic;
    }
    bottom
    {
        type            slip;
    }
    top
    {
        type            slip;
    }
    frontAndBack
    {
        type            empty;
    }
}


// ************************************************************************* //
