/*--------------------------------*- C++ -*----------------------------------*\
  =========                 |
  \\      /  F ield         | OpenFOAM: The Open Source CFD Toolbox
   \\    /   O peration     | Website:  https://openfoam.org
    \\  /    A nd           | Version:  10
     \\/     M anipulation  |
\*---------------------------------------------------------------------------*/
FoamFile
{
    format      ascii;
    class       volScalarField;
    location    "6.3";
    object      T_0;
}
// * * * * * * * * * * * * * * * * * * * * * * * * * * * * * * * * * * * * * //

dimensions      [0 0 -1 0 0 0 0];

internalField   nonuniform List<scalar> 
100
(
0.0293193
0.0869187
0.141439
0.190949
0.233694
0.26816
0.293127
0.30771
0.311391
0.304042
0.285922
0.257673
0.220295
0.175114
0.123729
0.067961
0.0097854
-0.0487369
-0.105533
-0.15859
-0.206029
-0.246169
-0.277589
-0.299175
-0.310163
-0.310163
-0.299175
-0.277589
-0.246169
-0.206028
-0.158589
-0.105532
-0.0487361
0.00978627
0.0679619
0.12373
0.175115
0.220296
0.257674
0.285923
0.304043
0.311392
0.30771
0.293127
0.26816
0.233694
0.190948
0.141439
0.0869182
0.0293187
-0.0293194
-0.0869188
-0.141439
-0.190949
-0.233694
-0.268161
-0.293127
-0.30771
-0.311392
-0.304043
-0.285922
-0.257673
-0.220296
-0.175114
-0.123729
-0.0679613
-0.00978561
0.0487367
0.105533
0.15859
0.206029
0.246169
0.277589
0.299175
0.310163
0.310163
0.299175
0.277589
0.246169
0.206029
0.158589
0.105532
0.0487363
-0.00978602
-0.0679616
-0.12373
-0.175115
-0.220296
-0.257673
-0.285922
-0.304042
-0.311391
-0.30771
-0.293127
-0.26816
-0.233693
-0.190948
-0.141438
-0.086918
-0.0293187
)
;

boundaryField
{
    inlet
    {
        type            cyclic;
    }
    outlet
    {
        type            cyclic;
    }
    bottom
    {
        type            slip;
    }
    top
    {
        type            slip;
    }
    frontAndBack
    {
        type            empty;
    }
}


// ************************************************************************* //
