/*--------------------------------*- C++ -*----------------------------------*\
  =========                 |
  \\      /  F ield         | OpenFOAM: The Open Source CFD Toolbox
   \\    /   O peration     | Website:  https://openfoam.org
    \\  /    A nd           | Version:  10
     \\/     M anipulation  |
\*---------------------------------------------------------------------------*/
FoamFile
{
    format      ascii;
    class       volScalarField;
    location    "23";
    object      T;
}
// * * * * * * * * * * * * * * * * * * * * * * * * * * * * * * * * * * * * * //

dimensions      [0 0 0 1 0 0 0];

internalField   nonuniform List<scalar> 
10000
(
374.981
361.272
356.58
354.517
353.392
352.678
352.178
351.801
351.504
351.262
351.057
350.881
350.727
350.589
350.464
350.351
350.246
350.149
350.058
349.972
349.891
349.814
349.741
349.671
349.604
349.539
349.476
349.416
349.358
349.301
349.246
349.193
349.141
349.091
349.042
348.994
348.948
348.902
348.858
348.815
348.773
348.731
348.691
348.652
348.614
348.577
348.54
348.505
348.47
348.436
348.403
348.371
348.34
348.309
348.28
348.251
348.223
348.195
348.169
348.143
348.118
348.093
348.07
348.047
348.024
348.003
347.982
347.962
347.943
347.924
347.906
347.888
347.872
347.856
347.84
347.825
347.811
347.798
347.785
347.773
347.761
347.75
347.74
347.73
347.721
347.712
347.705
347.697
347.691
347.685
347.679
347.674
347.67
347.666
347.663
347.66
347.658
347.657
347.656
347.656
388.597
374.799
367.108
362.609
359.762
357.819
356.404
355.321
354.456
353.743
353.14
352.618
352.159
351.75
351.379
351.04
350.728
350.437
350.165
349.909
349.667
349.437
349.217
349.007
348.806
348.611
348.424
348.244
348.069
347.899
347.735
347.575
347.42
347.269
347.122
346.979
346.839
346.703
346.57
346.441
346.314
346.191
346.071
345.953
345.839
345.727
345.618
345.511
345.407
345.306
345.207
345.111
345.017
344.925
344.836
344.749
344.665
344.583
344.503
344.426
344.35
344.277
344.206
344.137
344.071
344.006
343.944
343.883
343.825
343.769
343.715
343.662
343.612
343.564
343.518
343.473
343.431
343.391
343.352
343.315
343.281
343.248
343.217
343.188
343.16
343.135
343.111
343.089
343.069
343.051
343.034
343.02
343.007
342.996
342.986
342.979
342.973
342.969
342.966
342.965
393.2
382.225
374.445
369.049
365.232
362.433
360.303
358.623
357.257
356.117
355.143
354.296
353.546
352.875
352.265
351.707
351.191
350.711
350.26
349.836
349.434
349.053
348.688
348.339
348.004
347.681
347.37
347.07
346.779
346.497
346.223
345.958
345.699
345.448
345.203
344.964
344.732
344.505
344.284
344.069
343.858
343.653
343.452
343.257
343.066
342.88
342.698
342.52
342.347
342.178
342.014
341.853
341.697
341.544
341.396
341.252
341.111
340.974
340.841
340.712
340.586
340.464
340.346
340.232
340.121
340.013
339.909
339.808
339.711
339.618
339.527
339.44
339.357
339.276
339.199
339.126
339.055
338.988
338.923
338.862
338.805
338.75
338.698
338.65
338.604
338.561
338.522
338.486
338.452
338.422
338.394
338.37
338.348
338.33
338.314
338.301
338.291
338.284
338.28
338.279
395.175
386.458
379.397
373.913
369.682
366.38
363.752
361.613
359.835
358.326
357.022
355.877
354.858
353.939
353.102
352.333
351.621
350.956
350.332
349.743
349.185
348.654
348.146
347.66
347.193
346.743
346.309
345.89
345.484
345.09
344.708
344.337
343.976
343.625
343.282
342.949
342.624
342.307
341.998
341.697
341.402
341.115
340.835
340.561
340.294
340.034
339.779
339.531
339.289
339.053
338.823
338.598
338.379
338.166
337.958
337.756
337.56
337.368
337.182
337.001
336.826
336.655
336.49
336.329
336.174
336.023
335.878
335.737
335.601
335.47
335.344
335.222
335.105
334.993
334.885
334.781
334.683
334.588
334.499
334.413
334.332
334.256
334.183
334.115
334.052
333.992
333.937
333.886
333.839
333.797
333.758
333.724
333.694
333.668
333.646
333.628
333.614
333.604
333.599
333.597
396.211
389.039
382.772
377.524
373.204
369.654
366.713
364.245
362.145
360.332
358.744
357.335
356.071
354.925
353.875
352.907
352.007
351.165
350.373
349.624
348.914
348.236
347.589
346.968
346.371
345.795
345.24
344.703
344.183
343.678
343.189
342.713
342.25
341.799
341.36
340.933
340.516
340.109
339.712
339.325
338.948
338.579
338.219
337.868
337.525
337.19
336.863
336.545
336.234
335.93
335.635
335.346
335.065
334.791
334.525
334.265
334.012
333.766
333.527
333.295
333.069
332.85
332.638
332.431
332.232
332.039
331.852
331.671
331.496
331.328
331.165
331.009
330.859
330.714
330.576
330.443
330.316
330.195
330.08
329.97
329.866
329.767
329.674
329.587
329.505
329.429
329.358
329.292
329.232
329.177
329.128
329.084
329.045
329.012
328.984
328.961
328.943
328.931
328.923
328.921
396.836
390.717
385.128
380.207
375.96
372.321
369.202
366.512
364.171
362.115
360.289
358.652
357.17
355.817
354.572
353.417
352.34
351.329
350.376
349.473
348.614
347.795
347.011
346.258
345.533
344.834
344.16
343.507
342.874
342.26
341.664
341.084
340.52
339.971
339.436
338.915
338.406
337.91
337.427
336.955
336.494
336.044
335.605
335.176
334.758
334.349
333.951
333.562
333.182
332.812
332.451
332.099
331.755
331.421
331.096
330.778
330.47
330.17
329.878
329.594
329.319
329.051
328.792
328.54
328.296
328.06
327.832
327.611
327.398
327.192
326.994
326.803
326.619
326.443
326.274
326.112
325.957
325.809
325.668
325.534
325.407
325.286
325.173
325.066
324.966
324.873
324.786
324.706
324.633
324.566
324.506
324.452
324.405
324.364
324.329
324.301
324.28
324.265
324.256
324.253
397.249
391.866
386.817
382.217
378.107
374.471
371.264
368.431
365.917
363.671
361.65
359.818
358.145
356.607
355.182
353.855
352.612
351.442
350.335
349.285
348.283
347.326
346.409
345.527
344.678
343.859
343.066
342.299
341.555
340.834
340.132
339.45
338.786
338.139
337.509
336.895
336.296
335.712
335.141
334.585
334.041
333.511
332.993
332.487
331.994
331.512
331.042
330.583
330.135
329.698
329.272
328.856
328.451
328.057
327.672
327.298
326.934
326.58
326.235
325.9
325.575
325.259
324.953
324.656
324.368
324.089
323.82
323.559
323.308
323.065
322.831
322.605
322.388
322.18
321.98
321.789
321.606
321.431
321.265
321.107
320.957
320.815
320.681
320.555
320.437
320.327
320.224
320.13
320.043
319.964
319.893
319.829
319.774
319.725
319.685
319.652
319.626
319.608
319.598
319.595
397.537
392.686
388.056
383.74
379.783
376.195
372.956
370.035
367.397
365.006
362.827
360.831
358.992
357.288
355.701
354.216
352.818
351.498
350.246
349.055
347.917
346.827
345.781
344.774
343.804
342.866
341.959
341.08
340.227
339.398
338.593
337.81
337.047
336.304
335.58
334.874
334.185
333.513
332.857
332.216
331.591
330.98
330.384
329.802
329.234
328.679
328.137
327.609
327.093
326.59
326.099
325.62
325.154
324.699
324.257
323.825
323.406
322.998
322.601
322.215
321.84
321.476
321.123
320.781
320.449
320.128
319.817
319.517
319.227
318.947
318.677
318.417
318.168
317.928
317.697
317.477
317.266
317.065
316.873
316.691
316.518
316.354
316.2
316.054
315.918
315.791
315.673
315.565
315.465
315.374
315.291
315.218
315.154
315.098
315.051
315.013
314.984
314.963
314.951
314.948
397.746
393.288
388.983
384.904
381.094
377.571
374.331
371.361
368.636
366.133
363.826
361.691
359.709
357.859
356.126
354.496
352.955
351.495
350.106
348.78
347.512
346.295
345.124
343.996
342.908
341.855
340.835
339.846
338.886
337.954
337.047
336.163
335.303
334.465
333.648
332.851
332.073
331.314
330.573
329.849
329.142
328.452
327.778
327.12
326.478
325.851
325.238
324.64
324.057
323.488
322.933
322.392
321.864
321.35
320.849
320.361
319.886
319.424
318.975
318.538
318.114
317.703
317.303
316.916
316.54
316.177
315.825
315.486
315.157
314.84
314.535
314.241
313.958
313.687
313.426
313.177
312.938
312.71
312.493
312.287
312.091
311.905
311.731
311.566
311.412
311.269
311.135
311.012
310.899
310.796
310.703
310.62
310.547
310.484
310.431
310.388
310.355
310.331
310.318
310.314
397.901
393.738
389.686
385.801
382.121
378.666
375.442
372.444
369.658
367.068
364.657
362.407
360.3
358.322
356.457
354.694
353.022
351.431
349.912
348.46
347.066
345.727
344.437
343.192
341.989
340.824
339.694
338.599
337.534
336.499
335.491
334.51
333.554
332.622
331.713
330.826
329.96
329.115
328.289
327.483
326.696
325.928
325.177
324.443
323.727
323.028
322.345
321.679
321.028
320.394
319.775
319.171
318.582
318.009
317.45
316.906
316.376
315.861
315.36
314.873
314.4
313.94
313.495
313.062
312.644
312.238
311.846
311.466
311.1
310.747
310.406
310.078
309.762
309.459
309.168
308.89
308.623
308.369
308.127
307.896
307.678
307.471
307.276
307.093
306.921
306.76
306.611
306.474
306.347
306.233
306.129
306.036
305.955
305.884
305.825
305.777
305.74
305.714
305.699
305.695
398.018
394.079
390.224
386.495
382.925
379.534
376.332
373.319
370.489
367.832
365.335
362.986
360.771
358.678
356.695
354.811
353.017
351.304
349.664
348.092
346.58
345.123
343.718
342.36
341.046
339.772
338.536
337.336
336.168
335.033
333.927
332.849
331.799
330.774
329.775
328.799
327.846
326.916
326.008
325.12
324.253
323.407
322.579
321.771
320.982
320.212
319.459
318.724
318.007
317.308
316.625
315.96
315.311
314.678
314.062
313.462
312.878
312.309
311.756
311.219
310.697
310.19
309.699
309.222
308.76
308.312
307.879
307.461
307.057
306.667
306.291
305.929
305.58
305.246
304.925
304.618
304.324
304.043
303.776
303.522
303.281
303.052
302.837
302.635
302.445
302.268
302.104
301.952
301.812
301.685
301.571
301.469
301.379
301.301
301.236
301.183
301.142
301.113
301.097
301.092
398.108
394.34
390.637
387.032
383.553
380.218
377.038
374.017
371.153
368.441
365.873
363.439
361.129
358.934
356.844
354.849
352.943
351.116
349.362
347.676
346.051
344.483
342.967
341.5
340.078
338.699
337.359
336.057
334.79
333.556
332.353
331.181
330.038
328.923
327.834
326.771
325.732
324.718
323.727
322.76
321.814
320.89
319.987
319.105
318.244
317.402
316.581
315.778
314.995
314.231
313.486
312.758
312.049
311.358
310.685
310.029
309.391
308.77
308.166
307.579
307.008
306.454
305.917
305.396
304.89
304.401
303.928
303.471
303.029
302.602
302.191
301.796
301.415
301.049
300.698
300.362
300.041
299.734
299.442
299.164
298.9
298.651
298.416
298.194
297.987
297.793
297.613
297.447
297.295
297.156
297.031
296.919
296.821
296.736
296.665
296.607
296.562
296.53
296.512
296.507
398.176
394.54
390.954
387.447
384.04
380.75
377.59
374.563
371.672
368.914
366.284
363.776
361.382
359.095
356.908
354.812
352.8
350.867
349.006
347.212
345.48
343.805
342.183
340.612
339.086
337.605
336.164
334.762
333.397
332.067
330.771
329.506
328.272
327.067
325.89
324.741
323.618
322.521
321.449
320.402
319.378
318.378
317.4
316.445
315.512
314.601
313.711
312.841
311.993
311.165
310.357
309.568
308.8
308.051
307.321
306.61
305.918
305.244
304.589
303.952
303.334
302.733
302.15
301.585
301.037
300.506
299.993
299.497
299.018
298.555
298.109
297.68
297.267
296.87
296.49
296.125
295.776
295.444
295.127
294.825
294.539
294.268
294.013
293.773
293.548
293.338
293.143
292.962
292.797
292.647
292.511
292.389
292.283
292.191
292.113
292.05
292.002
291.968
291.948
291.942
398.227
394.691
391.196
387.763
384.412
381.158
378.012
374.98
372.065
369.267
366.582
364.008
361.539
359.168
356.891
354.701
352.593
350.56
348.599
346.703
344.868
343.091
341.368
339.695
338.069
336.489
334.95
333.452
331.992
330.568
329.179
327.823
326.499
325.207
323.944
322.71
321.504
320.326
319.174
318.048
316.947
315.872
314.82
313.793
312.789
311.808
310.85
309.914
309.001
308.109
307.239
306.39
305.563
304.756
303.97
303.204
302.459
301.733
301.028
300.342
299.675
299.028
298.4
297.791
297.201
296.629
296.076
295.541
295.025
294.526
294.046
293.583
293.138
292.71
292.3
291.907
291.532
291.173
290.831
290.506
290.198
289.906
289.631
289.372
289.129
288.903
288.693
288.498
288.32
288.158
288.012
287.881
287.766
287.667
287.583
287.515
287.463
287.426
287.405
287.399
398.266
394.805
391.377
388.001
384.692
381.464
378.327
375.287
372.349
369.514
366.78
364.145
361.607
359.16
356.8
354.523
352.324
350.198
348.141
346.148
344.216
342.342
340.521
338.75
337.028
335.351
333.718
332.126
330.573
329.057
327.578
326.133
324.722
323.343
321.996
320.679
319.391
318.132
316.901
315.698
314.521
313.371
312.247
311.148
310.074
309.024
307.999
306.998
306.02
305.066
304.134
303.226
302.339
301.476
300.634
299.814
299.015
298.238
297.482
296.748
296.034
295.34
294.667
294.015
293.383
292.77
292.178
291.605
291.051
290.517
290.002
289.506
289.029
288.571
288.132
287.711
287.308
286.923
286.557
286.209
285.878
285.566
285.271
284.993
284.733
284.491
284.265
284.057
283.866
283.692
283.535
283.395
283.272
283.165
283.076
283.003
282.947
282.907
282.884
282.878
398.295
394.888
391.51
388.174
384.895
381.683
378.55
375.5
372.539
369.668
366.888
364.198
361.595
359.077
356.641
354.282
351.997
349.783
347.636
345.551
343.526
341.558
339.643
337.779
335.963
334.194
332.468
330.784
329.141
327.536
325.969
324.437
322.94
321.477
320.046
318.647
317.279
315.941
314.632
313.353
312.101
310.878
309.681
308.511
307.368
306.251
305.159
304.093
303.052
302.035
301.043
300.075
299.131
298.21
297.313
296.439
295.588
294.76
293.955
293.171
292.41
291.671
290.954
290.258
289.584
288.931
288.299
287.689
287.098
286.529
285.98
285.451
284.943
284.454
283.985
283.536
283.107
282.697
282.306
281.935
281.582
281.249
280.934
280.638
280.361
280.102
279.862
279.64
279.436
279.25
279.083
278.934
278.802
278.689
278.593
278.515
278.455
278.413
278.389
278.382
398.315
394.947
391.603
388.295
385.034
381.831
378.695
375.632
372.647
369.741
366.917
364.174
361.511
358.926
356.417
353.982
351.617
349.319
347.085
344.913
342.799
340.741
338.736
336.782
334.876
333.016
331.201
329.429
327.697
326.005
324.351
322.735
321.154
319.607
318.095
316.616
315.168
313.753
312.368
311.013
309.688
308.391
307.124
305.884
304.673
303.489
302.331
301.201
300.097
299.019
297.966
296.94
295.938
294.961
294.01
293.082
292.179
291.301
290.446
289.614
288.807
288.022
287.261
286.523
285.807
285.114
284.443
283.795
283.168
282.563
281.981
281.419
280.879
280.36
279.863
279.386
278.93
278.495
278.08
277.685
277.311
276.957
276.623
276.308
276.014
275.739
275.484
275.248
275.032
274.835
274.657
274.498
274.358
274.238
274.136
274.054
273.99
273.945
273.92
273.912
398.328
394.985
391.663
388.371
385.12
381.918
378.775
375.695
372.684
369.743
366.876
364.082
361.362
358.714
356.136
353.628
351.186
348.809
346.493
344.237
342.038
339.893
337.802
335.76
333.767
331.82
329.918
328.059
326.242
324.465
322.727
321.027
319.364
317.736
316.144
314.585
313.06
311.568
310.108
308.679
307.281
305.913
304.576
303.268
301.989
300.738
299.516
298.322
297.156
296.017
294.905
293.82
292.762
291.73
290.724
289.744
288.789
287.86
286.957
286.078
285.224
284.394
283.589
282.809
282.052
281.319
280.61
279.924
279.261
278.622
278.005
277.411
276.84
276.292
275.765
275.261
274.778
274.318
273.879
273.462
273.066
272.691
272.338
272.005
271.694
271.403
271.133
270.883
270.655
270.446
270.258
270.09
269.942
269.815
269.707
269.62
269.553
269.505
269.478
269.47
398.335
395.006
391.696
388.41
385.161
381.954
378.798
375.698
372.659
369.683
366.773
363.93
361.154
358.445
355.803
353.224
350.709
348.256
345.862
343.525
341.244
339.017
336.841
334.715
332.637
330.606
328.619
326.676
324.776
322.916
321.096
319.314
317.57
315.864
314.193
312.557
310.955
309.388
307.854
306.352
304.882
303.444
302.038
300.662
299.316
298
296.714
295.458
294.23
293.031
291.86
290.718
289.603
288.516
287.457
286.425
285.419
284.441
283.488
282.563
281.663
280.789
279.941
279.118
278.32
277.548
276.8
276.078
275.379
274.705
274.055
273.429
272.827
272.249
271.694
271.162
270.654
270.168
269.706
269.266
268.848
268.454
268.081
267.73
267.402
267.095
266.811
266.548
266.306
266.086
265.888
265.711
265.555
265.421
265.307
265.215
265.144
265.094
265.065
265.057
398.338
395.013
391.705
388.419
385.164
381.946
378.773
375.65
372.581
369.568
366.616
363.724
360.895
358.127
355.421
352.776
350.191
347.664
345.194
342.78
340.42
338.113
335.856
333.648
331.488
329.375
327.307
325.282
323.3
321.359
319.459
317.598
315.775
313.99
312.242
310.531
308.854
307.213
305.606
304.032
302.492
300.985
299.51
298.067
296.656
295.276
293.927
292.608
291.32
290.062
288.833
287.634
286.464
285.323
284.21
283.126
282.07
281.043
280.042
279.07
278.125
277.207
276.316
275.451
274.614
273.802
273.017
272.257
271.523
270.815
270.132
269.475
268.842
268.234
267.651
267.092
266.558
266.048
265.561
265.099
264.66
264.245
263.853
263.485
263.14
262.818
262.518
262.242
261.988
261.757
261.548
261.362
261.199
261.057
260.938
260.841
260.767
260.714
260.684
260.675
398.336
395.009
391.695
388.401
385.134
381.901
378.707
375.557
372.456
369.406
366.411
363.471
360.589
357.764
354.997
352.287
349.634
347.036
344.494
342.005
339.569
337.184
334.848
332.562
330.322
328.129
325.981
323.877
321.815
319.796
317.817
315.878
313.978
312.117
310.294
308.508
306.758
305.044
303.365
301.721
300.112
298.536
296.995
295.486
294.01
292.566
291.155
289.775
288.427
287.11
285.824
284.569
283.344
282.149
280.984
279.849
278.743
277.667
276.62
275.601
274.611
273.649
272.716
271.81
270.933
270.082
269.259
268.464
267.695
266.953
266.237
265.548
264.885
264.248
263.637
263.051
262.491
261.957
261.447
260.962
260.502
260.067
259.657
259.271
258.909
258.571
258.257
257.968
257.702
257.459
257.241
257.046
256.874
256.726
256.601
256.499
256.421
256.366
256.334
256.325
398.331
394.994
391.669
388.361
385.077
381.823
378.605
375.426
372.29
369.202
366.163
363.176
360.241
357.36
354.533
351.761
349.042
346.376
343.763
341.202
338.692
336.232
333.82
331.457
329.14
326.87
324.644
322.462
320.323
318.226
316.171
314.156
312.181
310.245
308.348
306.489
304.667
302.881
301.132
299.419
297.742
296.099
294.491
292.918
291.378
289.872
288.399
286.959
285.552
284.177
282.834
281.524
280.245
278.997
277.78
276.595
275.44
274.315
273.221
272.157
271.123
270.118
269.143
268.196
267.279
266.39
265.53
264.699
263.895
263.119
262.372
261.651
260.958
260.292
259.653
259.041
258.456
257.897
257.364
256.857
256.377
255.922
255.492
255.089
254.71
254.357
254.029
253.726
253.448
253.195
252.966
252.762
252.583
252.428
252.297
252.191
252.109
252.051
252.018
252.008
398.324
394.97
391.628
388.302
384.997
381.718
378.471
375.261
372.09
368.961
365.879
362.843
359.857
356.921
354.036
351.202
348.419
345.686
343.005
340.374
337.792
335.259
332.774
330.336
327.944
325.598
323.296
321.039
318.825
316.653
314.522
312.433
310.384
308.375
306.406
304.475
302.582
300.727
298.909
297.128
295.383
293.674
292.001
290.364
288.761
287.193
285.66
284.161
282.695
281.264
279.865
278.5
277.167
275.867
274.6
273.364
272.161
270.989
269.848
268.739
267.661
266.613
265.596
264.61
263.654
262.727
261.83
260.963
260.125
259.316
258.536
257.785
257.062
256.368
255.702
255.063
254.453
253.869
253.314
252.785
252.284
251.809
251.362
250.94
250.546
250.177
249.835
249.519
249.229
248.965
248.726
248.513
248.326
248.164
248.028
247.917
247.832
247.772
247.737
247.727
398.314
394.94
391.576
388.226
384.896
381.589
378.312
375.067
371.858
368.689
365.562
362.478
359.441
356.45
353.507
350.613
347.767
344.971
342.222
339.523
336.871
334.267
331.71
329.2
326.735
324.315
321.94
319.609
317.321
315.075
312.872
310.71
308.589
306.508
304.468
302.466
300.504
298.58
296.694
294.846
293.036
291.262
289.526
287.825
286.161
284.532
282.939
281.382
279.859
278.371
276.917
275.498
274.113
272.761
271.443
270.158
268.907
267.688
266.502
265.348
264.226
263.137
262.079
261.053
260.058
259.094
258.161
257.258
256.386
255.545
254.733
253.951
253.199
252.476
251.783
251.118
250.483
249.876
249.298
248.748
248.226
247.732
247.266
246.827
246.416
246.033
245.677
245.348
245.046
244.77
244.522
244.301
244.106
243.937
243.795
243.68
243.591
243.528
243.492
243.482
398.301
394.902
391.513
388.137
384.777
381.44
378.129
374.848
371.6
368.389
365.216
362.084
358.996
355.951
352.952
349.998
347.091
344.231
341.418
338.652
335.932
333.259
330.632
328.051
325.515
323.023
320.576
318.173
315.813
313.496
311.221
308.988
306.796
304.645
302.535
300.465
298.434
296.443
294.491
292.577
290.702
288.865
287.065
285.303
283.577
281.889
280.237
278.622
277.043
275.499
273.991
272.519
271.082
269.679
268.311
266.978
265.679
264.414
263.183
261.985
260.821
259.689
258.591
257.525
256.492
255.491
254.522
253.585
252.68
251.806
250.963
250.151
249.369
248.619
247.898
247.208
246.548
245.918
245.317
244.745
244.203
243.69
243.206
242.75
242.324
241.925
241.555
241.213
240.899
240.613
240.355
240.125
239.923
239.748
239.6
239.48
239.388
239.323
239.285
239.274
398.287
394.86
391.442
388.035
384.644
381.273
377.926
374.607
371.319
368.064
364.845
361.665
358.525
355.427
352.372
349.36
346.393
343.471
340.594
337.763
334.977
332.236
329.541
326.891
324.285
321.724
319.207
316.733
314.303
311.915
309.571
307.268
305.007
302.787
300.609
298.471
296.374
294.316
292.299
290.321
288.382
286.482
284.62
282.797
281.012
279.265
277.555
275.883
274.248
272.65
271.089
269.564
268.075
266.623
265.206
263.825
262.479
261.168
259.892
258.651
257.445
256.272
255.134
254.029
252.959
251.921
250.917
249.945
249.006
248.1
247.226
246.385
245.575
244.796
244.049
243.334
242.649
241.996
241.373
240.78
240.218
239.686
239.183
238.711
238.268
237.855
237.471
237.117
236.791
236.495
236.227
235.988
235.778
235.597
235.444
235.32
235.223
235.156
235.117
235.105
398.272
394.813
391.362
387.923
384.497
381.091
377.706
374.347
371.017
367.718
364.453
361.224
358.033
354.882
351.771
348.702
345.676
342.693
339.753
336.858
334.008
331.201
328.439
325.721
323.048
320.418
317.832
315.29
312.791
310.335
307.922
305.551
303.222
300.935
298.69
296.486
294.323
292.201
290.119
288.078
286.076
284.115
282.192
280.309
278.466
276.661
274.894
273.166
271.476
269.825
268.21
266.634
265.095
263.593
262.127
260.699
259.307
257.951
256.631
255.348
254.099
252.886
251.709
250.566
249.458
248.384
247.345
246.339
245.368
244.43
243.525
242.654
241.816
241.01
240.237
239.496
238.788
238.111
237.466
236.853
236.27
235.72
235.2
234.711
234.252
233.825
233.427
233.06
232.723
232.416
232.139
231.892
231.674
231.486
231.328
231.199
231.099
231.029
230.989
230.977
398.255
394.762
391.277
387.801
384.34
380.895
377.471
374.071
370.698
367.354
364.042
360.764
357.522
354.317
351.152
348.026
344.941
341.899
338.898
335.94
333.026
330.155
327.328
324.544
321.804
319.108
316.455
313.845
311.279
308.756
306.276
303.838
301.443
299.09
296.78
294.511
292.283
290.098
287.953
285.849
283.786
281.764
279.782
277.841
275.939
274.077
272.255
270.472
268.728
267.023
265.357
263.73
262.141
260.59
259.077
257.602
256.164
254.764
253.401
252.075
250.786
249.533
248.316
247.135
245.99
244.881
243.807
242.768
241.765
240.795
239.861
238.96
238.094
237.261
236.462
235.697
234.964
234.265
233.598
232.964
232.363
231.793
231.256
230.75
230.276
229.834
229.423
229.044
228.695
228.378
228.092
227.836
227.611
227.417
227.253
227.12
227.017
226.944
226.902
226.89
398.237
394.707
391.186
387.673
384.173
380.688
377.224
373.781
370.364
366.974
363.615
360.288
356.994
353.737
350.517
347.335
344.193
341.091
338.03
335.011
332.034
329.1
326.209
323.361
320.556
317.794
315.076
312.4
309.768
307.18
304.634
302.131
299.671
297.253
294.878
292.546
290.256
288.007
285.801
283.636
281.513
279.431
277.391
275.391
273.433
271.515
269.637
267.8
266.004
264.247
262.53
260.852
259.214
257.615
256.056
254.535
253.052
251.608
250.202
248.835
247.505
246.212
244.957
243.739
242.558
241.414
240.306
239.234
238.198
237.198
236.234
235.304
234.41
233.551
232.727
231.936
231.18
230.459
229.771
229.116
228.495
227.907
227.353
226.831
226.342
225.885
225.461
225.069
224.71
224.382
224.086
223.822
223.59
223.39
223.22
223.083
222.977
222.902
222.858
222.846
398.217
394.65
391.09
387.537
383.997
380.472
376.965
373.479
370.017
366.581
363.174
359.797
356.452
353.142
349.868
346.631
343.432
340.272
337.152
334.073
331.035
328.039
325.085
322.173
319.305
316.479
313.696
310.957
308.26
305.607
302.997
300.43
297.906
295.425
292.988
290.593
288.241
285.931
283.664
281.439
279.257
277.117
275.019
272.963
270.948
268.975
267.044
265.154
263.305
261.496
259.729
258.002
256.316
254.67
253.064
251.498
249.971
248.484
247.036
245.627
244.257
242.926
241.633
240.378
239.162
237.982
236.841
235.737
234.669
233.639
232.645
231.687
230.766
229.88
229.031
228.216
227.437
226.693
225.984
225.309
224.669
224.064
223.492
222.954
222.45
221.979
221.542
221.138
220.767
220.429
220.125
219.852
219.613
219.406
219.232
219.09
218.98
218.903
218.858
218.845
398.198
394.59
390.989
387.397
383.815
380.248
376.697
373.167
369.659
366.176
362.72
359.294
355.899
352.536
349.208
345.916
342.66
339.443
336.265
333.126
330.028
326.971
323.956
320.983
318.052
315.163
312.318
309.515
306.755
304.039
301.366
298.737
296.151
293.608
291.108
288.652
286.239
283.87
281.543
279.26
277.02
274.822
272.667
270.555
268.486
266.459
264.474
262.532
260.631
258.773
256.956
255.181
253.447
251.754
250.103
248.492
246.922
245.393
243.903
242.454
241.045
239.675
238.345
237.054
235.802
234.589
233.414
232.277
231.179
230.118
229.096
228.11
227.162
226.25
225.376
224.537
223.736
222.97
222.24
221.545
220.886
220.263
219.674
219.12
218.601
218.117
217.667
217.251
216.869
216.521
216.207
215.927
215.68
215.467
215.288
215.141
215.029
214.949
214.903
214.889
398.177
394.528
390.886
387.251
383.627
380.016
376.422
372.846
369.292
365.762
362.257
358.781
355.335
351.92
348.539
345.192
341.881
338.607
335.371
332.174
329.017
325.901
322.825
319.791
316.798
313.849
310.941
308.077
305.256
302.478
299.743
297.052
294.405
291.801
289.241
286.725
284.253
281.824
279.44
277.099
274.801
272.547
270.337
268.17
266.047
263.967
261.93
259.936
257.985
256.077
254.212
252.389
250.608
248.87
247.174
245.519
243.906
242.335
240.805
239.316
237.868
236.46
235.093
233.767
232.48
231.233
230.025
228.857
227.728
226.638
225.587
224.574
223.599
222.662
221.763
220.901
220.076
219.289
218.538
217.824
217.147
216.506
215.9
215.331
214.797
214.299
213.836
213.408
213.016
212.658
212.335
212.047
211.793
211.574
211.389
211.239
211.123
211.041
210.993
210.979
398.156
394.464
390.78
387.102
383.434
379.779
376.14
372.518
368.917
365.339
361.786
358.26
354.763
351.296
347.861
344.461
341.095
337.765
334.473
331.218
328.003
324.828
321.693
318.599
315.546
312.536
309.569
306.644
303.762
300.923
298.128
295.377
292.67
290.007
287.388
284.813
282.282
279.796
277.354
274.956
272.603
270.294
268.029
265.809
263.632
261.5
259.412
257.368
255.367
253.41
251.497
249.627
247.801
246.017
244.277
242.579
240.924
239.312
237.742
236.213
234.727
233.283
231.879
230.517
229.196
227.916
226.677
225.478
224.318
223.199
222.119
221.079
220.078
219.116
218.193
217.308
216.461
215.652
214.881
214.148
213.452
212.793
212.172
211.587
211.039
210.527
210.052
209.612
209.209
208.841
208.51
208.214
207.953
207.728
207.538
207.384
207.264
207.18
207.131
207.117
398.134
394.399
390.671
386.949
383.237
379.537
375.852
372.184
368.536
364.91
361.308
357.732
354.184
350.665
347.178
343.724
340.304
336.919
333.57
330.259
326.987
323.754
320.561
317.408
314.297
311.228
308.201
305.216
302.275
299.377
296.523
293.713
290.947
288.225
285.548
282.916
280.328
277.785
275.287
272.834
270.426
268.062
265.744
263.471
261.242
259.059
256.92
254.826
252.777
250.772
248.812
246.896
245.025
243.197
241.413
239.673
237.977
236.324
234.714
233.148
231.624
230.143
228.704
227.307
225.953
224.64
223.369
222.139
220.95
219.802
218.694
217.627
216.601
215.614
214.666
213.758
212.89
212.06
211.269
210.517
209.803
209.127
208.489
207.889
207.327
206.802
206.314
205.863
205.449
205.072
204.732
204.428
204.161
203.929
203.735
203.576
203.454
203.367
203.317
203.302
398.112
394.333
390.56
386.794
383.037
379.291
375.56
371.846
368.15
364.476
360.825
357.199
353.6
350.03
346.491
342.983
339.509
336.07
332.666
329.3
325.971
322.681
319.43
316.22
313.051
309.924
306.839
303.796
300.797
297.841
294.929
292.061
289.237
286.458
283.724
281.035
278.391
275.793
273.24
270.732
268.27
265.854
263.483
261.158
258.878
256.645
254.456
252.314
250.217
248.165
246.159
244.197
242.281
240.41
238.584
236.802
235.065
233.372
231.724
230.119
228.558
227.041
225.567
224.137
222.749
221.404
220.102
218.842
217.624
216.447
215.313
214.219
213.167
212.156
211.185
210.254
209.364
208.514
207.703
206.932
206.201
205.508
204.854
204.239
203.663
203.124
202.624
202.162
201.738
201.351
201.002
200.691
200.417
200.18
199.98
199.817
199.692
199.603
199.551
199.536
398.09
394.266
390.448
386.636
382.834
379.042
375.265
371.503
367.76
364.037
360.337
356.662
353.013
349.392
345.8
342.24
338.713
335.22
331.762
328.34
324.956
321.61
318.303
315.037
311.811
308.626
305.484
302.385
299.328
296.315
293.346
290.421
287.541
284.706
281.916
279.172
276.473
273.82
271.213
268.652
266.137
263.668
261.246
258.87
256.541
254.258
252.021
249.83
247.686
245.588
243.537
241.531
239.571
237.657
235.789
233.967
232.19
230.458
228.771
227.129
225.532
223.979
222.471
221.007
219.587
218.21
216.877
215.587
214.34
213.136
211.975
210.855
209.778
208.743
207.749
206.796
205.885
205.014
204.184
203.395
202.646
201.936
201.267
200.637
200.047
199.495
198.983
198.51
198.076
197.68
197.322
197.003
196.722
196.48
196.275
196.108
195.98
195.889
195.836
195.82
398.067
394.198
390.335
386.477
382.629
378.791
374.967
371.158
367.367
363.596
359.847
356.122
352.423
348.751
345.108
341.496
337.916
334.369
330.858
327.382
323.943
320.542
317.18
313.858
310.576
307.336
304.138
300.982
297.87
294.801
291.776
288.795
285.86
282.97
280.125
277.327
274.574
271.867
269.207
266.594
264.027
261.508
259.035
256.609
254.231
251.899
249.615
247.377
245.187
243.044
240.947
238.898
236.896
234.94
233.03
231.168
229.351
227.581
225.857
224.178
222.545
220.958
219.416
217.919
216.466
215.059
213.696
212.376
211.101
209.87
208.682
207.537
206.435
205.376
204.359
203.385
202.453
201.562
200.713
199.905
199.139
198.413
197.728
197.084
196.48
195.916
195.392
194.908
194.463
194.058
193.692
193.366
193.078
192.83
192.621
192.45
192.318
192.225
192.171
192.155
398.044
394.13
390.221
386.317
382.422
378.538
374.667
370.811
366.972
363.153
359.355
355.581
351.831
348.109
344.415
340.752