/*--------------------------------*- C++ -*----------------------------------*\
  =========                 |
  \\      /  F ield         | OpenFOAM: The Open Source CFD Toolbox
   \\    /   O peration     | Website:  https://openfoam.org
    \\  /    A nd           | Version:  10
     \\/     M anipulation  |
\*---------------------------------------------------------------------------*/
FoamFile
{
    format      ascii;
    class       volScalarField;
    location    "23";
    object      T_0;
}
// * * * * * * * * * * * * * * * * * * * * * * * * * * * * * * * * * * * * * //

dimensions      [0 0 0 1 0 0 0];

internalField   nonuniform List<scalar> 
10000
(
374.975
361.27
356.578
354.515
353.39
352.676
352.175
351.799
351.502
351.259
351.055
350.878
350.724
350.586
350.462
350.348
350.243
350.146
350.055
349.97
349.889
349.812
349.738
349.668
349.601
349.536
349.474
349.413
349.355
349.298
349.244
349.19
349.138
349.088
349.039
348.991
348.945
348.899
348.855
348.812
348.77
348.728
348.688
348.649
348.611
348.574
348.537
348.502
348.467
348.433
348.4
348.368
348.337
348.306
348.277
348.248
348.22
348.192
348.166
348.14
348.115
348.09
348.066
348.044
348.021
348
347.979
347.959
347.939
347.921
347.903
347.885
347.868
347.852
347.837
347.822
347.808
347.795
347.782
347.769
347.758
347.747
347.737
347.727
347.718
347.709
347.701
347.694
347.687
347.681
347.676
347.671
347.667
347.663
347.66
347.657
347.655
347.654
347.653
347.653
388.594
374.801
367.108
362.609
359.763
357.819
356.405
355.321
354.456
353.743
353.14
352.618
352.159
351.75
351.379
351.04
350.727
350.437
350.165
349.909
349.667
349.436
349.217
349.007
348.805
348.611
348.424
348.243
348.068
347.898
347.734
347.574
347.419
347.268
347.121
346.977
346.838
346.702
346.569
346.439
346.313
346.19
346.069
345.952
345.837
345.725
345.616
345.51
345.406
345.304
345.205
345.109
345.015
344.924
344.835
344.748
344.663
344.581
344.501
344.424
344.348
344.275
344.204
344.135
344.069
344.004
343.942
343.881
343.823
343.767
343.713
343.66
343.61
343.562
343.516
343.471
343.429
343.389
343.35
343.314
343.279
343.246
343.215
343.186
343.158
343.133
343.109
343.087
343.067
343.049
343.033
343.018
343.005
342.994
342.984
342.977
342.971
342.967
342.964
342.964
393.197
382.226
374.445
369.049
365.231
362.433
360.302
358.623
357.257
356.116
355.142
354.295
353.545
352.873
352.264
351.705
351.189
350.709
350.259
349.834
349.433
349.051
348.686
348.337
348.002
347.679
347.368
347.067
346.776
346.494
346.221
345.955
345.696
345.445
345.2
344.962
344.729
344.502
344.281
344.065
343.855
343.65
343.449
343.253
343.062
342.876
342.694
342.517
342.344
342.175
342.01
341.85
341.693
341.541
341.392
341.248
341.107
340.97
340.837
340.708
340.582
340.461
340.342
340.228
340.117
340.009
339.905
339.804
339.707
339.614
339.523
339.436
339.353
339.272
339.195
339.121
339.051
338.983
338.919
338.858
338.8
338.746
338.694
338.645
338.6
338.557
338.518
338.481
338.448
338.418
338.39
338.366
338.344
338.325
338.31
338.297
338.287
338.28
338.276
338.275
395.172
386.459
379.396
373.912
369.681
366.379
363.751
361.612
359.834
358.324
357.02
355.875
354.856
353.937
353.1
352.331
351.619
350.954
350.33
349.741
349.182
348.651
348.144
347.657
347.19
346.74
346.306
345.887
345.48
345.087
344.704
344.333
343.972
343.621
343.278
342.945
342.62
342.303
341.994
341.692
341.398
341.111
340.83
340.557
340.289
340.029
339.774
339.526
339.284
339.048
338.817
338.593
338.374
338.161
337.953
337.751
337.554
337.363
337.176
336.996
336.82
336.649
336.484
336.323
336.168
336.018
335.872
335.731
335.595
335.464
335.338
335.216
335.099
334.987
334.879
334.776
334.677
334.583
334.493
334.407
334.326
334.25
334.177
334.109
334.046
333.986
333.931
333.88
333.833
333.791
333.752
333.718
333.688
333.662
333.64
333.622
333.608
333.599
333.593
333.591
396.208
389.039
382.771
377.523
373.204
369.653
366.712
364.244
362.144
360.33
358.742
357.333
356.069
354.922
353.873
352.904
352.004
351.162
350.37
349.621
348.91
348.233
347.585
346.964
346.367
345.791
345.236
344.698
344.178
343.674
343.184
342.708
342.245
341.794
341.355
340.927
340.51
340.103
339.707
339.319
338.942
338.573
338.213
337.861
337.518
337.184
336.857
336.538
336.227
335.924
335.628
335.339
335.058
334.784
334.518
334.258
334.005
333.759
333.52
333.288
333.062
332.843
332.63
332.424
332.224
332.031
331.844
331.663
331.489
331.32
331.158
331.001
330.851
330.707
330.568
330.435
330.309
330.187
330.072
329.962
329.858
329.76
329.667
329.579
329.498
329.421
329.35
329.285
329.225
329.17
329.12
329.076
329.038
329.004
328.976
328.953
328.935
328.923
328.916
328.914
396.833
390.717
385.127
380.206
375.959
372.32
369.2
366.51
364.169
362.113
360.287
358.65
357.168
355.814
354.568
353.414
352.336
351.325
350.372
349.469
348.61
347.791
347.006
346.253
345.528
344.829
344.154
343.501
342.868
342.254
341.658
341.078
340.514
339.965
339.43
338.908
338.4
337.904
337.42
336.947
336.486
336.037
335.597
335.169
334.75
334.341
333.943
333.554
333.174
332.804
332.442
332.09
331.747
331.413
331.087
330.77
330.461
330.161
329.869
329.585
329.31
329.042
328.783
328.531
328.287
328.051
327.823
327.602
327.389
327.183
326.985
326.794
326.61
326.434
326.264
326.102
325.947
325.8
325.659
325.525
325.397
325.277
325.164
325.057
324.957
324.864
324.777
324.697
324.624
324.557
324.496
324.443
324.395
324.354
324.32
324.292
324.27
324.255
324.247
324.244
397.246
391.867
386.816
382.216
378.106
374.47
371.263
368.429
365.915
363.668
361.647
359.815
358.142
356.603
355.178
353.851
352.608
351.437
350.331
349.28
348.278
347.321
346.404
345.522
344.672
343.853
343.06
342.293
341.549
340.827
340.125
339.443
338.779
338.132
337.502
336.887
336.288
335.704
335.133
334.576
334.033
333.502
332.984
332.478
331.985
331.503
331.032
330.573
330.125
329.688
329.262
328.847
328.442
328.047
327.663
327.288
326.924
326.57
326.225
325.89
325.565
325.249
324.942
324.645
324.358
324.079
323.809
323.549
323.297
323.054
322.82
322.594
322.378
322.169
321.97
321.778
321.595
321.421
321.254
321.096
320.946
320.804
320.67
320.544
320.426
320.316
320.213
320.119
320.032
319.953
319.882
319.818
319.763
319.714
319.674
319.641
319.615
319.597
319.587
319.584
397.534
392.686
388.056
383.739
379.782
376.193
372.954
370.033
367.395
365.003
362.824
360.827
358.988
357.284
355.697
354.211
352.814
351.493
350.241
349.049
347.911
346.821
345.775
344.768
343.797
342.859
341.951
341.072
340.219
339.391
338.585
337.802
337.039
336.296
335.571
334.865
334.176
333.503
332.847
332.206
331.581
330.97
330.374
329.792
329.223
328.668
328.127
327.598
327.082
326.579
326.088
325.609
325.143
324.688
324.245
323.814
323.394
322.986
322.589
322.203
321.828
321.464
321.111
320.769
320.437
320.116
319.805
319.505
319.215
318.935
318.665
318.405
318.155
317.915
317.685
317.464
317.253
317.052
316.86
316.678
316.505
316.341
316.187
316.042
315.906
315.779
315.661
315.552
315.452
315.361
315.279
315.206
315.141
315.085
315.039
315.001
314.971
314.951
314.939
314.935
397.743
393.288
388.982
384.903
381.093
377.569
374.329
371.358
368.633
366.129
363.822
361.688
359.705
357.855
356.122
354.491
352.95
351.49
350.1
348.774
347.505
346.288
345.117
343.989
342.9
341.847
340.827
339.838
338.878
337.945
337.037
336.154
335.294
334.455
333.638
332.841
332.062
331.303
330.562
329.838
329.131
328.441
327.767
327.109
326.466
325.839
325.226
324.628
324.045
323.475
322.92
322.379
321.851
321.337
320.836
320.348
319.873
319.411
318.962
318.525
318.101
317.689
317.289
316.902
316.527
316.163
315.812
315.472
315.143
314.826
314.521
314.227
313.944
313.673
313.412
313.162
312.924
312.696
312.479
312.272
312.076
311.891
311.716
311.552
311.398
311.254
311.121
310.998
310.884
310.781
310.688
310.606
310.533
310.47
310.417
310.373
310.34
310.317
310.303
310.3
397.898
393.738
389.685
385.8
382.119
378.664
375.44
372.441
369.655
367.065
364.654
362.403
360.296
358.317
356.452
354.688
353.016
351.424
349.906
348.453
347.059
345.72
344.429
343.184
341.98
340.815
339.685
338.589
337.524
336.489
335.481
334.5
333.543
332.611
331.702
330.814
329.948
329.103
328.277
327.471
326.684
325.915
325.164
324.43
323.714
323.015
322.332
321.665
321.015
320.38
319.761
319.157
318.568
317.994
317.436
316.891
316.362
315.846
315.345
314.858
314.385
313.925
313.479
313.047
312.628
312.223
311.83
311.451
311.084
310.731
310.39
310.062
309.746
309.443
309.152
308.874
308.607
308.353
308.111
307.88
307.662
307.455
307.26
307.077
306.905
306.744
306.595
306.458
306.332
306.217
306.113
306.02
305.939
305.869
305.809
305.761
305.724
305.698
305.683
305.679
398.016
394.079
390.223
386.494
382.923
379.532
376.33
373.316
370.486
367.828
365.331
362.982
360.766
358.673
356.689
354.805
353.011
351.297
349.657
348.084
346.572
345.115
343.709
342.351
341.036
339.762
338.526
337.325
336.158
335.022
333.916
332.838
331.787
330.762
329.762
328.786
327.834
326.903
325.994
325.107
324.24
323.393
322.565
321.757
320.968
320.197
319.444
318.709
317.992
317.292
316.61
315.944
315.295
314.662
314.046
313.446
312.861
312.293
311.74
311.203
310.681
310.174
309.682
309.205
308.743
308.295
307.862
307.444
307.04
306.65
306.274
305.911
305.563
305.229
304.908
304.6
304.306
304.026
303.758
303.504
303.263
303.035
302.82
302.617
302.427
302.25
302.086
301.934
301.795
301.668
301.553
301.451
301.361
301.284
301.218
301.165
301.124
301.096
301.079
301.074
398.105
394.34
390.636
387.031
383.551
380.215
377.035
374.014
371.15
368.437
365.868
363.434
361.124
358.928
356.838
354.843
352.935
351.108
349.354
347.667
346.042
344.473
342.958
341.49
340.068
338.688
337.348
336.046
334.778
333.544
332.341
331.169
330.025
328.909
327.82
326.757
325.718
324.704
323.713
322.745
321.799
320.875
319.972
319.09
318.228
317.386
316.564
315.762
314.979
314.214
313.469
312.741
312.032
311.341
310.668
310.012
309.373
308.752
308.148
307.561
306.99
306.436
305.898
305.377
304.872
304.383
303.91
303.452
303.01
302.584
302.173
301.777
301.396
301.03
300.679
300.343
300.022
299.715
299.423
299.145
298.881
298.632
298.396
298.175
297.968
297.774
297.594
297.428
297.276
297.137
297.012
296.9
296.802
296.717
296.646
296.587
296.543
296.511
296.493
296.488
398.173
394.539
390.953
387.445
384.037
380.748
377.586
374.56
371.668
368.91
366.279
363.771
361.376
359.089
356.901
354.804
352.792
350.859
348.998
347.203
345.471
343.795
342.173
340.601
339.075
337.593
336.152
334.75
333.385
332.054
330.757
329.492
328.258
327.052
325.876
324.726
323.603
322.506
321.434
320.386
319.362
318.362
317.384
316.428
315.495
314.583
313.693
312.824
311.975
311.146
310.338
309.55
308.781
308.032
307.302
306.591
305.898
305.225
304.57
303.933
303.314
302.713
302.13
301.565
301.017
300.486
299.973
299.477
298.997
298.535
298.089
297.659
297.246
296.85
296.469
296.104
295.756
295.423
295.106
294.804
294.518
294.247
293.992
293.752
293.527
293.317
293.122
292.942
292.776
292.626
292.49
292.369
292.262
292.17
292.092
292.029
291.981
291.947
291.927
291.921
398.224
394.691
391.195
387.761
384.41
381.156
378.009
374.977
372.061
369.262
366.577
364.002
361.532
359.161
356.884
354.694
352.585
350.552
348.589
346.693
344.858
343.08
341.357
339.683
338.057
336.476
334.937
333.439
331.978
330.554
329.165
327.808
326.485
325.191
323.928
322.694
321.488
320.309
319.157
318.031
316.93
315.854
314.802
313.774
312.77
311.789
310.831
309.895
308.981
308.09
307.219
306.37
305.543
304.736
303.949
303.184
302.438
301.712
301.007
300.32
299.654
299.007
298.378
297.769
297.179
296.607
296.054
295.519
295.003
294.504
294.024
293.561
293.116
292.688
292.278
291.885
291.509
291.151
290.809
290.484
290.175
289.884
289.608
289.349
289.107
288.881
288.67
288.476
288.298
288.136
287.989
287.858
287.743
287.644
287.561
287.493
287.44
287.404
287.382
287.376
398.263
394.805
391.376
387.999
384.689
381.461
378.323
375.283
372.345
369.509
366.774
364.139
361.6
359.153
356.793
354.515
352.315
350.189
348.131
346.138
344.205
342.33
340.509
338.738
337.015
335.338
333.704
332.112
330.558
329.042
327.563
326.118
324.706
323.327
321.979
320.662
319.374
318.114
316.883
315.68
314.503
313.352
312.228
311.128
310.054
309.004
307.979
306.977
305.999
305.045
304.113
303.204
302.318
301.454
300.612
299.792
298.993
298.216
297.46
296.725
296.011
295.317
294.645
293.992
293.359
292.747
292.154
291.581
291.028
290.494
289.979
289.483
289.006
288.547
288.108
287.687
287.284
286.9
286.533
286.185
285.854
285.542
285.247
284.969
284.709
284.467
284.241
284.033
283.842
283.668
283.511
283.371
283.248
283.141
283.052
282.979
282.923
282.883
282.86
282.854
398.292
394.888
391.509
388.172
384.892
381.68
378.546
375.496
372.534
369.662
366.882
364.191
361.588
359.069
356.632
354.273
351.988
349.773
347.625
345.54
343.515
341.546
339.63
337.766
335.95
334.18
332.454
330.769
329.126
327.52
325.952
324.42
322.923
321.459
320.028
318.629
317.26
315.922
314.613
313.333
312.081
310.857
309.661
308.491
307.347
306.23
305.138
304.071
303.03
302.013
301.021
300.052
299.108
298.187
297.29
296.416
295.565
294.737
293.931
293.147
292.386
291.647
290.93
290.234
289.56
288.907
288.275
287.664
287.074
286.504
285.955
285.426
284.917
284.429
283.96
283.511
283.081
282.671
282.281
281.909
281.557
281.223
280.909
280.613
280.335
280.077
279.836
279.614
279.41
279.225
279.057
278.908
278.777
278.663
278.568
278.49
278.43
278.388
278.363
278.357
398.312
394.947
391.601
388.292
385.031
381.828
378.691
375.628
372.641
369.735
366.91
364.167
361.503
358.918
356.408
353.972
351.607
349.308
347.074
344.901
342.787
340.728
338.723
336.768
334.861
333.001
331.186
329.413
327.681
325.988
324.334
322.717
321.136
319.589
318.076
316.596
315.149
313.733
312.347
310.992
309.666
308.37
307.102
305.862
304.651
303.466
302.309
301.178
300.073
298.995
297.942
296.915
295.914
294.937
293.985
293.058
292.154
291.275
290.42
289.589
288.781
287.997
287.235
286.497
285.781
285.088
284.417
283.768
283.142
282.537
281.954
281.392
280.852
280.334
279.836
279.359
278.903
278.468
278.053
277.658
277.284
276.93
276.596
276.281
275.987
275.712
275.457
275.221
275.005
274.807
274.63
274.471
274.331
274.211
274.109
274.027
273.963
273.918
273.892
273.885
398.325
394.985
391.661
388.369
385.117
381.915
378.771
375.69
372.678
369.737
366.869
364.075
361.353
358.705
356.127
353.618
351.176
348.797
346.481
344.225
342.025
339.88
337.787
335.745
333.751
331.804
329.902
328.042
326.224
324.447
322.709
321.008
319.344
317.717
316.124
314.565
313.04
311.547
310.086
308.657
307.259
305.891
304.553
303.244
301.965
300.714
299.492
298.298
297.131
295.992
294.88
293.795
292.736
291.704
290.698
289.718
288.763
287.834
286.93
286.051
285.197
284.367
283.562
282.781
282.024
281.291
280.582
279.896
279.233
278.594
277.977
277.383
276.812
276.263
275.737
275.232
274.75
274.29
273.851
273.433
273.037
272.663
272.309
271.977
271.665
271.374
271.104
270.855
270.626
270.417
270.229
270.061
269.914
269.786
269.679
269.591
269.524
269.477
269.449
269.442
398.332
395.006
391.694
388.408
385.157
381.95
378.794
375.693
372.653
369.676
366.766
363.922
361.146
358.436
355.793
353.214
350.698
348.244
345.849
343.512
341.23
339.002
336.826
334.699
332.621
330.589
328.602
326.659
324.757
322.897
321.076
319.295
317.55
315.843
314.172
312.535
310.934
309.366
307.831
306.329
304.859
303.421
302.013
300.637
299.291
297.975
296.689
295.432
294.204
293.005
291.834
290.691
289.576
288.489
287.43
286.397
285.391
284.413
283.46
282.534
281.634
280.76
279.912
279.089
278.291
277.519
276.771
276.048
275.35
274.676
274.026
273.4
272.798
272.219
271.664
271.133
270.624
270.139
269.676
269.236
268.819
268.424
268.051
267.7
267.372
267.065
266.781
266.517
266.276
266.056
265.858
265.681
265.525
265.391
265.277
265.185
265.114
265.064
265.035
265.027
398.335
395.013
391.703
388.416
385.16
381.942
378.768
375.644
372.574
369.561
366.608
363.716
360.886
358.117
355.411
352.765
350.179
347.652
345.181
342.767
340.406
338.098
335.84
333.632
331.472
329.358
327.289
325.263
323.281
321.339
319.439
317.577
315.754
313.969
312.22
310.508
308.831
307.19
305.582
304.008
302.468
300.96
299.485
298.042
296.63
295.25
293.9
292.581
291.293
290.034
288.805
287.606
286.435
285.294
284.181
283.097
282.041
281.013
280.013
279.04
278.095
277.177
276.286
275.421
274.583
273.771
272.986
272.226
271.492
270.784
270.101
269.444
268.811
268.203
267.62
267.061
266.526
266.016
265.53
265.068
264.629
264.214
263.822
263.453
263.108
262.786
262.487
262.21
261.956
261.725
261.517
261.331
261.167
261.026
260.907
260.81
260.735
260.682
260.652
260.643
398.333
395.008
391.693
388.399
385.131
381.897
378.702
375.551
372.449
369.399
366.403
363.462
360.579
357.754
354.986
352.275
349.621
347.023
344.48
341.991
339.554
337.168
334.832
332.545
330.305
328.111
325.962
323.857
321.795
319.775
317.796
315.856
313.956
312.095
310.271
308.484
306.734
305.019
303.34
301.696
300.086
298.51
296.968
295.459
293.982
292.539
291.127
289.747
288.398
287.081
285.795
284.539
283.314
282.119
280.954
279.819
278.713
277.636
276.589
275.57
274.58
273.618
272.684
271.779
270.901
270.05
269.227
268.432
267.663
266.92
266.205
265.516
264.853
264.215
263.604
263.019
262.459
261.924
261.414
260.929
260.47
260.034
259.624
259.238
258.876
258.538
258.224
257.934
257.668
257.426
257.208
257.013
256.841
256.693
256.568
256.466
256.388
256.333
256.301
256.292
398.328
394.993
391.667
388.358
385.074
381.819
378.599
375.42
372.284
369.194
366.155
363.167
360.231
357.35
354.522
351.749
349.029
346.362
343.749
341.187
338.676
336.215
333.803
331.439
329.122
326.851
324.624
322.442
320.302
318.205
316.149
314.134
312.158
310.222
308.324
306.464
304.642
302.856
301.106
299.393
297.715
296.072
294.464
292.89
291.349
289.843
288.37
286.929
285.522
284.147
282.804
281.493
280.214
278.966
277.749
276.563
275.408
274.283
273.189
272.125
271.09
270.085
269.11
268.163
267.246
266.357
265.497
264.665
263.861
263.086
262.338
261.617
260.924
260.258
259.619
259.007
258.422
257.863
257.33
256.823
256.342
255.887
255.458
255.054
254.676
254.323
253.995
253.692
253.414
253.16
252.932
252.728
252.548
252.393
252.263
252.156
252.074
252.017
251.983
251.974
398.321
394.97
391.626
388.299
384.993
381.714
378.466
375.254
372.083
368.954
365.87
362.834
359.847
356.91
354.024
351.189
348.405
345.672
342.99
340.358
337.776
335.242
332.756
330.317
327.925
325.578
323.276
321.018
318.803
316.63
314.5
312.41
310.36
308.351
306.381
304.449
302.556
300.7
298.882
297.1
295.355
293.646
291.972
290.335
288.732
287.163
285.63
284.13
282.664
281.232
279.833
278.468
277.135
275.835
274.567
273.331
272.127
270.955
269.815
268.705
267.627
266.579
265.562
264.576
263.619
262.692
261.796
260.928
260.09
259.281
258.501
257.75
257.027
256.333
255.666
255.028
254.417
253.834
253.278
252.75
252.248
251.774
251.326
250.905
250.51
250.142
249.799
249.483
249.193
248.929
248.69
248.477
248.29
248.129
247.992
247.881
247.796
247.736
247.701
247.691
398.31
394.939
391.574
388.223
384.892
381.585
378.306
375.06
371.851
368.681
365.553
362.468
359.43
356.439
353.495
350.6
347.753
344.956
342.207
339.507
336.854
334.25
331.692
329.18
326.715
324.295
321.919
319.587
317.298
315.052
312.848
310.686
308.564
306.483
304.442
302.44
300.477
298.553
296.666
294.818
293.007
291.233
289.496
287.795
286.13
284.501
282.908
281.35
279.827
278.338
276.884
275.465
274.079
272.727
271.409
270.124
268.872
267.653
266.467
265.313
264.191
263.101
262.043
261.017
260.022
259.058
258.124
257.222
256.35
255.508
254.696
253.915
253.162
252.44
251.746
251.082
250.446
249.839
249.261
248.711
248.189
247.695
247.229
246.79
246.379
245.996
245.639
245.31
245.008
244.733
244.485
244.263
244.068
243.9
243.758
243.643
243.554
243.491
243.455
243.444
398.298
394.902
391.511
388.133
384.773
381.435
378.123
374.841
371.592
368.38
365.207
362.074
358.985
355.939
352.939
349.985
347.077
344.216
341.402
338.635
335.915
333.241
330.613
328.031
325.494
323.002
320.554
318.15
315.79
313.472
311.196
308.963
306.77
304.619
302.508
300.437
298.406
296.414
294.462
292.548
290.672
288.834
287.034
285.271
283.546
281.857
280.205
278.589
277.009
275.466
273.957
272.485
271.047
269.644
268.276
266.943
265.643
264.378
263.147
261.949
260.784
259.653
258.554
257.488
256.455
255.454
254.485
253.548
252.642
251.768
250.925
250.113
249.331
248.581
247.86
247.17
246.51
245.879
245.278
244.707
244.165
243.652
243.167
242.712
242.285
241.887
241.516
241.175
240.861
240.575
240.317
240.087
239.884
239.709
239.562
239.442
239.349
239.284
239.246
239.235
398.284
394.859
391.439
388.031
384.64
381.268
377.92
374.6
371.311
368.055
364.836
361.655
358.514
355.415
352.359
349.346
346.378
343.455
340.578
337.745
334.959
332.217
329.521
326.87
324.264
321.702
319.184
316.71
314.279
311.891
309.545
307.242
304.98
302.76
300.581
298.443
296.345
294.287
292.269
290.29
288.351
286.45
284.588
282.764
280.979
279.232
277.522
275.849
274.214
272.615
271.054
269.528
268.039
266.587
265.169
263.788
262.442
261.131
259.855
258.614
257.407
256.234
255.096
253.991
252.92
251.882
250.878
249.906
248.967
248.061
247.187
246.345
245.535
244.757
244.01
243.294
242.61
241.956
241.333
240.74
240.178
239.646
239.144
238.671
238.229
237.815
237.432
237.077
236.751
236.455
236.187
235.949
235.738
235.557
235.404
235.28
235.184
235.116
235.077
235.065
398.268
394.812
391.36
387.919
384.493
381.085
377.7
374.34
371.009
367.709
364.443
361.213
358.021
354.869
351.757
348.687
345.66
342.676
339.736
336.84
333.989
331.181
328.419
325.7
323.026
320.395
317.809
315.266
312.766
310.309
307.895
305.524
303.195
300.907
298.661
296.457
294.293
292.17
290.088
288.046
286.044
284.082
282.159
280.276
278.431
276.626
274.859
273.131
271.441
269.788
268.174
266.597
265.058
263.555
262.09
260.661
259.269
257.913
256.593
255.309
254.06
252.847
251.669
250.526
249.418
248.344
247.305
246.299
245.327
244.389
243.485
242.614
241.775
240.969
240.196
239.455
238.747
238.07
237.425
236.811
236.229
235.678
235.159
234.67
234.211
233.783
233.386
233.019
232.682
232.375
232.098
231.85
231.633
231.445
231.287
231.158
231.058
230.988
230.947
230.936
398.251
394.761
391.274
387.798
384.335
380.89
377.465
374.064
370.69
367.345
364.032
360.753
357.51
354.304
351.138
348.011
344.926
341.882
338.88
335.922
333.007
330.135
327.307
324.522
321.781
319.084
316.431
313.82
311.253
308.73
306.249
303.81
301.415
299.061
296.75
294.48
292.252
290.066
287.921
285.817
283.753
281.73
279.748
277.806
275.904
274.041
272.219
270.435
268.691
266.986
265.32
263.692
262.102
260.551
259.038
257.563
256.125
254.725
253.361
252.035
250.745
249.492
248.275
247.094
245.949
244.84
243.766
242.727
241.723
240.754
239.819
238.918
238.052
237.219
236.42
235.655
234.922
234.223
233.556
232.922
232.32
231.751
231.213
230.708
230.234
229.792
229.381
229.001
228.653
228.336
228.049
227.793
227.568
227.374
227.21
227.077
226.974
226.902
226.86
226.847
398.233
394.706
391.183
387.669
384.168
380.683
377.217
373.774
370.355
366.965
363.604
360.276
356.982
353.723
350.502
347.319
344.176
341.074
338.012
334.992
332.015
329.08
326.187
323.338
320.533
317.77
315.051
312.375
309.742
307.152
304.606
302.102
299.641
297.223
294.848
292.515
290.224
287.975
285.768
283.602
281.479
279.397
277.356
275.356
273.397
271.478
269.6
267.763
265.966
264.208
262.491
260.813
259.175
257.576
256.016
254.494
253.012
251.567
250.161
248.793
247.463
246.171
244.915
243.697
242.516
241.371
240.263
239.191
238.155
237.155
236.191
235.261
234.367
233.508
232.683
231.893
231.137
230.415
229.727
229.073
228.452
227.864
227.309
226.787
226.298
225.842
225.418
225.026
224.666
224.338
224.043
223.779
223.546
223.346
223.177
223.039
222.933
222.858
222.814
222.802
398.214
394.649
391.087
387.534
383.993
380.466
376.958
373.471
370.008
366.571
363.163
359.785
356.439
353.128
349.853
346.615
343.415
340.254
337.133
334.053
331.014
328.017
325.062
322.15
319.281
316.454
313.67
310.93
308.233
305.579
302.968
300.401
297.876
295.395
292.956
290.561
288.208
285.898
283.63
281.405
279.222
277.081
274.983
272.926
270.911
268.938
267.006
265.115
263.266
261.457
259.689
257.962
256.276
254.629
253.023
251.456
249.929
248.442
246.994
245.585
244.215
242.883
241.59
240.335
239.118
237.939
236.797
235.693
234.625
233.595
232.601
231.643
230.722
229.836
228.986
228.172
227.393
226.649
225.939
225.265
224.625
224.019
223.447
222.909
222.405
221.934
221.497
221.093
220.722
220.385
220.08
219.807
219.568
219.361
219.187
219.045
218.935
218.858
218.813
218.8
398.194
394.589
390.987
387.393
383.81
380.242
376.69
373.159
369.65
366.166
362.709
359.282
355.885
352.522
349.193
345.899
342.643
339.425
336.246
333.106
330.007
326.949
323.933
320.959
318.027
315.138
312.291
309.488
306.727
304.01
301.337
298.706
296.12
293.576
291.076
288.619
286.206
283.835
281.508
279.224
276.983
274.785
272.63
270.518
268.448
266.42
264.435
262.492
260.591
258.733
256.915
255.14
253.406
251.713
250.061
248.45
246.879
245.35
243.86
242.411
241.001
239.631
238.301
237.01
235.757
234.544
233.369
232.232
231.134
230.073
229.05
228.065
227.116
226.205
225.33
224.492
223.69
222.924
222.194
221.499
220.84
220.217
219.628
219.074
218.555
218.071
217.62
217.205
216.823
216.475
216.161
215.881
215.634
215.421
215.242
215.095
214.983
214.903
214.857
214.843
398.174
394.527
390.883
387.247
383.622
380.01
376.415
372.838
369.283
365.751
362.246
358.768
355.321
351.905
348.523
345.175
341.863
338.588
335.351
332.154
328.996
325.878
322.801
319.766
316.773
313.822
310.914
308.049
305.227
302.448
299.713
297.021
294.373
291.769
289.208
286.691
284.218
281.789
279.404
277.062
274.764
272.51
270.299
268.132
266.008
263.927
261.89
259.896
257.944
256.036
254.17
252.347
250.566
248.827
247.13
245.476
243.862
242.291
240.76
239.271
237.823
236.415
235.048
233.721
232.434
231.187
229.98
228.811
227.682
226.592
225.54
224.527
223.552
222.615
221.716
220.854
220.029
219.242
218.491
217.777
217.1
216.458
215.853
215.284
214.75
214.252
213.789
213.361
212.969
212.611
212.288
212
211.746
211.527
211.342
211.192
211.076
210.994
210.946
210.932
398.152
394.463
390.777
387.098
383.429
379.773
376.132
372.51
368.908
365.328
361.774
358.247
354.749
351.281
347.845
344.443
341.077
337.746
334.452
331.197
327.981
324.804
321.669
318.574
315.521
312.509
309.541
306.615
303.732
300.893
298.097
295.345
292.637
289.973
287.354
284.778
282.247
279.76
277.317
274.919
272.565
270.255
267.99
265.769
263.592
261.459
259.371
257.326
255.325
253.368
251.454
249.584
247.757
245.973
244.232
242.535
240.879
239.267
237.696
236.168
234.681
233.236
231.833
230.471
229.15
227.869
226.63
225.43
224.271
223.152
222.072
221.032
220.03
219.068
218.145
217.26
216.413
215.604
214.833
214.1
213.404
212.745
212.124
211.539
210.99
210.479
210.003
209.564
209.161
208.793
208.461
208.165
207.905
207.68
207.49
207.335
207.216
207.132
207.083
207.068
398.131
394.398
390.668
386.945
383.232
379.531
375.844
372.176
368.526
364.899
361.296
357.719
354.17
350.65
347.162
343.706
340.285
336.899
333.55
330.238
326.964
323.73
320.536
317.383
314.271
311.2
308.172
305.187
302.245
299.346
296.491
293.68
290.914
288.191
285.513
282.88
280.292
277.748
275.249
272.795
270.387
268.023
265.704
263.43
261.201
259.017
256.878
254.784
252.734
250.729
248.768
246.852
244.98
243.152
241.368
239.628
237.931
236.278
234.668
233.101
231.577
230.095
228.656
227.26
225.905
224.592
223.32
222.09
220.901
219.753
218.646
217.579
216.552
215.565
214.617
213.709
212.841
212.011
211.22
210.468
209.754
209.078
208.44
207.84
207.277
206.752
206.264
205.814
205.4
205.023
204.682
204.379
204.111
203.88
203.685
203.527
203.404
203.318
203.267
203.252
398.109
394.332
390.557
386.79
383.031
379.285
375.552
371.837
368.14
364.464
360.812
357.185
353.585
350.014
346.474
342.965
339.49
336.05
332.645
329.277
325.948
322.657
319.405
316.194
313.024
309.896
306.81
303.766
300.766
297.809
294.896
292.027
289.203
286.423
283.688
280.999
278.354
275.755
273.201
270.693
268.23
265.813
263.442
261.116
258.836
256.602
254.413
252.27
250.173
248.121
246.114
244.152
242.236
240.364
238.538
236.756
235.018
233.325
231.676
230.071
228.51
226.993
225.519
224.088
222.7
221.355
220.053
218.792
217.574
216.398
215.263
214.169
213.117
212.106
211.135
210.204
209.314
208.464
207.653
206.882
206.15
205.458
204.804
204.189
203.612
203.074
202.574
202.112
201.687
201.301
200.952
200.64
200.366
200.129
199.929
199.767
199.641
199.553
199.501
199.485
398.086
394.265
390.445
386.632
382.828
379.036
375.257
371.494
367.75
364.026
360.325
356.648
352.998
349.375
345.783
342.222
338.693
335.199
331.74
328.317
324.932
321.585
318.277
315.01
311.783
308.598
305.455
302.354
299.297
296.283
293.313
290.387
287.506
284.67
281.88
279.135
276.435
273.781
271.174
268.612
266.096
263.627
261.204
258.828
256.498
254.214
251.977
249.786
247.641
245.543
243.491
241.485
239.525
237.611
235.742
233.919
232.142
230.41
228.723
227.08
225.483
223.93
222.422
220.957
219.537
218.16
216.827
215.537
214.29
213.086
211.924
210.805
209.727
208.692
207.698
206.745
205.834
204.963
204.133
203.344
202.594
201.885
201.215
200.586
199.995
199.444
198.932
198.458
198.024
197.628
197.271
196.952
196.671
196.428
196.223
196.057
195.928
195.837
195.784
195.768
398.064
394.197
390.332
386.473
382.623
378.784
374.959
371.149
367.357
363.584
359.834
356.108
352.407
348.734
345.09
341.477
337.896
334.348
330.836
327.359
323.919
320.517
317.154
313.831
310.548
307.307
304.108
300.951
297.837
294.768
291.742
288.761
285.825
282.934
280.088
277.289
274.535
271.828
269.167
266.553
263.986
261.466
258.992
256.566
254.187
251.855
249.57
247.332
245.141
242.997
240.901
238.851
236.848
234.892
232.982
231.119
229.302
227.532
225.807
224.128
222.495
220.908
219.365
217.868
216.416
215.008
213.644
212.325
211.05
209.818
208.63
207.485
206.383
205.324
204.307
203.333
202.4
201.51
200.661
199.853
199.087
198.361
197.676
197.032
196.427
195.863
195.339
194.855
194.411
194.005
193.64
193.313
193.026
192.777
192.568
192.397
192.266
192.173
192.118
192.102
398.041
394.128
390.217
386.313
382.417
378.531
374.659
370.801
366.962
363.141
359.342
355.566
351.816
348.092
344.397
340.732
337.099
333.499
329.933