/*--------------------------------*- C++ -*----------------------------------*\
  =========                 |
  \\      /  F ield         | OpenFOAM: The Open Source CFD Toolbox
   \\    /   O peration     | Website:  https://openfoam.org
    \\  /    A nd           | Version:  10
     \\/     M anipulation  |
\*---------------------------------------------------------------------------*/
FoamFile
{
    format      ascii;
    class       volScalarField;
    location    "8.7";
    object      T_0;
}
// * * * * * * * * * * * * * * * * * * * * * * * * * * * * * * * * * * * * * //

dimensions      [0 0 -1 0 0 0 0];

internalField   nonuniform List<scalar> 
100
(
-0.0381589
-0.113124
-0.184082
-0.248518
-0.304151
-0.349009
-0.381503
-0.400482
-0.405274
-0.395709
-0.372126
-0.33536
-0.286713
-0.22791
-0.161033
-0.0884509
-0.0127357
0.0634307
0.13735
0.206404
0.268145
0.320388
0.36128
0.389374
0.403675
0.403675
0.389374
0.36128
0.320387
0.268144
0.206403
0.137349
0.0634294
-0.012737
-0.0884522
-0.161034
-0.227911
-0.286714
-0.33536
-0.372126
-0.395709
-0.405274
-0.400482
-0.381503
-0.349009
-0.30415
-0.248518
-0.184081
-0.113123
-0.038158
0.0381589
0.113124
0.184082
0.248518
0.304151
0.349009
0.381503
0.400482
0.405274
0.395709
0.372126
0.33536
0.286714
0.22791
0.161033
0.0884514
0.0127362
-0.0634302
-0.13735
-0.206403
-0.268145
-0.320388
-0.36128
-0.389374
-0.403675
-0.403675
-0.389374
-0.36128
-0.320387
-0.268145
-0.206403
-0.137349
-0.0634298
0.0127365
0.0884517
0.161033
0.227911
0.286714
0.33536
0.372126
0.395709
0.405274
0.400482
0.381503
0.349008
0.30415
0.248518
0.184081
0.113123
0.0381581
)
;

boundaryField
{
    inlet
    {
        type            cyclic;
    }
    outlet
    {
        type            cyclic;
    }
    bottom
    {
        type            slip;
    }
    top
    {
        type            slip;
    }
    frontAndBack
    {
        type            empty;
    }
}


// ************************************************************************* //
