/*--------------------------------*- C++ -*----------------------------------*\
| =========                 |                                                 |
| \\      /  F ield         | OpenFOAM: The Open Source CFD Toolbox           |
|  \\    /   O peration     | Version:  2406                                  |
|   \\  /    A nd           | Website:  www.openfoam.com                      |
|    \\/     M anipulation  |                                                 |
\*---------------------------------------------------------------------------*/
FoamFile
{
    version     2.0;
    format      ascii;
    arch        "LSB;label=32;scalar=64";
    class       volScalarField;
    location    "2.25";
    object      p;
}
// * * * * * * * * * * * * * * * * * * * * * * * * * * * * * * * * * * * * * //

dimensions      [0 2 -2 0 0 0 0];

internalField   nonuniform List<scalar> 
34560
(
0.33352259
0.33870415
0.34420925
0.35048354
0.3600471
0.37632425
0.39961512
0.42673223
0.45076361
0.30070786
0.30617286
0.31181589
0.31918127
0.33194711
0.35361461
0.38276154
0.41244219
0.43516154
0.29284812
0.29788134
0.30209474
0.30720466
0.3182954
0.34009517
0.37012532
0.39999264
0.42251817
0.29143996
0.2956761
0.29822214
0.30103443
0.30986836
0.33027581
0.35978524
0.38967525
0.41247448
0.29771733
0.30091655
0.30114124
0.30076177
0.30659739
0.32485439
0.35328033
0.38263169
0.40532077
0.3150892
0.31666411
0.31378582
0.30888551
0.30994049
0.32456425
0.35079487
0.3791513
0.40159958
0.33886435
0.33865352
0.33250263
0.32286559
0.31859527
0.32877035
0.35233722
0.37934651
0.40180904
0.36827093
0.36600763
0.35629022
0.34157036
0.33153578
0.3369036
0.35757398
0.38302388
0.40613136
0.40069722
0.39621708
0.38286041
0.36306475
0.3472409
0.34775095
0.36560948
0.3897193
0.41395832
0.4325437
0.42582228
0.40899718
0.38452414
0.36337268
0.35941836
0.37477053
0.39802369
0.42366372
0.45882476
0.45009257
0.43037406
0.40223431
0.37706686
0.36986072
0.38254905
0.4058578
0.43297122
0.47359508
0.46380453
0.44257836
0.41255013
0.38534909
0.3764199
0.38713991
0.41106645
0.43923363
0.47359526
0.46380465
0.44257839
0.41255006
0.38534893
0.37641971
0.38713964
0.41106609
0.43923318
0.45882518
0.45009297
0.4303743
0.40223433
0.37706658
0.36986021
0.38254831
0.40585685
0.43297013
0.43254459
0.42582327
0.40899806
0.38452464
0.36337257
0.35941769
0.37476949
0.39802246
0.42366262
0.40070006
0.39621962
0.38286242
0.36306596
0.34724117
0.34775037
0.36560836
0.38971805
0.41395752
0.36827559
0.36601147
0.3562931
0.34157222
0.33153667
0.33690352
0.3575731
0.38302271
0.40613055
0.33886833
0.33865699
0.33250555
0.32286792
0.31859696
0.32877113
0.35233698
0.37934554
0.40180775
0.31509241
0.31666713
0.31378862
0.30888813
0.30994278
0.32456583
0.35079534
0.37915059
0.40159761
0.29772043
0.30091953
0.30114409
0.3007645
0.3065999
0.32485637
0.35328122
0.38263118
0.40531853
0.29144291
0.29567905
0.29822498
0.30103707
0.30987078
0.33027778
0.35978611
0.38967465
0.41247271
0.29285116
0.29788423
0.30209738
0.30720706
0.31829768
0.34009706
0.37012579
0.3999913
0.42251664
0.30071094
0.30617583
0.31181866
0.31918377
0.33194939
0.35361644
0.38276203
0.412441
0.43515983
0.33352499
0.33870663
0.34421178
0.35048591
0.36004921
0.37632599
0.39961651
0.4267327
0.45076255
0.20187346
0.20248487
0.20269388
0.20245642
0.20238539
0.20326573
0.2050859
0.2068635
0.20838519
0.1945482
0.19541925
0.19576871
0.1955594
0.19567195
0.19720252
0.20022243
0.20370637
0.20703804
0.19230874
0.19338119
0.19368139
0.19316844
0.19307194
0.19486213
0.19861022
0.2030068
0.2072646
0.19635928
0.19763623
0.19780561
0.19676589
0.19610117
0.19770704
0.20167308
0.2066538
0.21174481
0.20674092
0.20821989
0.20820842
0.20650598
0.20507307
0.20628127
0.21036787
0.21580598
0.22166987
0.22255832
0.22437404
0.22431502
0.22202872
0.21985691
0.22071578
0.22495049
0.2308103
0.23732154
0.24368667
0.24586902
0.2458268
0.24303477
0.24020767
0.24082015
0.24533287
0.25163442
0.25860842
0.26855403
0.27115896
0.27127683
0.26818408
0.26493844
0.26554393
0.27055646
0.27740129
0.28472956
0.29494537
0.29800925
0.29843217
0.29529492
0.29194865
0.2928461
0.29859121
0.30613562
0.31372594
0.3196235
0.32316881
0.32403098
0.32111605
0.31799984
0.31946882
0.32613261
0.33450535
0.34227954
0.33902052
0.34298103
0.34428979
0.34172874
0.33902343
0.34117446
0.34866045
0.35784819
0.36576285
0.35007108
0.35420634
0.35573181
0.35337382
0.3509326
0.35351125
0.36147733
0.37117427
0.37917124
0.35007111
0.35420639
0.35573188
0.35337389
0.35093266
0.35351127
0.36147729
0.37117412
0.37917095
0.33902076
0.34298132
0.3442901
0.34172905
0.33902367
0.34117458
0.34866037
0.3578478
0.36576208
0.3196242
0.32316953
0.3240317
0.32111673
0.3180004
0.31946918
0.32613263
0.33450488
0.34227853
0.29494672
0.29801056
0.29843343
0.29529608
0.29194966
0.29284686
0.29859152
0.30613525
0.31372489
0.26855586
0.27116076
0.27127858
0.26818575
0.26493999
0.2655452
0.27055716
0.27740112
0.28472852
0.24368866
0.24587106
0.24582891
0.24303692
0.24020976
0.24082195
0.24533402
0.25163454
0.2586074
0.22256033
0.2243762
0.2243174
0.22203128
0.2198595
0.22071809
0.22495211
0.23081075
0.23732054
0.20674309
0.20822229
0.20821111
0.20650894
0.2050761
0.20628406
0.21036993
0.21580676
0.22166909
0.19636205
0.19763917
0.19780876
0.19676924
0.19610463
0.19771031
0.20167562
0.20665499
0.21174472
0.19231223
0.1933848
0.19368515
0.19317237
0.19307598
0.19486604
0.1986135
0.20300893
0.20726563
0.19455251
0.19542362
0.19577317
0.19556395
0.19567658
0.19720718
0.20022703
0.20371045
0.20704021
0.20187838
0.20248991
0.20269905
0.20246168
0.20239076
0.2032713
0.2050919
0.20686938
0.20838882
0.19230501
0.19229455
0.19226904
0.19223845
0.19222136
0.19227934
0.19249057
0.192917
0.19371445
0.18982915
0.18979797
0.18977755
0.18982009
0.18996851
0.19029947
0.19090381
0.19180572
0.19298745
0.18814423
0.1880929
0.18803921
0.18804064
0.18816614
0.18853946
0.18929679
0.19045305
0.19187036
0.18681832
0.18675231
0.18667644
0.18664618
0.18673132
0.18708352
0.18789353
0.18921144
0.19084827
0.18596664
0.18589098
0.18579268
0.18571924
0.18573626
0.18601918
0.18681409
0.18821999
0.19002194
0.18563135
0.18554515
0.18542157
0.18529442
0.18521806
0.18538696
0.18610381
0.18752117
0.18942162
0.18570311
0.185618
0.18548184
0.18531078
0.18514021
0.18517584
0.18577392
0.18714097
0.18908044
0.18611844
0.18604133
0.1859013
0.18569514
0.18543589
0.1853346
0.18579554
0.1870728
0.18900173
0.18675242
0.18668824
0.18655262
0.18632355
0.18599094
0.18576613
0.18609351
0.18727147
0.18916891
0.18745179
0.18740269
0.1872765
0.18703608
0.18665034
0.18632715
0.18654435
0.18763613
0.18949657
0.18804856
0.18801202
0.18789606
0.18765347
0.18723685
0.18684966
0.1869911
0.18802471
0.18984325
0.18840495
0.18837422
0.18826317
0.18802011
0.18758856
0.18716906
0.18727158
0.18827627
0.19006845
0.18840501
0.1883743
0.18826326
0.18802021
0.18758868
0.18716917
0.18727166
0.18827626
0.19006833
0.1880488
0.18801229
0.18789635
0.18765381
0.18723721
0.18685001
0.18699133
0.18802469
0.1898429
0.18745227
0.1874032
0.18727706
0.1870367
0.186651
0.18632777
0.18654477
0.18763612
0.18949597
0.18675325
0.1866891
0.18655354
0.18632454
0.18599199
0.18576711
0.18609419
0.18727152
0.18916809
0.18611973
0.18604266
0.1859027
0.18569663
0.18543745
0.18533606
0.18579657
0.18707299
0.18900075
0.1857049
0.18561985
0.1854838
0.18531289
0.18514241
0.18517791
0.18577546
0.18714147
0.18907947
0.18563376
0.18554771
0.18542431
0.18529735
0.18522108
0.18538982
0.18610607
0.18752219
0.18942084
0.18596997
0.18589449
0.18579638
0.18572314
0.18574025
0.18602302
0.18681729
0.18822173
0.19002148
0.18682276
0.18675692
0.18668126
0.18665121
0.18673646
0.18708856
0.18789789
0.18921408
0.19084823
0.18814988
0.1880987
0.1880452
0.18804685
0.18817252
0.18854579
0.18930239
0.19045666
0.19187095
0.18983601
0.18980492
0.18978464
0.18982736
0.18997593
0.19030683
0.19091052
0.19181044
0.19298885
0.19231258
0.19230218
0.19227674
0.19224622
0.19222915
0.19228706
0.19249784
0.19292285
0.19371726
0.27837193
0.27829564
0.278207
0.2781068
0.2780206
0.27801674
0.27816425
0.27846925
0.27891389
0.27860245
0.27852506
0.27843953
0.27834703
0.27828128
0.27832373
0.27855617
0.27901284
0.27965731
0.27889152
0.27881653
0.27873628
0.2786516
0.27859917
0.27866504
0.27893132
0.27943025
0.28011975
0.27942168
0.27935157
0.27927658
0.27919392
0.27914199
0.27921064
0.27948466
0.27999967
0.28070544
0.28016488
0.28010082
0.28003309
0.27995476
0.2799041
0.27997241
0.28024723
0.28076286
0.28146992
0.28105276
0.28100309
0.28095135
0.28088422
0.2808385
0.28090499
0.2811737
0.28167518
0.28235947
0.2820757
0.28204188
0.28200772
0.2819501
0.28190689
0.2819673
0.28222017
0.28269039
0.28331778
0.2831459
0.28313027
0.28311574
0.28307328
0.28303342
0.28308661
0.28332036
0.28374995
0.28429375
0.28417632
0.28417977
0.28418636
0.2841586
0.28412558
0.28417338
0.28439296
0.28480336
0.28535667
0.28506493
0.2850875
0.28511406
0.28510165
0.28507666
0.28512376
0.28533634
0.28574249
0.28638126
0.28572225
0.28576026
0.2858029
0.2858029
0.28578506
0.28583454
0.28605278
0.28648119
0.28712401
0.286081
0.28612521
0.28617462
0.28617992
0.28616545
0.2862172
0.28644568
0.28691203
0.2875153
0.28608102
0.28612525
0.28617468
0.28618
0.28616556
0.28621732
0.28644578
0.28691207
0.28751523
0.28572237
0.28576042
0.28580311
0.28580318
0.28578541
0.28583491
0.28605308
0.2864813
0.28712379
0.28506517
0.2850878
0.28511446
0.28510217
0.28507729
0.28512443
0.28533689
0.28574271
0.28638093
0.28417679
0.28418033
0.28418706
0.28415946
0.28412658
0.28417443
0.28439385
0.28480377
0.28535631
0.28314677
0.28313125
0.28311687
0.2830746
0.2830349
0.28308814
0.28332167
0.28375067
0.28429352
0.28207709
0.2820434
0.28200941
0.281952
0.28190898
0.28196942
0.28222202
0.28269155
0.28331789
0.28105484
0.2810053
0.28095376
0.28088685
0.28084132
0.28090782
0.28117621
0.28167691
0.28236011
0.28016777
0.28010388
0.28003634
0.27995824
0.27990773
0.27997604
0.28025051
0.28076531
0.28147129
0.27942552
0.27935556
0.27928074
0.27919828
0.27914649
0.27921512
0.27948881
0.28000303
0.28070782
0.27889629
0.27882141
0.2787413
0.27865679
0.27860447
0.27867033
0.27893636
0.27943471
0.28012347
0.27860806
0.27853073
0.27844529
0.27835288
0.2782872
0.27832969
0.27856212
0.27901868
0.27966273
0.27837808
0.27830182
0.27821321
0.27811304
0.2780269
0.2780232
0.27817109
0.2784766
0.27892102
0.18938573
0.18935854
0.18932289
0.18929241
0.18926249
0.18921989
0.18915159
0.18905979
0.18907684
0.18928851
0.18925545
0.18921991
0.18920531
0.18921199
0.18922761
0.18923872
0.18924136
0.18929726
0.18917259
0.18913853
0.18910394
0.18909765
0.18912245
0.18916538
0.18920886
0.18923927
0.18927536
0.18907003
0.18903842
0.18900788
0.18901026
0.18904812
0.18910612
0.18916255
0.18920244
0.18923262
0.18898785
0.18895963
0.18893428
0.18894624
0.1889973
0.18906743
0.18913183
0.18917576
0.1892015
0.18892321
0.18889967
0.18888015
0.18890183
0.18896528
0.18904408
0.18911049
0.18915212
0.18917467
0.18888097
0.18886189
0.18884813
0.18887993
0.18895185
0.18903542
0.1890976
0.18913295
0.18916281
0.18885653
0.18884205
0.18883481
0.18887325
0.18895193
0.18903554
0.18908685
0.18911155
0.18916166
0.18884484
0.18883485
0.18883315
0.18887736
0.18895947
0.18903762
0.18906874
0.18905399
0.18901367
0.18883984
0.18883407
0.18883715
0.18888565
0.18896844
0.18903723
0.18904263
0.18897412
0.18876088
0.18883646
0.18883403
0.18884084
0.18889234
0.18897442
0.18903268
0.18900607
0.18886552
0.18858764
0.18883761
0.18883665
0.18884497
0.18889733
0.18897787
0.18902829
0.18897606
0.18876783
0.18849961
0.1888376
0.18883667
0.18884502
0.18889742
0.18897799
0.18902841
0.18897616
0.18876786
0.18849951
0.18883654
0.18883416
0.18884104
0.18889263
0.18897479
0.18903307
0.1890064
0.18886563
0.18858736
0.18884002
0.18883435
0.18883755
0.1888862
0.18896911
0.18903795
0.18904324
0.18897438
0.18876053
0.18884524
0.18883538
0.18883385
0.18887825
0.18896052
0.18903874
0.18906972
0.18905452
0.1890134
0.18885728
0.18884296
0.18883592
0.1888746
0.18895348
0.18903717
0.18908831
0.18911248
0.18916169
0.1888822
0.1888633
0.18884976
0.18888184
0.18895399
0.18903767
0.18909965
0.18913442
0.1891634
0.18892511
0.18890174
0.18888245
0.18890443
0.18896813
0.18904702
0.18911321
0.18915427
0.18917612
0.18899058
0.18896252
0.1889374
0.18894966
0.18900095
0.18907112
0.18913528
0.18917877
0.18920421
0.18907379
0.18904232
0.18901198
0.18901457
0.18905257
0.18911054
0.18916677
0.18920659
0.18923714
0.18917741
0.18914347
0.18910899
0.18910282
0.18912765
0.18917052
0.18921405
0.1892451
0.18928235
0.18929431
0.18926131
0.1892258
0.18921124
0.18921795
0.18923373
0.18924547
0.18924964
0.18930723
0.18939222
0.18936502
0.1893294
0.18929904
0.18926946
0.18922761
0.18916074
0.18907095
0.189089
0.2308184
0.23081228
0.23079863
0.23076482
0.23071506
0.2306717
0.23066239
0.23069748
0.23076768
0.23082107
0.23081614
0.23080381
0.23077062
0.23072406
0.23069229
0.23070896
0.23079213
0.23092325
0.23079209
0.2307902
0.23078113
0.23074978
0.23070455
0.23067621
0.23070092
0.2307967
0.23093998
0.23077055
0.23077217
0.23076687
0.23073781
0.23069387
0.23066749
0.23069689
0.23080042
0.23096052
0.23075766
0.23076254
0.2307613
0.23073566
0.23069503
0.2306729
0.23070878
0.23082114
0.23099471
0.23075325
0.23076136
0.23076442
0.23074223
0.23070561
0.23068873
0.23073136
0.23085098
0.23103237
0.23076107
0.23077177
0.23077839
0.23076053
0.23072695
0.23071538
0.23076388
0.23088839
0.2310725
0.23077754
0.23079052
0.23079983
0.23078507
0.23075666
0.23075008
0.23080471
0.23093414
0.23112186
0.23079977
0.23081441
0.23082597
0.23081411
0.23079019
0.23078999
0.23085368
0.23099387
0.23122533
0.2308229
0.23083865
0.23085197
0.2308427
0.23082316
0.23083093
0.23090994
0.23108289
0.23136329
0.23084273
0.23085917
0.23087361
0.23086617
0.23085023
0.23086533
0.23096078
0.23117277
0.23146377
0.23085436
0.23087091
0.23088581
0.23087933
0.23086539
0.23088459
0.23098889
0.23121829
0.23151384
0.23085429
0.23087086
0.23088579
0.23087936
0.23086545
0.23088466
0.23098893
0.23121824
0.23151364
0.2308426
0.2308591
0.23087362
0.23086629
0.23085044
0.23086557
0.23096092
0.23117263
0.23146318
0.23082276
0.23083862
0.23085209
0.230843
0.2308236
0.23083141
0.23091025
0.23108273
0.23136239
0.23079978
0.23081457
0.23082633
0.23081472
0.230791
0.23079084
0.23085427
0.2309938
0.23122424
0.23077789
0.23079107
0.23080062
0.23078618
0.230758
0.23075145
0.23080574
0.23093429
0.23112074
0.230762
0.23077294
0.23077985
0.23076235
0.23072902
0.23071747
0.23076551
0.23088895
0.23107158
0.23075507
0.23076344
0.23076683
0.23074502
0.23070867
0.23069174
0.23073377
0.23085215
0.23103193
0.23076072
0.23076586
0.23076496
0.2307397
0.2306993
0.23067702
0.23071216
0.23082318
0.23099509
0.23077524
0.2307771
0.23077211
0.23074337
0.23069956
0.23067292
0.23070149
0.23080367
0.23096216
0.23079862
0.23079694
0.23078811
0.23075697
0.23071178
0.23068317
0.23070714
0.23080172
0.23094338
0.23082941
0.23082461
0.23081242
0.23077936
0.23073286
0.230701
0.23071731
0.23079955
0.23092883
0.23082795
0.23082186
0.23080825
0.23077455
0.230725
0.23068194
0.23067285
0.23070764
0.23077585
0.18765746
0.1876469
0.18763518
0.18762879
0.18762564
0.18761817
0.1875986
0.18756434
0.18755677
0.1877003
0.18768809
0.18767601
0.18767275
0.18767684
0.18768071
0.18767658
0.18766265
0.18766279
0.18772989
0.18771778
0.18770671
0.18770694
0.18771668
0.18772683
0.18772732
0.18771406
0.18769996
0.18776027
0.1877494
0.18774029
0.18774402
0.1877582
0.18777193
0.18777249
0.18775475
0.1877297
0.18778849
0.18777924
0.18777263
0.18778048
0.1877997
0.18781673
0.18781661
0.18779334
0.18775795
0.18781044
0.18780348
0.18779986
0.1878124
0.18783656
0.18785665
0.18785499
0.18782597
0.18778244
0.18782719
0.18782244
0.18782209
0.18783894
0.18786751
0.18788975
0.18788591
0.18785168
0.18780258
0.18783723
0.18783486
0.18783774
0.18785853
0.18789081
0.18791406
0.18790681
0.18786635
0.18780773
0.18784093
0.18784097
0.18784689
0.18787102
0.18790581
0.18792815
0.18791374
0.18786001
0.18775111
0.18783974
0.18784201
0.18785056
0.1878772
0.18791314
0.18793205
0.18790346
0.18781456
0.18765468
0.18783613
0.18784014
0.18785069
0.18787909
0.18791534
0.18793019
0.18788614
0.18775775
0.18758581
0.1878342
0.18783906
0.18785055
0.18787972
0.18791596
0.18792845
0.18787623
0.18773047
0.18755252
0.18783405
0.18783894
0.18785048
0.1878797
0.18791597
0.18792847
0.18787621
0.18773033
0.18755221
0.18783582
0.18783989
0.18785054
0.18787906
0.18791541
0.18793029
0.18788611
0.18775737
0.18758488
0.18783932
0.18784171
0.18785043
0.18787728
0.18791338
0.18793232
0.1879035
0.18781399
0.18765321
0.18784061
0.18784082
0.18784697
0.18787138
0.18790639
0.18792875
0.18791397
0.18785937
0.18774922
0.18783731
0.18783515
0.18783831
0.18785944
0.18789197
0.18791519
0.18790742
0.1878658
0.18780555
0.187828
0.18782351
0.18782349
0.18784071
0.18786954
0.18789169
0.18788713
0.1878514
0.18780029
0.18781239
0.18780572
0.18780247
0.18781542
0.18783982
0.18785972
0.18785711
0.18782621
0.18778025
0.18779202
0.1877831
0.18777689
0.18778515
0.18780457
0.1878213
0.18781999
0.18779445
0.18775616
0.18776589
0.18775534
0.18774661
0.18775071
0.18776502
0.18777834
0.18777754
0.18775721
0.18772876
0.1877379
0.18772606
0.18771532
0.18771584
0.18772565
0.18773537
0.18773449
0.18771852
0.18770053
0.1877106
0.18769858
0.18768671
0.18768365
0.18768779
0.18769134
0.18768614
0.18766974
0.18766559
0.18766926
0.18765874
0.18764707
0.18764074
0.18763764
0.18763011
0.18761005
0.18757441
0.18756302
0.19397063
0.19397178
0.19397083
0.19396307
0.19394985
0.19393815
0.19393704
0.19395111
0.19397621
0.1939587
0.19396032
0.19395965
0.19395172
0.19393888
0.19393006
0.1939362
0.1939638
0.19400697
0.19393792
0.19394055
0.1939408
0.1939331
0.19392015
0.19391185
0.19392008
0.19395143
0.19399972
0.19391533
0.19391899
0.19392037
0.19391329
0.19390072
0.19389305
0.19390282
0.19393688
0.19399126
0.19389347
0.19389802
0.19390047
0.19389438
0.19388255
0.19387616
0.19388806
0.19392536
0.19398493
0.19387432
0.19387953
0.19388275
0.19387748
0.19386674
0.19386167
0.19387567
0.19391585
0.19397917
0.19385896
0.19386467
0.19386856
0.19386403
0.19385434
0.19385068
0.19386659
0.19390927
0.19397488
0.1938477
0.19385368
0.19385805
0.19385421
0.19384559
0.19384348
0.19386157
0.19390745
0.19397518
0.19384027
0.19384636
0.19385104
0.19384783
0.19384032
0.19384001
0.19386122
0.19391289
0.19398977
0.19383589
0.19384198
0.19384687
0.19384421
0.1938378
0.19383942
0.19386435
0.19392288
0.19401318
0.19383382
0.1938399
0.19384492
0.19384265
0.19383714
0.19384062
0.19386963
0.19393534
0.19403218
0.19383298
0.19383903
0.19384412
0.19384211
0.19383714
0.19384176
0.19387355
0.19394487
0.19404221
0.19383279
0.19383887
0.19384401
0.19384205
0.19383712
0.19384176
0.1938735
0.19394468
0.1940418
0.19383339
0.19383954
0.19384467
0.19384255
0.19383714
0.19384065
0.19386951
0.1939348
0.19403096
0.19383529
0.19384152
0.1938466
0.19384417
0.19383795
0.1938396
0.19386425
0.19392207
0.19401126
0.19383974
0.19384601
0.19385096
0.19384806
0.1938408
0.19384051
0.1938613
0.19391195
0.19398731
0.19384755
0.19385377
0.19385846
0.19385501
0.19384668
0.19384455
0.19386204
0.19390658
0.1939724
0.19385957
0.19386556
0.19386983
0.19386575
0.19385636
0.19385261
0.19386773
0.19390872
0.19397205
0.19387611
0.19388165
0.19388531
0.19388052
0.19387007
0.19386482
0.1938778
0.19391595
0.19397667
0.19389697
0.19390188
0.19390478
0.19389919
0.19388757
0.1938809
0.19389158
0.19392654
0.19398324
0.19392106
0.19392507
0.19392688
0.19392021
0.19390782
0.19389975
0.19390817
0.19393974
0.19399101
0.19394618
0.19394911
0.19394971
0.19394234
0.19392948
0.19392078
0.19392777
0.19395679
0.19400181
0.19396937
0.19397119
0.19397074
0.19396302
0.19395028
0.19394126
0.19394666
0.19397252
0.19401233
0.19398289
0.19398407
0.19398317
0.19397552
0.19396247
0.19395105
0.1939501
0.19396369
0.19398581
0.17319561
0.17319251
0.17318941
0.17318842
0.17318893
0.17318852
0.17318449
0.1731749
0.17317139
0.17321235
0.17320877
0.1732055
0.1732052
0.17320727
0.1732091
0.17320783
0.17320262
0.17320044
0.17322816
0.17322454
0.17322152
0.17322213
0.17322556
0.17322854
0.17322744
0.17322105
0.17321389
0.17324478
0.17324141
0.17323886
0.17324039
0.17324492
0.17324847
0.17324652
0.17323755
0.17322587
0.173261
0.173258
0.17325606
0.17325863
0.17326433
0.17326837
0.17326539
0.17325366
0.17323765
0.17327513
0.17327268
0.17327154
0.17327527
0.17328219
0.17328665
0.17328253
0.1732681
0.17324838
0.17328705
0.1732852
0.17328482
0.17328976
0.17329769
0.17330244
0.17329709
0.1732801
0.17325771
0.17329623
0.17329501
0.17329551
0.17330137
0.17331015
0.17331495
0.17330807
0.17328798
0.17326372
0.17330263
0.17330204
0.17330334
0.17331001
0.17331938
0.17332381
0.17331459
0.1732893
0.17325602
0.17330655
0.17330654
0.17330852
0.17331584
0.1733255
0.17332915
0.17331708
0.1732859
0.17323789
0.17330851
0.17330893
0.17331142
0.17331919
0.17332894
0.17333155
0.17331604
0.17327847
0.17322263
0.17330937
0.17331
0.17331272
0.17332069
0.17333046
0.1733324
0.1733144
0.17327138
0.17321425
0.17330915
0.17330982
0.1733126
0.17332062
0.17333044
0.17333239
0.17331435
0.17327118
0.17321381
0.17330802
0.17330852
0.17331113
0.17331904
0.17332892
0.17333157
0.1733159
0.1732779
0.17322135
0.17330586
0.17330599
0.17330818
0.17331575
0.17332562
0.17332932
0.17331698
0.17328506
0.17323588
0.17330197
0.17330159
0.17330318
0.1733102
0.17331984
0.17332431
0.17331469
0.17328836
0.17325347
0.17329595
0.17329499
0.17329585
0.17330212
0.17331123
0.17331604
0.1733086
0.17328715
0.17326087
0.17328752
0.17328598
0.17328601
0.17329142
0.17329969
0.17330441
0.17329832
0.17327966
0.17325488
0.17327676
0.17327466
0.17327398
0.17327822
0.17328547
0.17328982
0.17328478
0.1732684
0.17324597
0.17326425
0.17326162
0.17326016
0.17326324
0.17326923
0.17327305
0.17326899
0.17325511
0.17323616
0.17325015
0.17324713
0.173245
0.17324698
0.17325171
0.17325493
0.1732518
0.17324064
0.17322594
0.17323588
0.17323255
0.17322986
0.1732308
0.17323431
0.17323693
0.17323474
0.17322639
0.17321624
0.17322225
0.17321885
0.17321578
0.17321567
0.1732178
0.17321939
0.17321742
0.17321077
0.17320575
0.17320687
0.17320381
0.17320076
0.17319986
0.1732005
0.17320021
0.17319609
0.17318627
0.17318031
0.1663848
0.16638544
0.16638552
0.16638375
0.16638049
0.16637757
0.16637744
0.16638103
0.16638759
0.16637803
0.16637877
0.16637887
0.16637699
0.16637384
0.16637173
0.16637345
0.16638043
0.16639149
0.16637012
0.16637108
0.16637135
0.16636944
0.1663662
0.16636425
0.1663666
0.16637484
0.16638765
0.16636182
0.166363
0.16636346
0.16636166
0.16635843
0.1663566
0.16635944
0.16636867
0.16638346
0.16635374
0.16635512
0.16635579
0.16635413
0.16635106
0.16634945
0.16635278
0.16636299
0.16637939
0.16634644
0.16634796
0.1663488
0.16634729
0.16634438
0.16634302
0.16634679
0.16635778
0.16637533
0.16634015
0.16634179
0.16634278
0.16634143
0.16633872
0.16633762
0.16634181
0.16635342
0.16637161
0.16633504
0.16633678
0.16633789
0.16633672
0.16633423
0.16633346
0.16633815
0.16635052
0.16636926
0.16633116
0.16633295
0.16633417
0.16633317
0.16633095
0.16633057
0.16633591
0.16634964
0.16637027
0.16632838
0.16633021
0.16633152
0.16633069
0.16632874
0.1663288
0.1663349
0.16634986
0.16637315
0.16632659
0.16632846
0.16632985
0.16632914
0.16632742
0.16632789
0.16633487
0.16635078
0.16637497
0.16632564
0.16632753
0.16632897
0.16632837
0.16632679
0.1663275
0.16633497
0.16635163
0.16637576
0.16632543
0.16632735
0.16632884
0.16632829
0.16632677
0.16632749
0.16633492
0.16635144
0.16637533
0.1663261
0.16632805
0.16632955
0.16632899
0.16632739
0.1663279
0.16633474
0.16635022
0.16637372
0.16632768
0.16632965
0.16633117
0.16633058
0.16632884
0.16632895
0.1663348
0.16634905
0.1663712
0.16633048
0.16633248
0.16633399
0.16633333
0.16633138
0.16633105
0.16633601
0.16634872
0.16636781
0.16633473
0.16633672
0.16633819
0.16633743
0.16633527
0.16633452
0.16633866
0.16634972
0.16636651
0.16634058
0.16634253
0.16634393
0.16634305
0.16634067
0.16633954
0.166343
0.166353
0.16636886
0.16634804
0.16634991
0.16635119
0.16635019
0.1663476
0.16634612
0.16634898
0.16635806
0.16637294
0.16635696
0.1663587
0.16635984
0.16635868
0.16635589
0.16635406
0.16635631
0.16636434
0.16637779
0.16636713
0.16636865
0.16636954
0.16636817
0.16636513
0.166363
0.16636464
0.16637153
0.1663832
0.16637774
0.16637899
0.16637959
0.166378
0.16637488
0.16637259
0.16637378
0.16637979
0.16638935
0.16638778
0.1663887
0.16638901
0.16638734
0.16638425
0.1663819
0.16638278
0.16638797
0.16639587
0.16639585
0.16639653
0.16639666
0.16639498
0.16639182
0.16638897
0.1663887
0.16639153
0.16639546
0.15276958
0.15276875
0.15276799
0.15276783
0.15276818
0.15276843
0.15276793
0.15276625
0.15276568
0.15277414
0.15277313
0.15277225
0.15277217
0.15277281
0.15277354
0.15277368
0.15277297
0.15277321
0.15277972
0.15277867
0.1527778
0.15277785
0.15277871
0.15277958
0.15277964
0.15277844
0.15277759
0.15278571
0.15278469
0.1527839
0.15278413
0.15278519
0.15278608
0.15278574
0.15278386
0.1527817
0.15279152
0.15279057
0.15278991
0.15279036
0.15279164
0.15279256
0.15279182
0.15278909
0.15278564
0.1527966
0.15279578
0.1527953
0.15279602
0.15279755
0.15279849
0.15279733
0.15279372
0.15278912
0.15280088
0.15280019
0.1527999
0.15280087
0.15280262
0.15280353
0.15280192
0.15279742
0.15279193
0.15280422
0.15280366
0.15280354
0.15280477
0.15280665
0.15280747
0.15280528
0.15279974
0.15279339
0.15280663
0.15280619
0.15280624
0.15280764
0.15280961
0.15281023
0.15280727
0.15280014
0.15279142
0.15280816
0.15280784
0.15280804
0.15280955
0.15281156
0.15281192
0.15280808
0.15279944
0.15278762
0.15280895
0.15280873
0.15280904
0.15281065
0.15281266
0.15281274
0.15280794
0.15279802
0.15278501
0.15280926
0.15280908
0.15280945
0.15281112
0.15281314
0.15281305
0.15280767
0.15279673
0.15278342
0.15280906
0.15280891
0.15280933
0.15281105
0.15281311
0.15281304
0.15280761
0.15279654
0.15278301
0.15280847
0.15280832
0.15280874
0.15281048
0.15281261
0.15281273
0.15280778
0.15279748
0.15278381
0.15280748
0.15280729
0.15280767
0.15280941
0.15281161
0.15281202
0.15280793
0.15279862
0.15278574
0.15280596
0.15280571
0.15280602
0.15280771
0.15280994
0.15281061
0.15280728
0.1527992
0.15278904
0.15280385
0.15280353
0.15280375
0.15280534
0.15280752
0.15280835
0.15280564
0.15279887
0.15279072
0.15280117
0.15280077
0.15280087
0.15280228
0.15280432
0.15280519
0.15280288
0.15279685
0.15278923
0.15279796
0.15279747
0.15279742
0.15279861
0.15280043
0.15280124
0.15279921
0.15279377
0.15278671
0.1527944
0.1527938
0.15279358
0.15279451
0.15279605
0.15279674
0.15279493
0.15279012
0.15278393
0.15279059
0.1527899
0.15278951
0.15279016
0.1527914
0.15279197
0.15279044
0.15278637
0.15278125
0.15278685
0.15278607
0.15278553
0.1527859
0.15278686
0.15278738
0.15278627
0.15278312
0.15277914
0.15278337
0.15278255
0.15278188
0.152782
0.15278272
0.15278325
0.15278266
0.15278039
0.15277752
0.15278015
0.15277935
0.15277864
0.15277858
0.15277908
0.15277953
0.15277908
0.15277683
0.15277357
0.14219364
0.14219377
0.14219377
0.14219339
0.14219277
0.14219237
0.14219275
0.14219421
0.1421964
0.14219339
0.14219351
0.14219345
0.14219294
0.14219223
0.14219191
0.14219275
0.14219512
0.14219863
0.142193
0.14219315
0.14219309
0.14219252
0.14219171
0.14219131
0.14219218
0.14219479
0.14219888
0.14219241
0.14219259
0.14219255
0.14219198
0.14219113
0.14219071
0.1421916
0.14219435
0.14219889
0.14219173
0.14219194
0.14219193
0.14219137
0.14219053
0.14219015
0.14219111
0.14219401
0.14219894
0.14219105
0.14219129
0.14219131
0.14219077
0.14218996
0.14218962
0.14219069
0.14219378
0.14219895
0.14219036
0.14219064
0.1421907
0.1421902
0.14218944
0.14218917
0.14219034
0.14219359
0.14219897
0.14218973
0.14219004
0.14219014
0.14218969
0.14218899
0.14218879
0.14219005
0.14219346
0.14219904
0.14218917
0.14218951
0.14218965
0.14218926
0.14218862
0.1421885
0.14218985
0.14219339
0.14219918
0.1421887
0.14218907
0.14218925
0.14218891
0.14218834
0.14218828
0.1421897
0.14219335
0.14219929
0.14218834
0.14218873
0.14218895
0.14218866
0.14218815
0.14218814
0.1421896
0.14219333
0.14219931
0.14218808
0.1421885
0.14218875
0.1421885
0.14218803
0.14218805
0.14218952
0.14219325
0.14219916
0.14218792
0.14218836
0.14218865
0.14218844
0.14218801
0.14218804
0.14218948
0.1421931
0.14219884
0.14218796
0.14218841
0.14218872
0.14218854
0.14218812
0.14218814
0.14218948
0.14219289
0.14219835
0.14218817
0.14218864
0.14218898
0.14218883
0.14218841
0.14218838
0.14218959
0.1421927
0.14219779
0.14218865
0.14218914
0.1421895
0.14218936
0.14218893
0.14218883
0.14218987
0.14219264
0.14219726
0.14218947
0.14218997
0.14219033
0.1421902
0.14218974
0.14218954
0.14219037
0.14219276
0.14219686
0.14219064
0.14219114
0.14219151
0.14219137
0.14219087
0.14219056
0.14219115
0.14219313
0.14219674
0.14219218
0.14219269
0.14219305
0.1421929
0.14219235
0.14219191
0.14219223
0.1421938
0.14219695
0.14219411
0.1421946
0.14219496
0.14219479
0.14219416
0.14219358
0.14219365
0.14219485
0.14219755
0.14219643
0.14219689
0.14219719
0.14219694
0.14219624
0.14219554
0.14219544
0.14219637
0.14219865
0.14219888
0.14219926
0.14219946
0.14219915
0.1421984
0.14219771
0.1421977
0.14219866
0.14220037
0.14220103
0.14220129
0.14220139
0.14220103
0.14220037
0.1421999
0.1422002
0.1422014
0.14220249
0.1422024
0.14220255
0.14220259
0.14220228
0.1422018
0.14220158
0.14220207
0.14220318
0.14220307
0.13036471
0.13036454
0.13036438
0.13036432
0.13036435
0.13036436
0.13036431
0.13036417
0.13036476
0.13036621
0.13036595
0.13036572
0.13036564
0.13036572
0.13036591
0.13036612
0.13036639
0.13036715
0.13036823
0.13036795
0.13036768
0.13036757
0.13036765
0.13036788
0.13036814
0.13036839
0.13036892
0.13037039
0.1303701
0.13036983
0.13036972
0.1303698
0.13036997
0.13037013
0.13037023
0.13037046
0.1303725
0.13037222
0.13037197
0.13037188
0.13037196
0.13037207
0.13037206
0.13037187
0.13037181
0.13037436
0.13037412
0.13037391
0.13037387
0.13037398
0.13037405
0.13037387
0.13037344
0.13037299
0.13037596
0.13037574
0.13037558
0.1303756
0.13037577
0.13037581
0.13037551
0.13037483
0.13037401
0.13037727
0.13037708
0.13037696
0.13037705
0.13037726
0.1303773
0.13037689
0.13037597
0.13037481
0.13037828
0.13037813
0.13037806
0.1303782
0.13037845
0.13037849
0.13037798
0.13037684