/*--------------------------------*- C++ -*----------------------------------*\
| =========                 |                                                 |
| \\      /  F ield         | OpenFOAM: The Open Source CFD Toolbox           |
|  \\    /   O peration     | Version:  2406                                  |
|   \\  /    A nd           | Website:  www.openfoam.com                      |
|    \\/     M anipulation  |                                                 |
\*---------------------------------------------------------------------------*/
FoamFile
{
    version     2.0;
    format      ascii;
    arch        "LSB;label=32;scalar=64";
    class       surfaceScalarField;
    location    "2.25";
    object      phi;
}
// * * * * * * * * * * * * * * * * * * * * * * * * * * * * * * * * * * * * * //

dimensions      [0 3 -1 0 0 0 0];

oriented        oriented;

internalField   nonuniform List<scalar> 
101088
(
-0.00017199815
3.6186352e-05
-1.1774499e-05
-3.0144356e-05
-0.00039148512
0.00016692333
-5.6284541e-05
-0.00013986677
-0.00064824303
0.00042328479
-0.00014840674
-0.00035639919
-0.00090866826
0.00082942629
-0.00030638152
-0.00070459181
-0.0011176372
0.0013360073
-0.00052285601
-0.0011508399
-0.0012355459
0.0018284334
-0.00074402513
-0.0015962412
-0.0012824626
0.0022004985
-0.00088662339
-0.0019324682
-0.0013240056
0.0023928223
-0.00089581353
-0.0020942252
0.0023705876
-0.00078248568
-0.0020733115
-0.0013949048
-0.00020860232
4.0240317e-05
-1.3474688e-05
-0.00046807419
0.0001870915
-6.5393536e-05
-0.00075893052
0.00047484813
-0.00017458843
-0.0010309109
0.00092451775
-0.00036341995
-0.001216109
0.0014745251
-0.00062194592
-0.0012791422
0.002003125
-0.00088426192
-0.0012556171
0.0024079861
-0.0010532834
-0.0012217161
0.0026287979
-0.0010689602
0.0026150829
-0.00094716793
-0.0012277632
-0.00024637035
4.2485329e-05
-1.4563277e-05
-0.00054733343
0.0001992102
-7.2082213e-05
-0.00087374461
0.00050744543
-0.00019549012
-0.0011608132
0.00098506293
-0.00041097932
-0.0013285021
0.0015595797
-0.00070507166
-0.0013435464
0.0021076999
-0.0009994863
-0.0012568743
0.0025367039
-0.0011857007
-0.0011574753
0.0027849155
-0.0012031259
0.0027889788
-0.0010721635
-0.0011066749
-0.00028361014
4.277925e-05
-1.50635e-05
-0.00062614876
0.00020247809
-7.6312607e-05
-0.00098832488
0.00051818562
-0.00021075608
-0.001290304
0.0010044362
-0.00044807359
-0.0014435779
0.001583181
-0.0007709783
-0.0014211545
0.0021361567
-0.0010893633
-0.0012880134
0.0025832602
-0.0012863404
-0.0011410472
0.0028563188
-0.0013003978
0.0028832272
-0.0011603006
-0.0010458765
-0.00031888824
4.0504543e-05
-1.487233e-05
-0.00070088525
0.00019484955
-7.7637209e-05
-0.0010978166
0.00050378648
-0.00021944944
-0.001417476
0.00097985259
-0.00047353255
-0.0015656379
0.001544982
-0.00081891809
-0.0015206196
0.0020897182
-0.0011547552
-0.0013558105
0.0025443312
-0.0013556285
-0.0011754272
0.0028380191
-0.0013636102
0.0028900514
-0.0012150061
-0.0010461098
-0.00035297271
3.6570442e-05
-1.4035424e-05
-0.00077601336
0.00017901266
-7.6151879e-05
-0.0012129791
0.00046845572
-0.00022161149
-0.0015595524
0.00091622763
-0.00048726459
-0.0017139146
0.0014479831
-0.00084886856
-0.0016586872
0.0019678868
-0.0011952395
-0.0014756858
0.0024177113
-0.0013951995
-0.0012710227
0.0027228509
-0.0013952888
0.0027990963
-0.0012391046
-0.0011125421
-0.00038379592
3.1038635e-05
-1.2632819e-05
-0.00084551358
0.00015538723
-7.202799e-05
-0.001322634
0.00041316204
-0.00021725644
-0.0017007152
0.00081554814
-0.00048874577
-0.0018725517
0.0012964417
-0.00085975142
-0.0018226236
0.0017750955
-0.0012104257
-0.0016361035
0.002204432
-0.0014054198
-0.001418954
0.0025086462
-0.0013968705
0.0026034486
-0.0012346128
-0.001237601
-0.00041122943
2.4404059e-05
-1.0735481e-05
-0.00090981481
0.0001258412
-6.5531926e-05
-0.0014288304
0.00034167558
-0.00020682888
-0.0018452868
0.00068360309
-0.00047873151
-0.0020463529
0.0010970731
-0.00085287389
-0.0020159168
0.0015169648
-0.0012024368
-0.001836477
0.0019043535
-0.0013892611
-0.0016150564
0.0021924102
-0.0013716715
0.0022958913
-0.0012050461
-0.001414267
-0.000434888
1.739212e-05
-8.5319556e-06
-0.00096812813
9.3121246e-05
-5.740121e-05
-0.0015302527
0.00025942373
-0.00019186762
-0.0019907598
0.00052801738
-0.00045956768
-0.0022304875
0.00085802259
-0.00083139225
-0.0022308372
0.0012005846
-0.0011752895
-0.0020673092
0.0015205362
-0.0013517246
-0.0018466068
0.0017723978
-0.001324632
0.0018713293
-0.0011553657
-0.0016277944
-0.00045420675
1.0811877e-05
-6.3272753e-06
-0.0010185826
6.0378489e-05
-4.8907386e-05
-0.0016226854
0.00017276403
-0.00017512621
-0.0021293951
0.00035783666
-0.00043564495
-0.0024122568
0.00058890002
-0.00080123978
-0.0024487219
0.00083473204
-0.0011363326
-0.0023068027
0.0010614395
-0.0013013417
-0.0020891405
0.0012528609
-0.001264752
0.0013317605
-0.0010942852
-0.0018527096
-0.00046809676
5.1470663e-06
-4.5503401e-06
-0.0010566919
2.9586332e-05
-4.1837959e-05
-0.0016953086
8.6157512e-05
-0.00016051925
-0.0022417978
0.00018044156
-0.00041330075
-0.0025631667
0.00029947805
-0.00077113733
-0.002630833
0.0004292169
-0.0010964476
-0.002512915
0.000545919
-0.0012516712
-0.0022989247
0.00065060134
-0.0012064286
0.00069483518
-0.0010356725
-0.0020474784
-0.00047534407
-1.1169383e-10
-3.4773546e-06
-0.0010771443
-4.693024e-10
-3.7513222e-05
-0.0017353618
-1.040671e-09
-0.00015138643
-0.0023055792
-1.7233309e-09
-0.00039895419
-0.0026510263
-2.1858832e-09
-0.00075145856
-0.0027366108
-2.1650768e-09
-0.0010704039
-0.0026357183
-1.5554225e-09
-0.0012196784
-0.0024247698
6.8702578e-11
-0.0011690946
1.6430402e-09
-0.00099836932
-0.0021645586
-0.00047534405
-5.1472613e-06
-3.4773563e-06
-0.0010771443
-2.9587184e-05
-3.7513228e-05
-0.0017353617
-8.6159455e-05
-0.00015138644
-0.002305579
-0.0001804449
-0.00039895421
-0.002651026
-0.00029948244
-0.00075145858
-0.0027366103
-0.00042922135
-0.0010704039
-0.0026357176
-0.00054592221
-0.0012196783
-0.0024247691
-0.00065060129
-0.0011690946
-0.00069483202
-0.00099836929
-0.0021645577
-0.00046809684
-1.0812031e-05
-4.5503465e-06
-0.001056692
-6.0379219e-05
-4.1837989e-05
-0.0016953088
-0.00017276581
-0.00016051933
-0.0022417979
-0.00035783986
-0.00041330092
-0.0025631666
-0.00058890442
-0.00077113758
-0.0026308324
-0.00083473683
-0.0010964478
-0.0025129138
-0.0010614431
-0.0012516713
-0.0022989231
-0.0012528614
-0.0012064286
-0.0013317579
-0.0010356725
-0.0020474763
-0.0004542066
-1.7392311e-05
-6.3272823e-06
-0.0010185822
-9.3122011e-05
-4.8907416e-05
-0.0016226848
-0.00025942542
-0.00017512629
-0.0021293945
-0.0005280203
-0.00043564507
-0.0024122561
-0.00085802672
-0.00080123992
-0.002448721
-0.0012005894
-0.0011363326
-0.0023068014
-0.0015205402
-0.0013013417
-0.0020891387
-0.0017723989
-0.001264752
-0.001871327
-0.0010942852
-0.0018527074
-0.00043488799
-2.4404235e-05
-8.5319616e-06
-0.00096812805
-0.00012584191
-5.7401241e-05
-0.0015302525
-0.00034167716
-0.0001918677
-0.0019907596
-0.00068360581
-0.00045956781
-0.0022304873
-0.0010970771
-0.0008313924
-0.0022308368
-0.0015169695
-0.0011752896
-0.0020673082
-0.0019043577
-0.0013517247
-0.0018466053
-0.0021924117
-0.0013246321
-0.0022958891
-0.0011553657
-0.0016277927
-0.00041122955
-3.1038686e-05
-1.0735485e-05
-0.00090981514
-0.00015538768
-6.5531955e-05
-0.0014288308
-0.00041316338
-0.00020682896
-0.0018452873
-0.00081555062
-0.00047873164
-0.0020463534
-0.0012964455
-0.00085287408
-0.0020159171
-0.0017751004
-0.001202437
-0.0018364769
-0.0022044366
-0.0013892612
-0.0016150556
-0.0025086481
-0.0013716715
-0.0026034464
-0.001205046
-0.0014142663
-0.00038379595
-3.6570499e-05
-1.2632825e-05
-0.00084551371
-0.00017901304
-7.2028025e-05
-0.0013226343
-0.00046845684
-0.00021725654
-0.0017007158
-0.00091622975
-0.00048874594
-0.0018725525
-0.0014479865
-0.00085975167
-0.0018226245
-0.0019678914
-0.0012104259
-0.0016361042
-0.0024177158
-0.0014054199
-0.001418954
-0.0027228536
-0.0013968706
-0.0027990947
-0.0012346128
-0.0012376004
-0.00035297279
-4.0504593e-05
-1.4035434e-05
-0.00077601367
-0.00019484978
-7.6151929e-05
-0.0012129797
-0.0005037873
-0.00022161162
-0.0015595534
-0.00097985434
-0.00048726484
-0.0017139159
-0.001544985
-0.00084886893
-0.0016586889
-0.0020897222
-0.0011952399
-0.0014756875
-0.0025443356
-0.0013951998
-0.0012710239
-0.0028380225
-0.001395289
-0.0028900514
-0.0012391046
-0.0011125415
-0.00031888825
-4.2779273e-05
-1.4872337e-05
-0.00070088534
-0.00020247823
-7.7637237e-05
-0.001097817
-0.00051818617
-0.00021944951
-0.0014174767
-0.0010044375
-0.00047353267
-0.0015656391
-0.0015831833
-0.00081891823
-0.0015206214
-0.0021361599
-0.0011547553
-0.0013558129
-0.0025832639
-0.0013556286
-0.0011754295
-0.0028563222
-0.0013636101
-0.0028832292
-0.0012150061
-0.0010461101
-0.0002836101
-4.2485326e-05
-1.5063504e-05
-0.00062614874
-0.00019921019
-7.6312621e-05
-0.00098832522
-0.00050744545
-0.00021075611
-0.0012903049
-0.00098506347
-0.00044807364
-0.0014435793
-0.0015595812
-0.00077097833
-0.0014211563
-0.0021077026
-0.0010893633
-0.0012880158
-0.0025367069
-0.0012863404
-0.0011410501
-0.0027849184
-0.0013003977
-0.0027889816
-0.0011603006
-0.0010458783
-0.00024637031
-4.0240258e-05
-1.4563277e-05
-0.00054733345
-0.00018709129
-7.2082207e-05
-0.00087374487
-0.00047484779
-0.0001954901
-0.0011608138
-0.00092451779
-0.00041097927
-0.0013285033
-0.001474526
-0.00070507157
-0.0013435482
-0.002003127
-0.00099948617
-0.0012568768
-0.0024079885
-0.0011857005
-0.0011574779
-0.0026288008
-0.0012031258
-0.0026150863
-0.0010721635
-0.001106677
-0.00020860233
-3.6186265e-05
-1.3474689e-05
-0.00046807423
-0.00016692305
-6.5393536e-05
-0.00075893064
-0.00042328435
-0.00017458842
-0.0010309114
-0.00082942597
-0.00036341994
-0.0012161101
-0.0013360076
-0.00062194591
-0.0012791437
-0.001828435
-0.00088426193
-0.0012556189
-0.0022005006
-0.0010532834
-0.0012217179
-0.0023928252
-0.0010689602
-0.0023705909
-0.000947168
-0.001227765
-0.00017199809
-1.1774503e-05
-3.0144344e-05
-0.00039148481
-5.6284554e-05
-0.00013986675
-0.00064824223
-0.00014840677
-0.00035639925
-0.00090866682
-0.00030638157
-0.00070459215
-0.0011176353
-0.00052285609
-0.0011508406
-0.0012355447
-0.00074402524
-0.0015962419
-0.0012824635
-0.00088662351
-0.0019324682
-0.0013240082
-0.00089581357
-0.0020942264
-0.00078248573
-0.0020733141
-0.0013949081
1.6355899e-06
-1.1208836e-06
-1.1865135e-05
-4.2407026e-07
6.9345851e-06
-6.1712239e-06
-5.4875077e-05
-5.3723438e-07
1.5656492e-05
-1.8961417e-05
-0.00014063096
2.4637368e-06
2.5251826e-05
-4.7372553e-05
-0.000283417
1.4812714e-05
3.3549117e-05
-0.00010061109
-0.00047640855
4.5866334e-05
4.3370273e-05
-0.00017997259
-0.00067450268
0.00010062898
6.162204e-05
-0.00027141608
-0.00080441527
0.0001709562
9.2918082e-05
-0.00035043772
-0.00081437925
0.00023770743
-0.00039246137
-0.00071156627
0.00028248495
0.00013197512
2.6494026e-06
-3.2211765e-06
-1.4023797e-05
1.1354821e-05
-1.5272739e-05
-6.4997439e-05
2.552977e-05
-4.0822279e-05
-0.0001669025
4.0070227e-05
-8.8780713e-05
-0.00033655224
4.9485336e-05
-0.00016680465
-0.00056516744
5.543194e-05
-0.00027128249
-0.00079889859
6.5896654e-05
-0.00038231855
-0.00095284563
8.7347463e-05
-0.00047122425
-0.00096962447
-0.00051291408
-0.00086006307
0.00012069531
3.9501088e-06
-5.8104955e-06
-1.5924068e-05
1.6770821e-05
-2.6213078e-05
-7.3962588e-05
3.7072997e-05
-6.6400434e-05
-0.00019021416
5.6378413e-05
-0.00013566263
-0.00038340285
6.5559754e-05
-0.00023892681
-0.00064213089
6.5684393e-05
-0.00036713909
-0.00090375436
6.6591458e-05
-0.0004954343
-0.001073492
7.6686575e-05
-0.00059267648
-0.0010917688
-0.0006325911
-0.0009751607
9.9360767e-05
5.4176342e-06
-8.680736e-06
-1.7610896e-05
2.2865259e-05
-3.8070229e-05
-8.1903074e-05
4.9846645e-05
-9.3374837e-05
-0.00021076305
7.3853458e-05
-0.00018346738
-0.00042427563
8.1927236e-05
-0.00030988133
-0.00070809753
7.531756e-05
-0.00045862896
-0.00099126378
6.5986435e-05
-0.00060162489
-0.0011708187
6.4826663e-05
-0.00070480535
-0.0011871092
-0.00074073027
-0.001063147
7.5812286e-05
6.8937893e-06
-1.1457648e-05
-1.8989212e-05
2.9040614e-05
-4.937226e-05
-8.8482015e-05
6.2696526e-05
-0.00011854312
-0.0002279371
9.1013222e-05
-0.0002268212
-0.00045849545
9.7394398e-05
-0.00037223917
-0.00076294143
8.3689458e-05
-0.00053692673
-0.0010627524
6.5060834e-05
-0.00069041395
-0.0012482108
5.4090288e-05
-0.00079678474
-0.0012606602
-0.0008269688
-0.0011294289
5.475167e-05
8.4783604e-06
-1.3872724e-05
-2.009871e-05
3.5701914e-05
-5.8910357e-05
-9.3837333e-05
7.6615548e-05
-0.0001390547
-0.00024201354
0.00010974022
-0.0002606382
-0.00048657224
0.00011473469
-0.00041844554
-0.00080765667
9.471515e-05
-0.00059199866
-0.001120148
6.8034213e-05
-0.00075011814
-0.0013088143
4.864989e-05
-0.0008561481
-0.0013165411
-0.00087937349
-0.0011783908
4.0340838e-05
9.8828952e-06
-1.5421772e-05
-2.0966674e-05
4.1734626e-05
-6.4746503e-05
-9.8043587e-05
8.9331874e-05
-0.00015082231
-0.0002530861
0.00012683265
-0.00027828187
-0.0005086029
0.00013061966
-0.00043951783
-0.00084246616
0.00010540862
-0.0006130754
-0.0011641379
7.2805853e-05
-0.00076875206
-0.0013541831
4.7299234e-05
-0.00087029493
-0.001357217
-0.00088648062
-0.0012130788
3.287228e-05
1.1051402e-05
-1.5637991e-05
-2.1570663e-05
4.6904961e-05
-6.5073846e-05
-0.00010105815
0.00010050587
-0.00015006443
-0.00026118768
0.0001420955
-0.00027367376
-0.00052492926
0.00014523683
-0.00042717689
-0.00086835619
0.0001164352
-0.00059009768
-0.0011966129
8.003452e-05
-0.00073456798
-0.0013870445
5.0786111e-05
-0.00082679522
-0.0013859228
-0.00083661732
-0.0012368692
3.2745976e-05
1.191704e-05
-1.4143746e-05
-2.1943234e-05
5.0944146e-05
-5.8480837e-05
-0.00010302134
0.00010958551
-0.00013390631
-0.00026666714
0.00015486134
-0.00024225817
-0.00053625911
0.00015804824
-0.00037519547
-0.00088656057
0.00012715821
-0.00051508502
-0.0012194122
8.8663512e-05
-0.00063805127
-0.0014097467
5.789003e-05
-0.00071544176
-0.001405212
-0.00072035212
-0.0012523559
3.8615031e-05
1.2508582e-05
-1.0833438e-05
-2.2146173e-05
5.3893908e-05
-4.4583642e-05
-0.00010418991
0.00011655471
-0.00010158792
-0.00027010539
0.00016507387
-0.00018282337
-0.00054359893
0.00016893072
-0.00028176278
-0.00089852932
0.00013722706
-0.00038533987
-0.0012343741
9.7880581e-05
-0.00047570909
-0.0014243374
6.7138172e-05
-0.00053227121
-0.0014171802
-0.00053413003
-0.0012615853
4.8216142e-05
1.2853328e-05
-5.9384102e-06
-2.2298686e-05
5.5732016e-05
-2.4322422e-05
-0.0001049779
0.00012108957
-5.5188088e-05
-0.00027227663
0.00017193976
-9.8940133e-05
-0.00054803418
0.00017655716
-0.00015199207
-0.00090552545
0.00014495776
-0.00020736759
-0.0012428205
0.00010529716
-0.0002555247
-0.001432195
7.5394221e-05
-0.0002855742
-0.0014232227
-0.00028601378
-0.00126595
5.7555525e-05
1.2891413e-05
3.1231008e-11
-2.2307201e-05
5.6196841e-05
1.2117877e-10
-0.00010514119
0.00012256462
2.4573156e-10
-0.00027294254
0.00017436833
3.9260592e-10
-0.00054969843
0.00017936773
5.5063686e-10
-0.00090845056
0.00014813131
6.8099788e-10
-0.0012465357
0.0001086206
7.8256263e-10
-0.0014356931
7.9813347e-05
9.6214166e-10
-0.0014258626
1.1798653e-09
-0.0012677938
6.3222903e-05
1.2891408e-05
5.9384612e-06
-2.2307199e-05
5.6196852e-05
2.4322638e-05
-0.00010514118
0.00012256464
5.5188534e-05
-0.00027294251
0.00017436836
9.8940843e-05
-0.00054969838
0.00017936775
0.00015199307
-0.00090845048
0.0001481313
0.00020736884
-0.0012465356
0.00010862061
0.00025552619
-0.001435693
7.9813423e-05
0.00028557606
-0.0014258625
0.00028601602
-0.0012677938
6.3223104e-05
1.2853326e-05
1.0833473e-05
-2.2298687e-05
5.5732056e-05
4.4583817e-05
-0.0001049779
0.00012108961
0.00010158829
-0.00027227664
0.00017193982
0.00018282396
-0.00054803421
0.00017655719
0.00028176365
-0.0009055255
0.00014495775
0.00038534096
-0.0012428205
0.00010529719
0.00047571044
-0.001432195
7.5394364e-05
0.0005322729
-0.0014232226
0.000534132
-0.00126595
5.755591e-05
1.2508607e-05
1.4143759e-05
-2.214617e-05
5.3893982e-05
5.8480927e-05
-0.0001041899
0.00011655481
0.00013390653
-0.00027010536
0.00016507397
0.00024225859
-0.00054359887
0.00016893078
0.00037519614
-0.00089852922
0.00013722713
0.00051508586
-0.0012343739
9.7880683e-05
0.00063805235
-0.0014243372
6.7138321e-05
0.00071544325
-0.00141718
0.00072035402
-0.0012615853
4.8216385e-05
1.1917043e-05
1.5637993e-05
-2.1943234e-05
5.0944198e-05
6.5073877e-05
-0.00010302134
0.00010958561
0.00015006456
-0.00026666714
0.00015486143
0.00027367406
-0.00053625909
0.00015804833
0.00042717736
-0.00088656054
0.00012715836
0.00059009828
-0.0012194121
8.8663695e-05
0.00073456881
-0.0014097466
5.7890175e-05
0.00082679664
-0.001405212
0.00083661949
-0.001252356
3.8614977e-05
1.1051401e-05
1.5421774e-05
-2.1570666e-05
4.6904972e-05
6.474651e-05
-0.00010105816
0.0001005059
0.00015082238
-0.00026118771
0.00014209555
0.00027828207
-0.0005249293
0.00014523695
0.00043951809
-0.00086835623
0.00011643542
0.00061307571
-0.0011966129
8.003482e-05
0.00076875261
-0.0013870444
5.0786432e-05
0.00087029625
-0.0013859228
0.00088648307
-0.0012368693
3.2746074e-05
9.8829039e-06
1.3872723e-05
-2.0966679e-05
4.1734646e-05
5.8910357e-05
-9.8043607e-05
8.9331923e-05
0.00013905472
-0.00025308615
0.00012683274
0.00026063829
-0.00050860297
0.00013061984
0.00041844557
-0.00084246625
0.00010540888
0.00059199867
-0.001164138
7.2806239e-05
0.00075011842
-0.0013541831
4.7299726e-05
0.00085614921
-0.0013572171
0.00087937591
-0.0012130788
3.2872879e-05
8.4783607e-06
1.1457646e-05
-2.0098719e-05
3.5701899e-05
4.9372262e-05
-9.383737e-05
7.661555e-05
0.00011854307
-0.00024201363
0.00010974029
0.00022682112
-0.00048657239
0.00011473485
0.00037223897
-0.00080765688
9.4715402e-05
0.00053692647
-0.0011201483
6.8034576e-05
0.00069041395
-0.0013088145
4.8650405e-05
0.00079678558
-0.0013165411
0.00082697079
-0.0011783909
4.0341749e-05
6.8937989e-06
8.6807284e-06
-1.8989216e-05
2.9040627e-05
3.8070228e-05
-8.8482028e-05
6.269656e-05
9.3374761e-05
-0.00022793712
9.101329e-05
0.0001834672
-0.00045849548
9.7394482e-05
0.00030988101
-0.00076294146
8.3689588e-05
0.00045862854
-0.0010627525
6.5061023e-05
0.00060162476
-0.0012482108
5.4090562e-05
0.00070480608
-0.0012606602
0.00074073171
-0.0011294289
5.4752444e-05
5.417628e-06
5.8104954e-06
-1.7610897e-05
2.2865216e-05
2.6213092e-05
-8.1903071e-05
4.9846515e-05
6.6400398e-05
-0.00021076304
7.3853253e-05
0.00013566243
-0.0004242756
8.1926986e-05
0.00023892642
-0.00070809747
7.5317399e-05
0.00036713846
-0.00099126367
6.5986445e-05
0.00049543388
-0.0011708186
6.4826871e-05
0.00059267701
-0.0011871091
0.00063259205
-0.001063147
7.5812891e-05
3.9500993e-06
3.2211875e-06
-1.5924067e-05
1.6770772e-05
1.5272796e-05
-7.396258e-05
3.7072845e-05
4.0822366e-05
-0.00019021413
5.6378101e-05
8.8780717e-05
-0.00038340279
6.555924e-05
0.0001668045
-0.00064213078
6.5683813e-05
0.00027128196
-0.00090375421
6.6591064e-05
0.00038231792
-0.0010734918
7.6686614e-05
0.00047122431
-0.0010917687
0.00051291461
-0.0009751606
9.9361166e-05
2.6493916e-06
1.1209046e-06
-1.4023799e-05
1.1354791e-05
6.1713004e-06
-6.4997443e-05
2.5529715e-05
1.896151e-05
-0.00016690251
4.0070114e-05
4.7372574e-05
-0.00033655224
4.9485025e-05
0.00010061108
-0.00056516743
5.5431375e-05
0.0001799722
-0.00079889858
6.5895905e-05
0.00027141554
-0.00095284557
8.7346536e-05
0.00035043789
-0.00096962439
0.00039246144
-0.00086006304
0.00012069474
1.6356159e-06
-1.1865139e-05
-4.2407432e-07
6.934704e-06
-5.4875092e-05
-5.3724403e-07
1.5656736e-05
-0.00014063099
2.4637097e-06
2.5252171e-05
-0.00028341705
1.4812638e-05
3.3549604e-05
-0.00047640861
4.5866178e-05
4.3370583e-05
-0.00067450274
0.00010062873
6.1621622e-05
-0.0008044153
0.00017095627
9.2916642e-05
-0.00081437925
0.00023770857
-0.00071156626
0.00028248499
0.0001319736
-2.6234459e-07
1.4243939e-06
-1.1696644e-05
-1.3305401e-06
-1.456911e-06
6.2936712e-06
-5.4067371e-05
-5.906809e-06
-4.2917773e-06
1.5270609e-05
-0.00013868833
-1.4378374e-05
-9.1259508e-06
2.8548855e-05
-0.00028010705
-2.7024626e-05
-1.5276753e-05
4.348774e-05
-0.0004721038
-4.1641681e-05
-2.0961784e-05
5.4684359e-05
-0.00067006087
-5.3441133e-05
-2.4354579e-05
5.727216e-05
-0.00080054111
-5.7753514e-05
-2.4822996e-05
5.0731267e-05
-0.00081125756
-5.3384546e-05
3.8354239e-05
-0.00070898369
-4.2302293e-05
-2.3457529e-05
-2.7355819e-07
1.4391061e-06
-1.3764951e-05
-1.5264812e-06
6.3450817e-06
-6.3795928e-05
-4.3844851e-06
1.5317787e-05
-0.00016409168
-8.8575388e-06
2.8399527e-05
-0.00033192987
-1.3837191e-05
4.2751855e-05
-0.00055945192
-1.7407848e-05
5.2779916e-05
-0.00079342351
-1.8054028e-05
5.3616567e-05
-0.00094854387
-1.5670769e-05
4.5221296e-05
-0.00096649776
3.1862698e-05
-0.00085751517
-1.1727114e-05
-2.4728515e-07
1.3547103e-06
-1.5592385e-05
-1.411397e-06
5.977295e-06
-7.2430681e-05
-4.080039e-06
1.4431164e-05
-0.00018665888
-8.1095085e-06
2.6683044e-05
-0.00037765688
-1.2098866e-05
3.9855273e-05
-0.00063524492
-1.3978452e-05
4.8399823e-05
-0.00089749466
-1.2533978e-05
4.7651034e-05
-0.0010689709
-8.3407346e-06
3.804207e-05
-0.0010887828
2.4676511e-05
-0.0009727618
-3.55345e-06
-2.082961e-07
1.1824065e-06
-1.7230297e-05
-1.2391963e-06
5.2433411e-06
-8.0138226e-05
-3.6132632e-06
1.2724822e-05
-0.00020668266
-7.0288037e-06
2.3601092e-05
-0.00041777815
-9.9214505e-06
3.5172211e-05
-0.00070052182
-1.0264861e-05
4.2160225e-05
-0.00098468076
-7.2585775e-06
4.0212784e-05
-0.0011663867
-2.1277571e-06
3.0189755e-05
-0.0011843877
1.7666746e-05
-0.001060906
2.6409906e-06
-1.4939453e-07
9.3788607e-07
-1.8595294e-05
-9.8625138e-07
4.2220281e-06
-8.662384e-05
-2.9736463e-06
1.0406335e-05
-0.00022363121
-5.6927392e-06
1.9551919e-05
-0.00045172716
-7.4879196e-06
2.9298604e-05
-0.00075527262
-6.4717791e-06
3.4806329e-05
-0.0010564147
-2.3227249e-06
3.2097777e-05
-0.0012442448
3.2098461e-06
2.2346446e-05
-0.0012583495
1.1196714e-05
-0.001127329
7.579953e-06
-9.5524198e-08
6.6818184e-07
-1.9733485e-05
-7.5035238e-07
3.0901407e-06
-9.205063e-05
-2.364652e-06
7.8373043e-06
-0.00023783022
-4.4021321e-06
1.5090972e-05
-0.00048007382
-5.1452147e-06
2.2923168e-05
-0.00080053816
-2.90104e-06
2.7054066e-05
-0.00111464
2.1552179e-06
2.3949979e-05
-0.0013057228
7.8044402e-06
1.4983173e-05
-0.001314827
5.5101943e-06
-0.0011764658
1.1565991e-05
-3.3468802e-08
4.0344189e-07
-2.0668468e-05
-4.8332648e-07
1.9766787e-06
-9.6480271e-05
-1.6863156e-06
5.3019947e-06
-0.00024934781
-3.0140451e-06
1.0682925e-05
-0.00050286712
-2.7476495e-06
1.6655467e-05
-0.00083646486
5.6114138e-07
1.9580419e-05
-0.001159973
6.2736567e-06
1.640438e-05
-0.00135235
1.1794451e-05
8.5756923e-06
-0.0013563304
8.921725e-07
-0.0012114741
1.4807858e-05
2.7152978e-08
1.7880568e-07
-2.1373183e-05
-2.239116e-07
1.0200384e-06
-9.9850452e-05
-1.0279349e-06
3.0885673e-06
-0.00025817023
-1.680259e-06
6.7714209e-06
-0.00052036543
-4.9712478e-07
1.1043211e-05
-0.00086392708
3.7106411e-06
1.2956992e-05
-0.0011941973
9.8939362e-06
9.9881839e-06
-0.0013868116
1.5183722e-05
3.5100573e-06
-0.0013861469
-2.4018639e-06
-0.0012358242
1.743277e-05
8.0839789e-08
2.2717595e-08
-2.1867986e-05
4.518622e-09
3.3046406e-07
-0.00010225545
-4.4496425e-07
1.4222288e-06
-0.00026455132
-5.0005691e-07
3.6978975e-06
-0.00053313049
1.4655367e-06
6.5057006e-06
-0.00088398866
6.3960672e-06
7.6249779e-06
-0.0012190107
1.290292e-05
5.1020806e-06
-0.0014113674
1.7932422e-05
1.2509806e-07
-0.0014068566
-4.1301655e-06
-0.0012522147
1.9519455e-05
1.2328046e-07
-5.1097083e-08
-2.2195642e-05
1.8313831e-07
-3.8073458e-08
-0.00010388123
1.4837047e-08
4.1466914e-07
-0.00026892952
4.3855987e-07
1.6351018e-06
-0.00054195987
3.0245024e-06
3.2575344e-06
-0.0008978671
8.5007684e-06
3.8053096e-06
-0.0012360307
1.5230463e-05
1.9520611e-06
-0.0014279171
2.0061144e-05
-1.4212603e-06
-0.0014204645
-4.1653068e-06
-0.0012626544
2.1165401e-05
1.5005311e-07
-5.0213146e-08
-2.244962e-05
2.9702381e-07
-1.1423893e-07
-0.00010504871
3.1999946e-07
1.103986e-08
-0.00027189597
1.0823064e-06
5.1073749e-07
-0.00054767212
4.1061107e-06
1.2272355e-06
-0.00090651896
9.9599447e-06
1.4267632e-06
-0.0012462958
1.684019e-05
4.4091066e-07
-0.0014375641
2.1583217e-05
-1.261176e-06
-0.0014281258
-2.602893e-06
-0.0012682859
2.2356695e-05
1.6182758e-07
2.1026746e-13
-2.2519239e-05
3.4892942e-07
2.1649544e-12
-0.00010544254
4.6763558e-07
-4.7271131e-12
-0.0002730502
1.4054584e-06
-1.2886169e-11
-0.00055012551
4.656035e-06
1.2823929e-11
-0.00091047391
1.0702519e-05
7.5573082e-11
-0.0012511555
1.766316e-05
2.3180078e-10
-0.0014422131
2.2384096e-05
5.6695821e-10
-0.0014318453
1.0030454e-09
-0.001271004
2.2990323e-05
1.6182938e-07
5.0208735e-08
-2.2519236e-05
3.489448e-07
1.1423164e-07
-0.00010544252
4.676643e-07
-1.1065078e-08
-0.00027305016
1.4054988e-06
-5.1077859e-07
-0.00055012544
4.6560744e-06
-1.2272259e-06
-0.00091047381
1.0702566e-05
-1.4266333e-06
-0.0012511554
1.7663216e-05
-4.4044884e-07
-0.001442213
2.2384149e-05
1.2623367e-06
-0.0014318452
2.6049376e-06
-0.001271004
2.2990352e-05
1.5005228e-07
5.1089295e-08
-2.244962e-05
2.9703207e-07
3.8056993e-08
-0.00010504871
3.2001465e-07
-4.1471453e-07
-0.00027189597
1.0823327e-06
-1.6351752e-06
-0.00054767212
4.1061456e-06
-3.2575713e-06
-0.00090651895
9.9600104e-06
-3.8052368e-06
-0.0012462957
1.6840308e-05
-1.9516445e-06
-0.0014375641
2.1583351e-05
1.4224392e-06
-0.0014281258
4.1674191e-06
-0.0012682859
2.2356777e-05
1.2329202e-07
-2.2733426e-08
-2.2195638e-05
1.8316547e-07
-3.3050231e-07
-0.00010388121
1.4884475e-08
-1.4223102e-06
-0.00026892947
4.3862816e-07
-3.6980209e-06
-0.00054195976
3.0245982e-06
-6.5058149e-06
-0.00089786694
8.500937e-06
-7.6250126e-06
-0.0012360305
1.5230711e-05
-5.1017604e-06
-0.0014279169
2.0061424e-05
-1.2394168e-07
-0.0014204644
4.132305e-06
-0.0012626544
2.116565e-05
8.0848578e-08
-1.788301e-07
-2.1867984e-05
4.5436931e-09
-1.0201006e-06
-0.00010225544
-4.4491308e-07
-3.0886914e-06
-0.0002645513
-4.9997547e-07
-6.7716127e-06
-0.00053313043
1.4656835e-06
-1.1043447e-05
-0.00088398856
6.3963392e-06
-1.2957188e-05
-0.0012190106
1.2903318e-05
-9.988014e-06
-0.0014113673
1.7932912e-05
-3.5089879e-06
-0.0014068565
2.403844e-06
-0.0012522147
1.9520091e-05
2.7160658e-08
-4.0347261e-07
-2.1373184e-05
-2.2389181e-07
-1.9767552e-06
-9.9850456e-05
-1.0278982e-06
-5.3021541e-06
-0.00025817024
-1.6801806e-06
-1.0683198e-05
-0.00052036543
-4.9693913e-07
-1.6655857e-05
-0.00086392706
3.7109919e-06
-1.9580825e-05
-0.0011941972
9.894465e-06
-1.6404415e-05
-0.0013868115
1.5184431e-05
-8.5748007e-06
-0.0013861469
-8.905824e-07
-0.0012358242
1.7433864e-05
-3.3471435e-08
-6.6821091e-07
-2.066847e-05
-4.8334786e-07
-3.0902048e-06
-9.6480282e-05
-1.6863278e-06
-7.8374889e-06
-0.00024934784
-3.0139868e-06
-1.5091344e-05
-0.00050286716
-2.7474465e-06
-2.2923739e-05
-0.0008364649
5.6152076e-07
-2.7054699e-05
-0.0011599731
6.2742564e-06
-2.3950253e-05
-0.00135235
1.1795316e-05
-1.4982533e-05
-0.0013563304
-5.509018e-06
-0.0012114742
1.4809153e-05
-9.5518721e-08
-9.3792057e-07
-1.9733492e-05
-7.5034573e-07
-4.2220914e-06
-9.2050659e-05
-2.364634e-06
-1.040654e-05
-0.00023783029
-4.4020757e-06
-1.955235e-05
-0.00048007394
-5.1450711e-06
-2.9299299e-05
-0.00080053833
-2.9007414e-06
-3.4807156e-05
-0.0011146401
2.155777e-06
-3.209834e-05
-0.0013057229
7.8053263e-06
-2.2346116e-05
-0.0013148271
-1.1195723e-05
-0.0011764659
1.1567074e-05
-1.4939801e-07
-1.1824443e-06
-1.8595294e-05
-9.8625642e-07
-5.2434202e-06
-8.6623841e-05
-2.9736737e-06
-1.2725037e-05
-0.00022363121
-5.6927964e-06
-2.3601549e-05
-0.00045172716
-7.4879622e-06
-3.5172981e-05
-0.00075527261
-6.471684e-06
-4.2161232e-05
-0.0010564147
-2.3223505e-06
-4.0213661e-05
-0.0012442448
3.2105754e-06
-3.0189766e-05
-0.0012583494
-1.7665663e-05
-0.001127329
7.580628e-06
-2.0831109e-07
-1.3547361e-06
-1.7230294e-05
-1.2392517e-06
-5.9773382e-06
-8.0138213e-05
-3.6134047e-06
-1.4431298e-05
-0.00020668263
-7.0290696e-06
-2.6683393e-05
-0.00041777809
-9.9218532e-06
-3.9855944e-05
-0.00070052172
-1.0265281e-05
-4.840086e-05
-0.00098468062
-7.2588454e-06
-4.7652109e-05
-0.0011663865
-2.1276799e-06
-3.8042428e-05
-0.0011843876
-2.467546e-05
-0.001060906
2.6411404e-06
-2.4730751e-07
-1.4391154e-06
-1.559238e-05
-1.4114879e-06
-6.3450775e-06
-7.243066e-05
-4.0802908e-06
-1.5317798e-05
-0.00018665883
-8.1100376e-06
-2.8399661e-05
-0.00037765678
-1.2099756e-05
-4.275225e-05
-0.00063524476
-1.3979669e-05
-5.2780707e-05
-0.00089749445
-1.2535216e-05
-5.3617686e-05
-0.0010689707
-8.3417313e-06
-4.5221904e-05
-0.0010887827
-3.1862111e-05
-0.00097276178
-3.5539018e-06
-2.7358537e-07
-1.4243788e-06
-1.376495e-05
-1.5265842e-06
-6.2935986e-06
-6.3795923e-05
-4.3847476e-06
-1.5270473e-05
-0.00016409167
-8.8581195e-06
-2.854869e-05
-0.00033192984
-1.3838349e-05
-4.3487588e-05
-0.00055945187
-1.7409728e-05
-5.4684479e-05
-0.00079342344
-1.8056336e-05
-5.727286e-05
-0.00094854379
-1.5673259e-05
-5.0731641e-05
-0.00096649774
-3.8354315e-05
-0.00085751522
-1.1728895e-05
-2.6235916e-07
-1.1696646e-05
-1.3305136e-06
-1.4569673e-06
-5.4067376e-05
-5.9067068e-06
-4.2919372e-06
-0.00013868834
-1.4378164e-05
-9.1263055e-06
-0.00028010707
-2.7024311e-05
-1.5277326e-05
-0.00047210382
-4.1641366e-05
-2.0962666e-05
-0.00067006089
-5.3440995e-05
-2.4356203e-05
-0.00080054114
-5.77535e-05
-2.4825878e-05
-0.0008112576
-5.3383623e-05
-0.00070898373
-4.2302442e-05
-2.34603e-05
-1.0416593e-07
-2.2985377e-07
-1.1526599e-05
1.6397437e-07
-4.5152773e-07
-1.0964486e-06
-5.3433838e-05
8.1027839e-07
-1.1699744e-06
-2.9994138e-06
-0.00013723352
2.2630593e-06
-2.4218982e-06
-6.7693247e-06
-0.00027725814
5.1723455e-06
-3.9936554e-06
-1.3438778e-05
-0.00046744698
1.0353722e-05
-4.7718619e-06
-2.366456e-05
-0.00066394296
1.8324862e-05
-2.8451727e-06
-3.6777504e-05
-0.00079423174
2.854144e-05
3.2813888e-06
-5.0207866e-05
-0.000806223
3.9046746e-05
-6.0011486e-05
-0.00070581402
4.7364556e-05
1.2758653e-05
-1.278539e-07
-3.1008828e-07
-1.3556863e-05
-5.2813215e-07
-1.4507924e-06
-6.3041305e-05
-1.3376493e-06
-3.8884083e-06
-0.00016239317
-2.7902178e-06
-8.6027668e-06
-0.00032864387
-4.7321382e-06
-1.6815194e-05
-0.00055413359
-6.0223076e-06
-2.9307054e-05
-0.00078649085
-4.6615445e-06
-4.5233166e-05
-0.00094144897
8.9137631e-07
-6.1298895e-05