/*--------------------------------*- C++ -*----------------------------------*\
| =========                 |                                                 |
| \\      /  F ield         | OpenFOAM: The Open Source CFD Toolbox           |
|  \\    /   O peration     | Version:  2406                                  |
|   \\  /    A nd           | Website:  www.openfoam.com                      |
|    \\/     M anipulation  |                                                 |
\*---------------------------------------------------------------------------*/
FoamFile
{
    version     2.0;
    format      ascii;
    arch        "LSB;label=32;scalar=64";
    class       volScalarField;
    location    "45";
    object      p;
}
// * * * * * * * * * * * * * * * * * * * * * * * * * * * * * * * * * * * * * //

dimensions      [0 2 -2 0 0 0 0];

internalField   nonuniform List<scalar> 
1176
(
0.79699976
0.79702263
0.79704629
0.79705396
0.79702243
0.79692773
0.7967705
0.79658434
0.79640514
0.79623798
0.79608336
0.79598775
0.79598775
0.79608335
0.79623796
0.79640509
0.79658425
0.79677037
0.79692753
0.79702213
0.79705353
0.79704571
0.7970219
0.79699891
0.77385133
0.77380437
0.77375661
0.77373971
0.77380221
0.77400457
0.77436989
0.7748343
0.77526516
0.77555126
0.77567065
0.77570491
0.77570492
0.77567066
0.77555128
0.7752652
0.77483437
0.77437001
0.77400475
0.77380245
0.77374001
0.77375697
0.77380479
0.77385179
0.75676657
0.75678858
0.75680838
0.75680647
0.75674741
0.75658623
0.75631447
0.75598652
0.7556803
0.75546751
0.75535671
0.75530789
0.75530789
0.7553567
0.75546748
0.75568026
0.75598646
0.75631441
0.75658619
0.75674737
0.75680645
0.75680838
0.7567886
0.7567666
0.74009468
0.74010381
0.74011586
0.74013226
0.74015481
0.74017238
0.74014015
0.74000673
0.73977462
0.73950206
0.73927785
0.73915736
0.73915736
0.73927785
0.73950205
0.73977461
0.74000672
0.74014014
0.74017237
0.7401548
0.74013226
0.74011585
0.74010379
0.74009465
0.72367563
0.72367958
0.72368458
0.72369064
0.72370034
0.72372061
0.7237568
0.72379831
0.72381998
0.72379611
0.72373399
0.72368136
0.72368136
0.72373399
0.72379611
0.72381998
0.72379831
0.7237568
0.72372062
0.72370035
0.72369065
0.72368459
0.7236796
0.72367565
0.70721397
0.70721639
0.70721963
0.70722368
0.70722859
0.70723542
0.70724959
0.7072809
0.70733089
0.70738814
0.70743085
0.70744751
0.70744751
0.70743085
0.70738814
0.70733089
0.7072809
0.70724959
0.70723542
0.70722859
0.70722367
0.70721963
0.70721639
0.70721397
0.69080817
0.6908103
0.69081311
0.69081654
0.69082044
0.69082395
0.69082602
0.69082819
0.69083674
0.69085397
0.69087187
0.69088359
0.69088359
0.69087187
0.69085398
0.69083675
0.6908282
0.69082602
0.69082395
0.69082044
0.69081654
0.69081311
0.69081029
0.69080816
0.6744283
0.67443006
0.67443239
0.67443531
0.67443898
0.67444335
0.6744478
0.67445096
0.67445219
0.67445381
0.67445086
0.67444835
0.67444835
0.67445086
0.67445381
0.6744522
0.67445096
0.67444781
0.67444335
0.67443898
0.6744353
0.67443238
0.67443005
0.67442829
0.65807402
0.65807547
0.6580774
0.65807981
0.65808283
0.65808661
0.65809166
0.65809871
0.65810739
0.65811742
0.65812519
0.65812877
0.65812877
0.65812519
0.65811742
0.65810739
0.65809871
0.65809166
0.65808661
0.65808283
0.65807981
0.65807739
0.65807546
0.65807401
0.64173633
0.64173753
0.64173914
0.64174117
0.64174374
0.64174691
0.64175108
0.64175747
0.64176762
0.64178076
0.64179509
0.64180439
0.64180439
0.64179509
0.64178076
0.64176763
0.64175747
0.64175108
0.64174691
0.64174373
0.64174117
0.64173913
0.64173752
0.64173631
0.62541195
0.62541297
0.62541435
0.62541609
0.62541831
0.62542103
0.62542443
0.62542927
0.62543714
0.6254478
0.62546036
0.62546949
0.62546949
0.62546036
0.6254478
0.62543714
0.62542928
0.62542443
0.62542103
0.6254183
0.62541609
0.62541434
0.62541296
0.62541193
0.60909847
0.60909936
0.60910056
0.60910209
0.60910403
0.60910643
0.60910939
0.6091134
0.60911962
0.60912828
0.60913884
0.60914629
0.60914629
0.60913884
0.60912828
0.60911962
0.6091134
0.60910939
0.60910643
0.60910402
0.60910208
0.60910055
0.60909934
0.60909845
0.59279428
0.59279506
0.59279612
0.59279747
0.59279919
0.59280132
0.59280395
0.59280749
0.59281289
0.59282064
0.59283033
0.59283701
0.59283701
0.59283033
0.59282064
0.5928129
0.5928075
0.59280396
0.59280132
0.59279918
0.59279745
0.5927961
0.59279504
0.59279425
0.57649806
0.57649876
0.5764997
0.5765009
0.57650244
0.57650434
0.57650669
0.57650983
0.5765146
0.57652157
0.57653024
0.57653632
0.57653632
0.57653024
0.57652157
0.5765146
0.57650983
0.57650669
0.57650434
0.57650243
0.57650088
0.57649967
0.57649873
0.57649802
0.56020879
0.56020942
0.56021026
0.56021134
0.56021273
0.56021444
0.56021654
0.56021931
0.56022347
0.5602296
0.56023712
0.56024252
0.56024252
0.56023712
0.5602296
0.56022347
0.56021931
0.56021655
0.56021444
0.56021272
0.56021132
0.56021023
0.56020938
0.56020875
0.54392567
0.54392624
0.543927
0.54392798
0.54392923
0.54393079
0.54393268
0.54393514
0.54393877
0.54394415
0.54395069
0.54395548
0.54395548
0.54395069
0.54394415
0.54393878
0.54393515
0.54393269
0.54393079
0.54392922
0.54392796
0.54392697
0.54392619
0.54392562
0.52764804
0.52764856
0.52764925
0.52765015
0.52765129
0.52765271
0.52765443
0.52765663
0.52765985
0.52766461
0.52767034
0.52767463
0.52767463
0.52767034
0.52766462
0.52765986
0.52765664
0.52765443
0.5276527
0.52765128
0.52765012
0.52764922
0.52764851
0.52764799
0.51137536
0.51137584
0.51137647
0.51137729
0.51137834
0.51137963
0.5113812
0.51138319
0.51138607
0.51139032
0.51139537
0.51139923
0.51139923
0.51139537
0.51139032
0.51138608
0.5113832
0.51138121
0.51137963
0.51137832
0.51137726
0.51137643
0.51137579
0.51137531
0.49510717
0.4951076
0.49510819
0.49510894
0.4951099
0.49511109
0.49511253
0.49511434
0.49511692
0.49512072
0.49512522
0.4951287
0.4951287
0.49512522
0.49512073
0.49511692
0.49511435
0.49511254
0.49511109
0.49510988
0.4951089
0.49510814
0.49510755
0.4951071
0.47884306
0.47884346
0.478844
0.47884469
0.47884558
0.47884668
0.478848
0.47884965
0.47885197
0.4788554
0.47885943
0.47886258
0.47886258
0.47885943
0.4788554
0.47885198
0.47884966
0.47884801
0.47884667
0.47884556
0.47884465
0.47884395
0.4788434
0.47884299
0.46258269
0.46258306
0.46258355
0.46258419
0.46258502
0.46258603
0.46258726
0.46258877
0.46259087
0.46259397
0.46259761
0.46260048
0.46260048
0.46259761
0.46259397
0.46259088
0.46258878
0.46258726
0.46258603
0.46258499
0.46258416
0.4625835
0.46258299
0.46258261
0.44632575
0.4463261
0.44632656
0.44632715
0.44632791
0.44632886
0.44632999
0.44633138
0.44633329
0.44633611
0.44633942
0.44634203
0.44634203
0.44633943
0.44633612
0.44633331
0.44633139
0.44633
0.44632885
0.44632789
0.44632711
0.4463265
0.44632602
0.44632567
0.43007199
0.43007231
0.43007274
0.43007329
0.430074
0.43007487
0.43007592
0.43007721
0.43007896
0.43008153
0.43008456
0.43008694
0.43008694
0.43008456
0.43008154
0.43007897
0.43007722
0.43007593
0.43007487
0.43007397
0.43007324
0.43007267
0.43007222
0.43007189
0.41382115
0.41382145
0.41382185
0.41382236
0.41382302
0.41382384
0.41382482
0.41382601
0.41382761
0.41382997
0.41383275
0.41383494
0.41383494
0.41383276
0.41382998
0.41382763
0.41382602
0.41382483
0.41382384
0.413823
0.41382231
0.41382178
0.41382136
0.41382105
0.39757304
0.39757331
0.39757369
0.39757416
0.39757478
0.39757555
0.39757646
0.39757756
0.39757904
0.3975812
0.39758377
0.39758578
0.39758578
0.39758377
0.39758121
0.39757906
0.39757758
0.39757647
0.39757554
0.39757475
0.39757411
0.39757361
0.39757321
0.39757292
0.38132744
0.3813277
0.38132805
0.3813285
0.38132907
0.38132979
0.38133064
0.38133167
0.38133303
0.38133503
0.3813374
0.38133925
0.38133925
0.38133741
0.38133504
0.38133305
0.38133169
0.38133065
0.38132978
0.38132904
0.38132844
0.38132796
0.38132759
0.38132732
0.3650842
0.36508444
0.36508477
0.36508519
0.36508573
0.3650864
0.36508719
0.36508815
0.36508942
0.36509126
0.36509346
0.36509517
0.36509517
0.36509347
0.36509127
0.36508944
0.36508817
0.36508721
0.36508639
0.36508569
0.36508512
0.36508467
0.36508432
0.36508406
0.34884315
0.34884338
0.34884368
0.34884407
0.34884458
0.34884521
0.34884595
0.34884685
0.34884802
0.34884973
0.34885178
0.34885336
0.34885336
0.34885178
0.34884974
0.34884805
0.34884687
0.34884597
0.3488452
0.34884454
0.348844
0.34884358
0.34884325
0.348843
0.33260415
0.33260436
0.33260464
0.33260501
0.33260549
0.33260608
0.33260678
0.33260761
0.33260871
0.33261029
0.3326122
0.33261366
0.33261366
0.3326122
0.3326103
0.33260873
0.33260764
0.33260679
0.33260607
0.33260544
0.33260493
0.33260453
0.33260421
0.33260398
0.31636706
0.31636726
0.31636752
0.31636787
0.31636832
0.31636887
0.31636953
0.31637031
0.31637133
0.3163728
0.31637458
0.31637594
0.31637594
0.31637459
0.31637281
0.31637136
0.31637034
0.31636954
0.31636886
0.31636827
0.31636778
0.3163674
0.3163671
0.31636688
0.30013176
0.30013195
0.3001322
0.30013252
0.30013294
0.30013346
0.30013408
0.30013481
0.30013577
0.30013714
0.30013881
0.30014007
0.30014007
0.30013881
0.30013715
0.3001358
0.30013485
0.3001341
0.30013345
0.30013289
0.30013243
0.30013206
0.30013177
0.30013156
0.28389814
0.28389832
0.28389856
0.28389886
0.28389926
0.28389974
0.28390033
0.28390101
0.28390191
0.28390318
0.28390474
0.28390592
0.28390592
0.28390475
0.2839032
0.28390194
0.28390105
0.28390034
0.28389973
0.2838992
0.28389876
0.28389841
0.28389813
0.28389793
0.2676661
0.26766627
0.26766649
0.26766678
0.26766715
0.26766761
0.26766816
0.2676688
0.26766964
0.26767083
0.2676723
0.2676734
0.2676734
0.2676723
0.26767085
0.26766967
0.26766884
0.26766818
0.2676676
0.26766709
0.26766667
0.26766633
0.26766606
0.26766587
0.25143554
0.2514357
0.25143591
0.25143618
0.25143653
0.25143696
0.25143748
0.25143809
0.25143887
0.25143999
0.25144136
0.25144238
0.25144238
0.25144136
0.25144001
0.25143891
0.25143813
0.2514375
0.25143695
0.25143646
0.25143606
0.25143573
0.25143548
0.25143529
0.23520638
0.23520652
0.23520672
0.23520698
0.23520731
0.23520771
0.2352082
0.23520877
0.23520951
0.23521056
0.23521184
0.2352128
0.2352128
0.23521185
0.23521058
0.23520955
0.23520882
0.23520822
0.2352077
0.23520723
0.23520684
0.23520653
0.23520628
0.2352061
0.21897852
0.21897866
0.21897884
0.21897909
0.2189794
0.21897978
0.21898024
0.21898078
0.21898147
0.21898245
0.21898366
0.21898455
0.21898455
0.21898366
0.21898247
0.21898151
0.21898083
0.21898027
0.21897976
0.21897932
0.21897894
0.21897864
0.2189784
0.21897822
0.20275189
0.20275202
0.2027522
0.20275243
0.20275272
0.20275309
0.20275352
0.20275403
0.20275467
0.2027556
0.20275673
0.20275758
0.20275758
0.20275674
0.20275562
0.20275472
0.20275408
0.20275355
0.20275307
0.20275264
0.20275227
0.20275198
0.20275175
0.20275158
0.18652643
0.18652656
0.18652672
0.18652694
0.18652721
0.18652756
0.18652797
0.18652844
0.18652905
0.18652992
0.18653098
0.18653177
0.18653176
0.18653098
0.18652994
0.18652911
0.1865285
0.186528
0.18652754
0.18652712
0.18652677
0.18652648
0.18652626
0.18652609
0.17030206
0.17030218
0.17030234
0.17030254
0.1703028
0.17030312
0.17030351
0.17030396
0.17030454
0.17030535
0.17030636
0.1703071
0.17030709
0.17030636
0.17030538
0.17030459
0.17030402
0.17030354
0.1703031
0.1703027
0.17030236
0.17030208
0.17030186
0.17030169
0.15407873
0.15407884
0.15407899
0.15407918
0.15407943
0.15407973
0.1540801
0.15408053
0.15408106
0.15408182
0.15408276
0.15408344
0.15408344
0.15408276
0.15408185
0.15408113
0.15408059
0.15408014
0.15407971
0.15407932
0.15407899
0.15407872
0.1540785
0.15407834
0.13785637
0.13785647
0.13785661
0.13785679
0.13785702
0.13785731
0.13785766
0.13785806
0.13785857
0.13785928
0.13786017
0.13786081
0.13786081
0.13786017
0.13785931
0.13785863
0.13785813
0.1378577
0.13785729
0.13785691
0.13785659
0.13785632
0.1378561
0.13785595
0.12163494
0.12163503
0.12163517
0.12163534
0.12163556
0.12163583
0.12163616
0.12163654
0.12163701
0.12163766
0.12163847
0.12163906
0.12163906
0.12163848
0.1216377
0.12163708
0.12163661
0.1216362
0.12163581
0.12163544
0.12163512
0.12163486
0.12163465
0.12163449
0.10541435
0.10541444
0.10541457
0.10541473
0.10541494
0.1054152
0.10541551
0.10541586
0.10541631
0.10541692
0.10541768
0.10541822
0.10541822
0.10541768
0.10541696
0.10541638
0.10541594
0.10541555
0.10541517
0.10541482
0.1054145
0.10541424
0.10541404
0.10541389
0.089194636
0.089194724
0.089194843
0.089194997
0.089195195
0.089195441
0.089195731
0.089196064
0.089196469
0.089197009
0.089197654
0.089198107
0.089198103
0.089197658
0.089197048
0.089196546
0.089196147
0.089195775
0.089195409
0.089195064
0.089194757
0.089194502
0.089194298
0.089194151
0.07297563
0.072975712
0.072975825
0.07297597
0.07297616
0.072976396
0.072976674
0.072976992
0.072977371
0.072977866
0.07297844
0.072978822
0.072978817
0.072978443
0.072977906
0.07297745
0.072977077
0.072976719
0.07297636
0.072976022
0.072975722
0.072975474
0.072975277
0.072975136
0.056757509
0.056757589
0.056757698
0.056757837
0.056758014
0.056758232
0.056758488
0.056758775
0.056759099
0.056759473
0.056759839
0.056760037
0.05676003
0.05675984
0.056759512
0.056759179
0.056758861
0.056758531
0.056758194
0.056757873
0.056757585
0.056757346
0.056757154
0.056757017
0.040539722
0.040539792
0.04053989
0.040540022
0.040540199
0.040540425
0.040540693
0.040540988
0.040541317
0.040541722
0.040542179
0.040542468
0.04054246
0.040542176
0.040541757
0.040541395
0.040541073
0.040540737
0.040540389
0.040540065
0.040539785
0.040539563
0.040539392
0.040539273
0.024323454
0.024323536
0.024323644
0.024323773
0.024323921
0.024324085
0.02432426
0.024324446
0.024324615
0.024324691
0.024324594
0.024324345
0.024324336
0.024324586
0.024324719
0.024324683
0.024324521
0.024324296
0.024324049
0.024323803
0.024323576
0.024323384
0.024323229
0.024323118
0.0081053604
0.0081054311
0.0081055247
0.008105647
0.0081058091
0.0081060102
0.0081062325
0.0081064737
0.0081068531
0.0081076879
0.0081091598
0.0081105166
0.0081105098
0.0081091518
0.0081077016
0.0081068939
0.0081065201
0.0081062534
0.0081059837
0.0081057289
0.0081055176
0.0081053584
0.0081052404
0.0081051563
)
;

boundaryField
{
    INLET
    {
        type            zeroGradient;
    }
    OUTLET
    {
        type            fixedValue;
        value           uniform 0;
    }
    WALL
    {
        type            zeroGradient;
    }
    frontAndBackPlanes
    {
        type            empty;
    }
}


// ************************************************************************* //
