/*--------------------------------*- C++ -*----------------------------------*\
| =========                 |                                                 |
| \\      /  F ield         | OpenFOAM: The Open Source CFD Toolbox           |
|  \\    /   O peration     | Version:  2406                                  |
|   \\  /    A nd           | Website:  www.openfoam.com                      |
|    \\/     M anipulation  |                                                 |
\*---------------------------------------------------------------------------*/
FoamFile
{
    version     2.0;
    format      ascii;
    arch        "LSB;label=32;scalar=64";
    class       surfaceScalarField;
    location    "45";
    object      phi;
}
// * * * * * * * * * * * * * * * * * * * * * * * * * * * * * * * * * * * * * //

dimensions      [0 3 -1 0 0 0 0];

oriented        oriented;

internalField   nonuniform List<scalar> 
2279
(
2.3617407e-08
1.0148926e-05
2.0509749e-07
4.982375e-05
6.9331742e-07
0.00014252872
1.5784714e-06
0.00034353082
2.6788476e-06
0.00075378089
3.3472912e-06
0.0015415573
3.0435197e-06
0.0029497096
2.1516837e-06
0.005249171
1.4318031e-06
0.008582269
9.89591e-07
0.012685995
5.1266635e-07
0.016666385
2.0596864e-13
0.01918202
-5.1266073e-07
0.01918202
-9.8956604e-07
0.016666385
-1.4317348e-06
0.012685995
-2.1515323e-06
0.0085822689
-3.0432439e-06
0.0052491709
-3.3468317e-06
0.0029497094
-2.6781443e-06
0.0015415572
-1.5775867e-06
0.00075378075
-6.9243012e-07
0.00034353072
-2.0446409e-07
0.00014252866
-2.330891e-08
4.9823723e-05
1.0148919e-05
-9.5248481e-08
1.0244175e-05
-5.3794011e-07
5.0266441e-05
-1.6230013e-06
0.00014361378
-3.5389526e-06
0.00034544677
-5.920187e-06
0.00075616213
-7.4055032e-06
0.0015430426
-6.5847286e-06
0.0029488888
-3.9361614e-06
0.0052465224
-1.3883911e-06
0.0085797213
-6.5121721e-08
0.012684671
2.4240264e-07
0.016666078
-7.5413272e-12
0.019182263
-2.4242043e-07
0.019182263
6.509532e-08
0.016666078
1.3883474e-06
0.012684671
3.9360825e-06
0.0085797214
6.5845836e-06
0.0052465225
7.405259e-06
0.0029488889
5.9198357e-06
0.0015430427
3.5385493e-06
0.00075616219
1.6226409e-06
0.0003454468
5.3770494e-07
0.00014361379
9.5144731e-08
5.0266446e-05
1.0244176e-05
5.0139796e-08
1.0194035e-05
2.6334487e-07
5.0053236e-05
7.4910696e-07
0.00014312802
1.531458e-06
0.00034466442
2.3366551e-06
0.00075535693
2.5476611e-06
0.0015428316
1.8390948e-06
0.0029495974
9.7567267e-07
0.0052473858
6.769553e-07
0.00858002
6.7178227e-07
0.012684677
4.841592e-07
0.016666266
-3.3060002e-12
0.019182747
-4.8416375e-07
0.019182747
-6.7178092e-07
0.016666266
-6.7694501e-07
0.012684677
-9.7567401e-07
0.0085800199
-1.839125e-06
0.0052473858
-2.5477204e-06
0.0029495974
-2.3367389e-06
0.0015428316
-1.531554e-06
0.00075535692
-7.4919792e-07
0.00034466442
-2.6340985e-07
0.00014312802
-5.0172938e-08
5.0053238e-05
1.0194036e-05
1.958653e-08
1.0174448e-05
1.1184881e-07
4.9960974e-05
3.6128352e-07
0.00014287858
9.0504671e-07
0.00034412066
1.8716587e-06
0.00075439032
3.0948222e-06
0.0015416085
3.8987223e-06
0.0029487935
3.7285524e-06
0.005247556
2.9242062e-06
0.0085808243
1.9733685e-06
0.012685627
1.012765e-06
0.016667226
9.0690082e-13
0.01918376
-1.0127556e-06
0.01918376
-1.973341e-06
0.016667226
-2.9241677e-06
0.012685627
-3.7285222e-06
0.0085808243
-3.898712e-06
0.005247556
-3.0948226e-06
0.0029487935
-1.8716525e-06
0.0015416085
-9.0502582e-07
0.00075439031
-3.6125347e-07
0.00034412065
-1.11824e-07
0.00014287858
-1.9573583e-08
4.9960972e-05
1.0174448e-05
8.0837827e-09
1.0166364e-05
4.7141089e-08
4.9921916e-05
1.5494621e-07
0.00014277078
3.9846221e-07
0.00034387714
8.7979365e-07
0.00075390899
1.7015156e-06
0.0015407867
2.7512745e-06
0.0029477437
3.4623601e-06
0.0052468449
3.4708586e-06
0.0085808158
2.8006809e-06
0.012686298
1.5505082e-06
0.016668476
-3.3967834e-12
0.01918531
-1.5505101e-06
0.01918531
-2.8006737e-06
0.016668476
-3.4708507e-06
0.012686298
-3.4623597e-06
0.0085808158
-2.7512811e-06
0.0052468449
-1.7015264e-06
0.0029477437
-8.7980808e-07
0.0015407867
-3.9847921e-07
0.00075390899
-1.5496277e-07
0.00034387714
-4.7152481e-08
0.00014277078
-8.0890653e-09
4.9921917e-05
1.0166365e-05
4.9357435e-09
1.0161429e-05
2.8698547e-08
4.9898153e-05
9.5120934e-08
0.00014270436
2.4921374e-07
0.00034372305
5.6360899e-07
0.00075359459
1.121375e-06
0.001540229
1.918458e-06
0.0029469467
2.6588206e-06
0.0052461046
2.8930571e-06
0.0085805816
2.4787619e-06
0.012686712
1.4344199e-06
0.016669521
-4.0717088e-12
0.019186745
-1.4344245e-06
0.019186745
-2.4787601e-06
0.016669521
-2.8930523e-06
0.012686712
-2.6588183e-06
0.0085805816
-1.9184556e-06
0.0052461046
-1.1213704e-06
0.0029469467
-5.6360279e-07
0.001540229
-2.4920802e-07
0.00075359459
-9.5117696e-08
0.00034372305
-2.8697294e-08
0.00014270436
-4.9355758e-09
4.9898153e-05
1.0161429e-05
4.4122295e-09
1.0157016e-05
2.5525379e-08
4.987704e-05
8.3829659e-08
0.00014264605
2.1689365e-07
0.00034358999
4.8450091e-07
0.00075332698
9.5636115e-07
0.0015397571
1.6413745e-06
0.0029462616
2.3245829e-06
0.0052454214
2.5939522e-06
0.0085803122
2.2393595e-06
0.012687066
1.3066688e-06
0.016670453
-3.1473474e-12
0.019188051
-1.3066729e-06
0.019188051
-2.2393606e-06
0.016670453
-2.5939527e-06
0.012687066
-2.3245824e-06
0.0085803122
-1.6413704e-06
0.0052454214
-9.5635215e-07
0.0029462616
-4.8448775e-07
0.0015397571
-2.1687909e-07
0.00075332698
-8.3817186e-08
0.00034358999
-2.5517217e-08
0.00014264605
-4.408499e-09
4.987704e-05
1.0157016e-05
3.6255155e-09
1.0153391e-05
2.1036511e-08
4.9859629e-05
6.9437949e-08
0.00014259765
1.8114125e-07
0.00034347828
4.0971424e-07
0.00075309841
8.2390408e-07
0.0015393429
1.4539929e-06
0.0029456316
2.1430759e-06
0.0052447323
2.4674725e-06
0.0085799878
2.1883911e-06
0.012687346
1.2866393e-06
0.016671355
-2.5101418e-12
0.019189338
-1.2866439e-06
0.019189338
-2.1883959e-06
0.016671355
-2.4674779e-06
0.012687346
-2.1430788e-06
0.0085799878
-1.4539913e-06
0.0052447323
-8.2389738e-07
0.0029456316
-4.0970352e-07
0.0015393429
-1.8112889e-07
0.00075309841
-6.9427108e-08
0.00034347828
-2.1029219e-08
0.00014259765
-3.6220884e-09
4.9859629e-05
1.0153391e-05
2.9832469e-09
1.0150408e-05
1.7347198e-08
4.9845265e-05
5.7377486e-08
0.00014255762
1.5007389e-07
0.00034338559
3.4097107e-07
0.00075290751
6.9193172e-07
0.001538992
1.2441088e-06
0.0029450794
1.9041859e-06
0.0052440722
2.3015999e-06
0.0085795904
2.0975063e-06
0.01268755
1.2520081e-06
0.016672201
-2.0657796e-12
0.01919059
-1.2520126e-06
0.01919059
-2.0975124e-06
0.016672201
-2.301607e-06
0.01268755
-1.9041906e-06
0.0085795904
-1.2441088e-06
0.0052440722
-6.9192577e-07
0.0029450794
-3.4095973e-07
0.001538992
-1.5005988e-07
0.00075290751
-5.7364838e-08
0.00034338559
-1.7338568e-08
0.00014255762
-2.9791728e-09
4.9845265e-05
1.0150408e-05
2.4655843e-09
1.0147942e-05
1.4363405e-08
4.9833367e-05
4.7626799e-08
0.00014252436
1.2502882e-07
0.00034330818
2.855888e-07
0.00075274695
5.8417905e-07
0.0015386934
1.0641839e-06
0.0029445994
1.6641572e-06
0.0052434722
2.0898734e-06
0.0085791647
1.9528927e-06
0.012687687
1.1802428e-06
0.016672973
-1.8418461e-12
0.01919177
-1.1802473e-06
0.01919177
-1.9528996e-06
0.016672973
-2.0898815e-06
0.012687687
-1.6641633e-06
0.0085791647
-1.0641848e-06
0.0052434722
-5.8417218e-07
0.0029445994
-2.8557461e-07
0.0015386934
-1.2501097e-07
0.00075274695
-4.7610675e-08
0.00034330818
-1.4352421e-08
0.00014252436
-2.4604118e-09
4.9833367e-05
1.0147942e-05
2.1025589e-09
1.014584e-05
1.2258259e-08
4.9823212e-05
4.0688465e-08
0.00014249593
1.0699022e-07
0.00034324188
2.4507818e-07
0.00075260886
5.0385235e-07
0.0015384346
9.262339e-07
0.002944177
1.4715102e-06
0.0052429269
1.890907e-06
0.0085787453
1.805021e-06
0.012687772
1.1036887e-06
0.016673675
-1.419051e-12
0.019192874
-1.1036928e-06
0.019192874
-1.8050281e-06
0.016673675
-1.890916e-06
0.012687772
-1.4715173e-06
0.0085787453
-9.2623467e-07
0.0052429269
-5.0384313e-07
0.002944177
-2.4505967e-07
0.0015384346
-1.0696736e-07
0.00075260886
-4.0668181e-08
0.00034324188
-1.2244609e-08
0.00014249593
-2.0961907e-09
4.9823212e-05
1.014584e-05
1.8282756e-09
1.0144011e-05
1.0665563e-08
4.9814374e-05
3.5430341e-08
0.00014247116
9.3282894e-08
0.00034318403
2.1413878e-07
0.00075248801
4.4192685e-07
0.0015382068
8.181126e-07
0.0029438008
1.3163796e-06
0.0052424287
1.7244929e-06
0.0085783372
1.678042e-06
0.012687819
1.0378041e-06
0.016674315
-6.3680519e-13
0.019193912
-1.037807e-06
0.019193912
-1.6780487e-06
0.016674315
-1.7245022e-06
0.012687819
-1.3163871e-06
0.0085783372
-8.1811246e-07
0.0052424287
-4.4191418e-07
0.0029438008
-2.1411464e-07
0.0015382068
-9.3253747e-08
0.00075248801
-3.5404918e-08
0.00034318403
-1.0648655e-08
0.00014247116
-1.8204572e-09
4.9814374e-05
1.0144011e-05
1.6104943e-09
1.0142401e-05
9.3996726e-09
4.9806585e-05
3.1244397e-08
0.00014244932
8.234029e-08
0.00034313293
1.893204e-07
0.00075238103
3.9182253e-07
0.0015380043
7.292409e-07
0.0029434634
1.1851451e-06
0.0052419728
1.5781751e-06
0.0085779441
1.5623397e-06
0.012687835
9.76699e-07
0.0166749
4.0228138e-13
0.019194888
-9.767002e-07
0.019194888
-1.5623455e-06
0.0166749
-1.5781844e-06
0.012687835
-1.1851527e-06
0.0085779441
-7.2923934e-07
0.0052419728
-3.9180572e-07
0.0029434634
-1.8928982e-07
0.0015380043
-8.2304054e-08
0.00075238103
-3.1213171e-08
0.00034313293
-9.3790819e-09
0.00014244932
-1.6010316e-09
4.9806585e-05
1.0142401e-05
1.4323217e-09
1.0140969e-05
8.3630443e-09
4.9799654e-05
2.7812656e-08
0.00014242987
7.3352815e-08
0.00034308739
1.6886878e-07
0.00075228551
3.5026799e-07
0.0015378229
6.5458311e-07
0.0029431591
1.0720595e-06
0.0052415553
1.4464343e-06
0.0085775698
1.4548778e-06
0.012687826
9.1881169e-07
0.016675437
1.5455036e-12
0.019195807
-9.1881101e-07
0.019195807
-1.4548827e-06
0.016675437
-1.4464435e-06
0.012687826
-1.0720672e-06
0.0085775698
-6.5457994e-07
0.0052415553
-3.5024673e-07
0.0029431591
-1.6883138e-07
0.0015378229
-7.3309096e-08
0.00075228551
-2.7775285e-08
0.00034308739
-8.3385436e-09
0.00014242987
-1.4211075e-09
4.9799655e-05
1.0140969e-05
1.2850305e-09
1.0139684e-05
7.5051563e-09
4.9793434e-05
2.4968976e-08
0.0001424124
6.5891302e-08
0.00034304647
1.518383e-07
0.00075219957
3.1548577e-07
0.0015376593
5.9149735e-07
0.0029428831
9.7478812e-07
0.005241172
1.3297066e-06
0.0085772149
1.3567898e-06
0.012687799
8.652555e-07
0.016675928
2.6386655e-12
0.019196672
-8.6525307e-07
0.019196672
-1.356794e-06
0.016675928
-1.329716e-06
0.012687799
-9.7479599e-07
0.0085772149
-5.9149263e-07
0.005241172
-3.1546002e-07
0.0029428831
-1.5179397e-07
0.0015376593
-6.583992e-08
0.00075219956
-2.4925277e-08
0.00034304647
-7.4766127e-09
0.0001424124
-1.2719989e-09
4.9793434e-05
1.0139684e-05
1.1615357e-09
1.0138522e-05
6.7853187e-09
4.9787811e-05
2.2580638e-08
0.00014239661
5.9615626e-08
0.00034300943
1.3748141e-07
0.0007521217
2.860472e-07
0.0015375107
5.37712e-07
0.0029426314
8.9070761e-07
0.005240819
1.2264002e-06
0.0085768792
1.2674933e-06
0.012687758
8.1593128e-07
0.01667638
3.5634808e-12
0.019197488
-8.1592748e-07
0.019197488
-1.2674972e-06
0.01667638
-1.2264103e-06
0.012687758
-8.9071608e-07
0.0085768792
-5.3770595e-07
0.005240819
-2.8601705e-07
0.0029426314
-1.3743011e-07
0.0015375107
-5.9556492e-08
0.0007521217
-2.2530498e-08
0.00034300943
-6.7526427e-09
0.00014239661
-1.1466407e-09
4.9787811e-05
1.0138522e-05
1.0562097e-09
1.0137466e-05
6.1711107e-09
4.9782696e-05
2.0541516e-08
0.00014238224
5.425227e-08
0.00034297572
1.2519093e-07
0.00075205076
2.6076831e-07
0.0015373751
4.9125249e-07
0.0029424009
8.1722661e-07
0.005240493
1.1341861e-06
0.0085765622
1.1857947e-06
0.012687707
7.7022009e-07
0.016676795
4.232768e-12
0.019198259
-7.7021544e-07
0.019198259
-1.1857989e-06
0.016676795
-1.1341977e-06
0.012687707
-8.1723614e-07
0.0085765622
-4.912454e-07
0.005240493
-2.6073388e-07
0.0029424009
-1.2513265e-07
0.0015373751
-5.418528e-08
0.00075205076
-2.048481e-08
0.00034297572
-6.1342073e-09
0.00014238224
-1.0394032e-09
4.9782696e-05
1.0137466e-05
9.6521791e-10
1.0136501e-05
5.6402958e-09
4.9778021e-05
1.8778388e-08
0.0001423691
4.9611235e-08
0.00034294489
1.145415e-07
0.00075198583
2.3881085e-07
0.0015372509
4.5070421e-07
0.002942189
7.5248373e-07
0.0052401913
1.0515021e-06
0.0085762632
1.1108357e-06
0.012687647
7.2769436e-07
0.016677178
4.6284486e-12
0.019198986
-7.2768939e-07
0.019198986
-1.1108408e-06
0.016677178
-1.0515155e-06
0.012687647
-7.524947e-07
0.0085762632
-4.5069628e-07
0.0052401913
-2.3877218e-07
0.002942189
-1.1447614e-07
0.0015372508
-4.95362e-08
0.00075198583
-1.8714929e-08
0.00034294489
-5.5990308e-09
0.0001423691
-9.4643525e-10
4.9778021e-05
1.0136501e-05
8.8588238e-10
1.0135615e-05
5.1773152e-09
4.9773729e-05
1.7239882e-08
0.00014235704
4.5558671e-08
0.00034291657
1.0523169e-07
0.00075192616
2.1957579e-07
0.0015371365
4.1504176e-07
0.0029419936
6.9508931e-07
0.0052399112
9.7709579e-07
0.0085759812
1.0418713e-06
0.012687582
6.880109e-07
0.016677532
4.7964693e-12
0.019199674
-6.8800609e-07
0.019199674
-1.0418778e-06
0.016677532
-9.7711159e-07
0.012687582
-6.9510206e-07
0.0085759812
-4.1503315e-07
0.0052399112
-2.1953283e-07
0.0029419935
-1.0515903e-07
0.0015371365
-4.5475293e-08
0.00075192616
-1.7169394e-08
0.00034291657
-5.1314978e-09
0.00014235704
-8.6503364e-10
4.9773729e-05
1.0135615e-05
8.1610722e-10
1.0134799e-05
4.7700083e-09
4.9769775e-05
1.5885883e-08
0.00014234592
4.1990076e-08
0.00034289047
9.7025851e-08
0.00075187112
2.0259229e-07
0.0015370309
3.8344762e-07
0.0029418127
6.4389497e-07
0.0052396508
9.0984365e-07
0.0085757152
9.7823949e-07
0.012687514
6.5087212e-07
0.01667786
4.8003209e-12
0.019200325
-6.5086785e-07
0.019200325
-9.7824788e-07
0.01667786
-9.0986221e-07
0.012687514
-6.4390976e-07
0.0085757152
-3.8343842e-07
0.0052396508
-2.025449e-07
0.0029418127
-9.6945556e-08
0.0015370309
-4.1897931e-08
0.00075187112
-1.5807987e-08
0.00034289047
-4.719385e-09
0.00014234592
-7.9307447e-10
4.9769775e-05
1.0134799e-05
7.542415e-10
1.0134045e-05
4.4087881e-09
4.9766121e-05
1.468473e-08
0.00014233564
3.8822846e-08
0.00034286633
8.9737178e-08
0.00075182021
1.8748512e-07
0.0015369332
3.5526342e-07
0.0029416449
5.9795686e-07
0.0052394081
8.4878862e-07
0.0085754644
9.1936994e-07
0.012687443
6.160163e-07
0.016678163
4.7141405e-12
0.019200941
-6.1601277e-07
0.019200941
-9.1938045e-07
0.016678163
-8.4881016e-07
0.012687443
-5.9797384e-07
0.0085754644
-3.5525363e-07
0.0052394081
-1.8743306e-07
0.0029416449
-8.9648788e-08
0.0015369332
-3.8721377e-08
0.0007518202
-1.4598943e-08
0.00034286633
-4.3530373e-09
0.00014233564
-7.2887639e-10
4.9766121e-05
1.0134045e-05
6.9899595e-10
1.0133346e-05
4.0861596e-09
4.9762734e-05
1.3611633e-08
0.00014232612
3.5992155e-08
0.00034284395
8.3218572e-08
0.00075177298
1.7395718e-07
0.0015368425
3.2996264e-07
0.0029414889
5.5650521e-07
0.0052391815
7.9312038e-07
0.0085752278
8.6477125e-07
0.012687372
5.8323753e-07
0.016678444
4.6388729e-12
0.019201524
-5.8323476e-07
0.019201524
-8.6478397e-07
0.016678444
-7.9314503e-07
0.012687372
-5.5652448e-07
0.0085752278
-3.2995217e-07
0.0052391815
-1.739001e-07
0.0029414889
-8.3121494e-08
0.0015368424
-3.588067e-08
0.00075177298
-1.351736e-08
0.00034284395
-4.0248907e-09
0.00014232612
-6.7111951e-10
4.9762734e-05
1.0133346e-05
6.493539e-10
1.0132697e-05
3.7962085e-09
4.9759587e-05
1.2647013e-08
0.00014231727
3.3446737e-08
0.00034282315
7.7353443e-08
0.00075172907
1.6177209e-07
0.001536758
3.071237e-07
0.0029413436
5.1891683e-07
0.0052389697
7.4217212e-07
0.0085750045
8.1401695e-07
0.0126873
5.523488e-07
0.016678706
4.6617771e-12
0.019202077
-5.5234665e-07
0.019202077
-8.1403186e-07
0.016678706
-7.4219994e-07
0.0126873
-5.1893845e-07
0.0085750045
-3.0711245e-07
0.0052389697
-1.6170957e-07
0.0029413436
-7.7246959e-08
0.001536758
-3.332441e-08
0.00075172907
-1.2543555e-08
0.00034282315
-3.7289653e-09
0.00014231727
-6.187581e-10
4.9759587e-05
1.0132697e-05
6.0450102e-10
1.0132092e-05
3.5341951e-09
4.9756657e-05
1.1775171e-08
0.00014230903
3.1145428e-08
0.00034280378
7.2048009e-08
0.00075168817
1.5073911e-07
0.0015366793
2.8640418e-07
0.0029412079
4.8467856e-07
0.0052387715
6.9537985e-07
0.0085747938
7.6674711e-07
0.012687229
5.232114e-07
0.01667895
4.843129e-12
0.0192026
-5.2320963e-07
0.0192026
-7.6676409e-07
0.01667895
-6.9541087e-07
0.012687229
-4.8470257e-07
0.0085747938
-2.8639199e-07
0.0052387715
-1.5067062e-07
0.0029412079
-7.1931284e-08
0.0015366793
-3.1011311e-08
0.00075168816
-1.1661729e-08
0.00034280378
-3.4604602e-09
0.00014230903
-5.7095097e-10
4.9756657e-05
1.0132092e-05
5.6377891e-10
1.0131528e-05
3.296284e-09
4.9753924e-05
1.098339e-08
0.00014230134
2.9054876e-08
0.0003427857
6.7226191e-08
0.00075165
1.4070316e-07
0.0015366059
2.6752463e-07
0.0029410811
4.5336891e-07
0.0052385856
6.5227466e-07
0.0085745949
7.2263983e-07
0.012687158
4.9568178e-07
0.016679177
5.2140095e-12
0.019203096
-4.956801e-07
0.019203096
-7.2265877e-07
0.016679177
-6.5230891e-07
0.012687158
-4.5339535e-07
0.0085745949
-2.6751133e-07
0.0052385856
-1.4062812e-07
0.0029410811
-6.7098283e-08
0.0015366059
-2.8907906e-08
0.00075164999
-1.0859077e-08
0.0003427857
-3.2154836e-09
0.00014230134
-5.2701506e-10
4.9753925e-05
1.0131529e-05
5.2664905e-10
1.0131002e-05
3.0793347e-09
4.9751372e-05
1.0261256e-08
0.00014229416
2.7147728e-08
0.00034276882
6.2825506e-08
0.00075161432
1.3153654e-07
0.0015365372
2.502537e-07
0.0029409624
4.2463428e-07
0.0052384112
6.1245237e-07
0.0085744071
6.8142729e-07
0.012687089
4.69666e-07
0.016679388
5.7901478e-12
0.019203565
-4.6966409e-07
0.019203565
-6.8144806e-07
0.016679388
-6.1248992e-07
0.012687089
-4.2466324e-07
0.0085744071
-2.5023908e-07
0.0052384112
-1.3145431e-07
0.0029409624
-6.2685379e-08
0.0015365371
-2.6986742e-08
0.00075161431
-1.0125101e-08
0.00034276882
-2.9908443e-09
0.00014229416
-4.8638954e-10
4.9751372e-05
1.0131002e-05
4.9266792e-10
1.0130509e-05
2.880758e-09
4.9748983e-05
9.6001744e-09
0.00014228744
2.5401414e-08
0.00034275301
5.8794376e-08
0.00075158092
1.2313378e-07
0.0015364728
2.3439991e-07
0.0029408511
3.9818171e-07
0.0052382475
5.7557647e-07
0.0085742297
6.4285731e-07
0.012687022
4.4504269e-07
0.016679586
6.5699839e-12
0.01920401
-4.4504025e-07
0.01920401
-6.4287983e-07
0.016679586
-5.7561743e-07
0.012687022
-3.9821328e-07
0.0085742297
-2.3438378e-07
0.0052382475
-1.2304365e-07
0.0029408511
-5.8640914e-08
0.0015364728
-2.522516e-08
0.00075158092
-9.4511347e-09
0.00034275301
-2.783907e-09
0.00014228744
-4.4861044e-10
4.9748984e-05
1.0130509e-05
4.6146503e-10
1.0130048e-05
2.6983904e-09
4.9746746e-05
8.9929633e-09
0.00014228114
2.379705e-08
0.00034273821
5.508958e-08
0.00075154963
1.1540621e-07
0.0015364125
2.1980151e-07
0.0029407467
3.7375981e-07
0.0052380935
5.4134943e-07
0.0085740621
6.0672965e-07
0.012686957
4.2175231e-07
0.016679771
7.5296146e-12
0.019204432
-4.2174909e-07
0.019204432
-6.0675389e-07
0.016679771
-5.4139397e-07
0.012686957
-3.7379413e-07
0.0085740621
-2.1978368e-07
0.0052380935
-1.1530746e-07
0.0029407467
-5.4921598e-08
0.0015364125
-2.3604195e-08
0.00075154962
-8.8299295e-09
0.00034273821
-2.5924655e-09
0.00014228114
-4.1328824e-10
4.9746747e-05
1.0130048e-05
4.3272883e-10
1.0129615e-05
2.5304115e-09
4.9744649e-05
8.4335785e-09
0.00014227524
2.2318754e-08
0.00034272432
5.1674797e-08
0.00075152027
1.082794e-07
0.0015363559
2.0632269e-07
0.0029406487
3.5115849e-07
0.0052379487
5.0952309e-07
0.0085739038
5.7283651e-07
0.012686893
3.9968027e-07
0.016679944
8.6309492e-12
0.019204832
-3.9967608e-07
0.019204832
-5.7286254e-07
0.016679944
-5.0957147e-07
0.012686893
-3.5119577e-07
0.0085739038
-2.0630299e-07
0.0052379487
-1.0817127e-07
0.0029406486
-5.1491053e-08
0.0015363559
-2.21079e-08
0.00075152027
-8.255383e-09
0.00034272432
-2.4146621e-09
0.00014227524
-3.8009464e-10
4.9744649e-05
1.0129615e-05
4.0619444e-10
1.0129209e-05
2.3752767e-09
4.9742679e-05
7.9168905e-09
0.0001422697
2.0953026e-08
0.00034271129
4.8519059e-08
0.00075149271
1.0168962e-07
0.0015363027
1.9384643e-07
0.0029405565
3.3019317e-07
0.0052378123
4.7987241e-07
0.0085737541
5.4103125e-07
0.012686832
3.7879874e-07
0.016680107
9.8276602e-12
0.01920521
-3.7879349e-07
0.01920521
-5.410592e-07
0.016680107
-4.7992494e-07
0.012686832
-3.3023365e-07
0.0085737541
-1.9382468e-07
0.0052378123
-1.0157134e-07
0.0029405565
-4.8318256e-08
0.0015363027
-2.0722705e-08
0.0007514927
-7.7223094e-09
0.00034271128
-2.2489155e-09
0.0001422697
-3.4874856e-10
4.9742679e-05
1.0129209e-05
3.8163418e-10
1.0128828e-05
2.2316564e-09
4.9740829e-05
7.4384875e-09
0.00014226449
1.9688281e-08
0.00034269903
4.5595892e-08
0.0007514668
9.5582574e-08
0.0015362527
1.8227328e-07
0.0029404698
3.1070865e-07
0.0052376839
4.5220891e-07
0.0085736126
5.1113062e-07
0.012686773
3.5898646e-07
0.016680259
1.1086421e-11
0.019205569
-3.5898011e-07
0.019205569
-5.1116071e-07
0.016680259
-4.5226598e-07
0.012686773
-3.1075261e-07
0.0085736126
-1.8224934e-07
0.0052376839
-9.545332e-08
0.0029404698
-4.5376684e-08
0.0015362527
-1.9436971e-08
0.00075146679
-7.2262515e-09
0.00034269903
-2.0938679e-09
0.00014226449
-3.1901012e-10
4.9740829e-05
1.0128828e-05
3.5885352e-10
1.0128469e-05
2.0984209e-09
4.9739089e-05
6.9946185e-09
0.00014225959
1.8514625e-08
0.00034268751
4.2882514e-08
0.00075144243
8.9911165e-08
0.0015362057
1.7151626e-07
0.0029403882
2.9256597e-07
0.0052375628
4.2635979e-07
0.0085734788
4.8303685e-07
0.012686717
3.4025133e-07
0.016680402
1.23828e-11
0.01920591
-3.4024391e-07
0.01920591
-4.8306935e-07
0.016680402
-4.2642182e-07
0.012686717
-2.9261372e-07
0.0085734788
-1.7148997e-07
0.0052375628
-8.9770111e-08
0.0029403882
-4.2643509e-08
0.0015362057
-1.8240753e-08
0.00075144242
-6.7634186e-09
0.00034268751
-1.9483657e-09
0.00014225959
-2.9067506e-10
4.973909e-05
1.0128469e-05
3.3767978e-10
1.0128131e-05
1.9745604e-09
4.9737452e-05
6.5819344e-09
0.00014225498
1.7423291e-08
0.00034267667
4.0358964e-08
0.00075141949
8.4634517e-08
0.0015361614
1.6150028e-07
0.0029403113
2.7564672e-07
0.0052374487
4.0217591e-07
0.0085733523
4.5657268e-07
0.012686662
3.2245076e-07
0.016680536
1.3711247e-11
0.019206232
-3.2244232e-07
0.019206232
-4.5660789e-07
0.016680536
-4.0224337e-07
0.012686662
-2.756986e-07
0.0085733523
-1.6147149e-07
0.0052374487
-8.4480805e-08
0.0029403113
-4.0098732e-08
0.0015361614
-1.7125246e-08
0.00075141948
-6.3304332e-09
0.00034267667
-1.8113831e-09
0.00014225498
-2.6356512e-10
4.9737452e-05
1.0128131e-05
3.1796949e-10
1.0127813e-05
1.859248e-09
4.9735911e-05
6.1976882e-09
0.00014225064
1.6406983e-08
0.00034266646
3.8008282e-08
0.00075139789
7.9717277e-08
0.0015361197
1.5215965e-07
0.0029402389
2.5984541e-07
0.005237341
3.7952663e-07
0.0085732326
4.3169342e-07
0.01268661
3.0563932e-07
0.016680662
1.5061356e-11
0.019206538
-3.0562993e-07
0.019206538
-4.3173166e-07
0.016680662
-3.7960001e-07
0.01268661
-2.5990177e-07
0.0085732326
-1.521282e-07
0.005237341
-7.9550034e-08
0.0029402389
-3.7725374e-08
0.0015361197
-1.6083142e-08
0.00075139788
-5.9245501e-09
0.00034266646
-1.6820992e-09
0.00014225064
-2.3754227e-10
4.9735911e-05
1.0127814e-05
2.9958497e-10
1.0127514e-05
1.7516706e-09
4.9734458e-05
5.8391849e-09
0.00014224655
1.545871e-08
0.00034265684
3.5814747e-08
0.00075137753
7.5127512e-08
0.0015360804
1.4343549e-07
0.0029401706
2.4506719e-07
0.0052372394
3.5828426e-07
0.0085731194
4.0820542e-07
0.01268656
2.8963366e-07
0.01668078
1.6439658e-11
0.019206827
-2.8962339e-07
0.019206827
-4.0824703e-07
0.01668078
-3.5836405e-07
0.01268656
-2.4512837e-07
0.0085731194
-1.4340121e-07
0.0052372394
-7.494585e-08
0.0029401706
-3.5507709e-08
0.0015360804
-1.5107458e-08
0.00075137752
-5.5430872e-09
0.00034265683
-1.5597139e-09
0.00014224655
-2.1247779e-10
4.9734459e-05
1.0127514e-05
2.824259e-10
1.0127232e-05
1.6512631e-09
4.9733089e-05
5.5045421e-09
0.0001422427
1.4573356e-08
0.00034264777
3.3766092e-08
0.00075135833
7.0839056e-08
0.0015360433
1.3527902e-07
0.0029401061
2.3123512e-07
0.0052371434
3.3836071e-07
0.0085730123
3.8613322e-07
0.012686512
2.7455515e-07
0.016680892
1.7840894e-11
0.019207102
-2.7454409e-07
0.019207102
-3.8617854e-07
0.016680892
-3.3844742e-07
0.012686512
-2.3130148e-07
0.0085730123
-1.3524174e-07
0.0052371434
-7.0642107e-08
0.0029401061
-3.3433516e-08
0.0015360433
-1.4193143e-08
0.00075135832
-5.1842325e-09
0.00034264776
-1.4437151e-09
0.0001422427
-1.8830021e-10
4.9733089e-05
1.0127232e-05
2.6637076e-10
1.0126965e-05
1.5572885e-09
4.9731798e-05
5.1913216e-09
0.00014223906
1.3744744e-08
0.00034263921
3.1848903e-08
0.00075134023
6.6825355e-08
0.0015360084
1.2764087e-07
0.0029400453
2.1826527e-07
0.0052370528
3.1962803e-07
0.0085729109
3.6523445e-07
0.012686467
2.6015144e-07
0.016680997
1.9268035e-11
0.019207362
-2.6013965e-07
0.019207362
-3.652838e-07
0.016680997
-3.1972214e-07
0.012686467
-2.1833712e-07
0.0085729109
-1.2760043e-07
0.0052370528
-6.661229e-08
0.0029400453
-3.1489469e-08
0.0015360083
-1.3334142e-08
0.00075134022
-4.8456661e-09
0.00034263921
-1.3334508e-09
0.00014223906
-1.649334e-10
4.9731798e-05
1.0126966e-05
2.5136925e-10
1.0126714e-05
1.4694987e-09
4.9730579e-05
4.8986803e-09
0.00014223563
1.2970256e-08
0.00034263114
3.0055902e-08
0.00075132314
6.3069377e-08
0.0015359753
1.2048928e-07
0.0029399879
2.0611324e-07
0.0052369672
3.0205651e-07
0.008572815
3.4563783e-07
0.012686423
2.4664446e-07
0.016681096
2.0697534e-11
0.019207609
-2.4663203e-07
0.019207609
-3.4569159e-07
0.016681096
-3.0215853e-07
0.012686423
-2.0619091e-07
0.008572815
-1.2044551e-07
0.0052369672
-6.283945e-08
0.0029399879
-2.966846e-08
0.0015359753
-1.2528048e-08
0.00075132313
-4.5267496e-09
0.00034263113
-1.2288179e-09
0.00014223563
-1.4240387e-10
4.973058e-05
1.0126714e-05
2.3728703e-10
1.0126477e-05
1.3870415e-09
4.9729429e-05
4.6238159e-09
0.0001422324
1.2243124e-08
0.00034262351
2.8373456e-08
0.00075130701
5.954584e-08
0.0015359442
1.1377668e-07
0.0029399337
1.9468869e-07
0.0052368863
2.8548322e-07
0.0085727242
3.2700073e-07
0.012686382
2.3367039e-07
0.016681189
2.214094e-11
0.019207842
-2.3365742e-07
0.019207842
-3.2705924e-07
0.016681189
-2.855936e-07
0.012686382
-1.9477245e-07
0.0085727242
-1.1372941e-07
0.0052368863
-5.9298395e-08
0.0029399337
-2.7957036e-08
0.0015359441
-1.1768324e-08
0.00075130699
-4.2248952e-09
0.00034262351
-1.1291151e-09
0.0001422324
-1.2066233e-10
4.9729429e-05
1.0126477e-05
2.2416448e-10
1.0126253e-05
1.3102615e-09
4.9728343e-05
4.3678153e-09
0.00014222934
1.1565181e-08
0.00034261631
2.6802554e-08
0.00075129176
5.6251606e-08
0.0015359147
1.0749691e-07
0.0029398824
1.8400068e-07
0.0052368098
2.6998212e-07
0.0085726382
3.0962419e-07
0.012686342
2.2160752e-07
0.016681277
2.355683e-11
0.019208064
-2.2159415e-07
0.019208064
-3.0968778e-07
0.016681277
-2.7010126e-07
0.012686342
-1.8409075e-07
0.0085726383
-1.0744601e-07
0.0052368098
-5.5986211e-08
0.0029398824
-2.6356637e-08
0.0015359147
-1.1057392e-08
0.00075129175
-3.9416631e-09
0.00034261631
-1.0349822e-09
0.00014222934
-9.9804938e-11
4.9728343e-05
1.0126253e-05
2.1178223e-10
1.0126041e-05
1.2377094e-09
4.9727316e-05
4.1259594e-09
0.00014222645
1.0925638e-08
0.00034260951
2.5323508e-08
0.00075127736
5.3154055e-08
0.0015358869
1.0158919e-07
0.002939834
1.7391921e-07
0.0052367375
2.5529101e-07
0.0085725569
2.9298207e-07
0.012686304
2.0991794e-07
0.01668136
2.4936641e-11
0.019208274
-2.099043e-07
0.019208274
-2.93051e-07
0.01668136
-2.554192e-07
0.012686304
-1.7401572e-07
0.0085725569
-1.0153461e-07
0.0052367375
-5.2870631e-08
0.002939834
-2.4848209e-08
0.0015358869
-1.0385232e-08
0.00075127735
-3.6730067e-09
0.00034260951
-9.4541862e-10
0.00014222645
-7.9806832e-11
4.9727316e-05
1.0126042e-05
2.0042182e-10
1.0125841e-05
1.171288e-09
4.9726345e-05
3.9043537e-09
0.00014222371
1.03377e-08
0.00034260307
2.3957696e-08
0.00075126374
5.0282418e-08
0.0015358606
9.610378e-08
0.0029397882
1.6456753e-07
0.005236669
2.4169425e-07
0.0085724798
2.776771e-07
0.012686268
1.9923092e-07
0.016681439
2.6235827e-11
0.019208473
-1.9921721e-07
0.019208473
-2.7775151e-07
0.016681439
-2.4183149e-07
0.012686268
-1.6467038e-07
0.0085724798
-9.6045449e-08
0.005236669
-4.9981179e-08
0.0029397882
-2.3453587e-08
0.0015358605
-9.7654931e-09
0.00075126372
-3.4253913e-09
0.00034260307
-8.6256178e-10
0.00014222371
-6.1115971e-11
4.9726345e-05
1.0125841e-05
1.8948094e-10
1.0125652e-05
1.107074e-09
4.9725426e-05
3.690407e-09
0.00014222113
9.7732793e-09
0.00034259698
2.2656409e-08
0.00075125085
4.7563336e-08
0.0015358356
9.0917308e-08
0.0029397448
1.5569262e-07
0.0052366042
2.2870422e-07
0.0085724068
2.6287652e-07
0.012686234
1.8875294e-07
0.016681513
2.7513328e-11
0.019208662
-1.8873923e-07
0.019208662
-2.629565e-07
0.016681513
-2.288502e-07
0.012686234
-1.5580119e-07
0.0085724068
-9.085486e-08
0.0052366042
-4.7244575e-08
0.0029397448
-2.21245e-08
0.0015358356
-9.1707536e-09
0.00075125084
-3.1868931e-09
0.00034259698
-7.829844e-10
0.00014222112
-4.3376703e-11
4.9725426e-05
1.0125652e-05
1.8009609e-10
1.0125472e-05
1.0523207e-09
4.9724553e-05
3.5071763e-09
0.00014221867
9.2835005e-09
0.0003425912
2.1507544e-08
0.00075123862
4.5126095e-08
0.001535812
8.6235777e-08
0.0029397037
1.4769249e-07
0.0052365428
2.1705329e-07
0.0085723374
2.4973212e-07
0.012686202
1.7953481e-07
0.016681583
2.9003785e-11
0.019208841
-1.7952089e-07
0.019208841
-2.4981756e-07
0.016681583
-2.1720713e-07
0.012686202
-1.47805e-07
0.0085723374
-8.6167846e-08
0.0052365428
-4.4790688e-08
0.0029397037
-2.0951951e-08
0.001535812
-8.6574667e-09
0.00075123861
-2.9865223e-09
0.0003425912
-7.1847293e-10
0.00014221867
-3.0018824e-11
4.9724553e-05
1.0125472e-05
1.6897441e-10
1.0125303e-05
9.8728597e-10
4.9723734e-05
3.293422e-09
0.00014221636
8.7332217e-09
0.00034258576
2.0279284e-08
0.00075122707
4.2644388e-08
0.0015357896
8.1622644e-08
0.0029396647
1.3990977e-07
0.0052364845
2.0571891e-07
0.0085722716
2.3678816e-07
0.012686171
1.7036077e-07
0.01668165
3.1247284e-11
0.019209011
-1.703458e-07
0.019209011
-2.3687899e-07
0.01668165
-2.058799e-07
0.012686171
-1.4002356e-07
0.0085722716
-8.1546334e-08
0.0052364845
-4.2292891e-08
0.0029396647
-1.9706046e-08
0.0015357896
-8.0941812e-09
0.00075122706
-2.7668855e-09
0.00034258575
-6.5215972e-10
0.00014221636
-1.9180888e-11
4.9723734e-05
1.0125303e-05
1.6414651e-10
1.0125139e-05
9.5926124e-10
4.9722938e-05
3.1939668e-09
0.00014221412