/*--------------------------------*- C++ -*----------------------------------*\
| =========                 |                                                 |
| \\      /  F ield         | OpenFOAM: The Open Source CFD Toolbox           |
|  \\    /   O peration     | Version:  2406                                  |
|   \\  /    A nd           | Website:  www.openfoam.com                      |
|    \\/     M anipulation  |                                                 |
\*---------------------------------------------------------------------------*/
FoamFile
{
    version     2.0;
    format      ascii;
    arch        "LSB;label=32;scalar=64";
    class       volVectorField;
    location    "45";
    object      U;
}
// * * * * * * * * * * * * * * * * * * * * * * * * * * * * * * * * * * * * * //

dimensions      [0 1 -1 0 0 0 0];

internalField   nonuniform List<vector> 
1176
(
(0.019493789 7.0786087e-07 0)
(0.066677318 8.1696452e-06 0)
(0.13357994 3.9503143e-05 0)
(0.22724701 0.00010873574 0)
(0.35591522 0.00021176024 0)
(0.52772023 0.00030396284 0)
(0.74780387 0.00031818017 0)
(1.0136216 0.00024904583 0)
(1.3093323 0.00016666987 0)
(1.6017081 0.00011264666 0)
(1.8421723 7.0213924e-05 0)
(1.9793239 2.3940678e-05 0)
(1.9793239 -2.3940386e-05 0)
(1.8421723 -7.0212498e-05 0)
(1.6017081 -0.00011264236 0)
(1.3093323 -0.00016665975 0)
(1.0136215 -0.00024902597 0)
(0.74780384 -0.00031814492 0)
(0.5277202 -0.0003039045 0)
(0.35591518 -0.00021167744 0)
(0.22724696 -0.00010864443 0)
(0.13357991 -3.9425676e-05 0)
(0.066677295 -8.1254873e-06 0)
(0.01949378 -6.981222e-07 0)
(0.020187017 -3.7419183e-06 0)
(0.068813532 -2.4638641e-05 0)
(0.13732107 -9.6548558e-05 0)
(0.23247391 -0.00024839462 0)
(0.36204617 -0.00047268785 0)
(0.53373556 -0.00067421191 0)
(0.75267407 -0.00069486956 0)
(1.0170176 -0.00049687387 0)
(1.3116385 -0.00023345944 0)
(1.6034438 -4.9824751e-05 0)
(1.8436588 1.9764305e-05 0)
(1.9807026 1.342711e-05 0)
(1.9807026 -1.3428793e-05 0)
(1.8436588 -1.9766663e-05 0)
(1.6034438 4.9821084e-05 0)
(1.3116385 0.00023345362 0)
(1.0170176 0.00049686358 0)
(0.75267407 0.00069485084 0)
(0.53373556 0.00067418165 0)
(0.36204615 0.00047264834 0)
(0.23247388 0.00024835549 0)
(0.13732105 9.651891e-05 0)
(0.068813514 2.4622981e-05 0)
(0.02018701 3.7387962e-06 0)
(0.020018442 2.0918356e-06 0)
(0.068327405 1.2720767e-05 0)
(0.13655404 4.6877242e-05 0)
(0.23159544 0.00011389736 0)
(0.36138709 0.00019769264 0)
(0.53366969 0.00023903228 0)
(0.75344344 0.00020559801 0)
(1.0184881 0.00011361092 0)
(1.3134639 7.4313218e-05 0)
(1.6053464 7.9532372e-05 0)
(1.8455118 7.0515966e-05 0)
(1.9825245 2.7825217e-05 0)
(1.9825245 -2.7825626e-05 0)
(1.8455118 -7.0516103e-05 0)
(1.6053464 -7.953194e-05 0)
(1.3134639 -7.4312898e-05 0)
(1.0184881 -0.00011361244 0)
(0.75344345 -0.00020560315 0)
(0.5336697 -0.0002390396 0)
(0.3613871 -0.00019770166 0)
(0.23159546 -0.00011390677 0)
(0.13655406 -4.6885141e-05 0)
(0.068327414 -1.2725428e-05 0)
(0.020018445 -2.0929201e-06 0)
(0.019966547 7.0075905e-07 0)
(0.068159231 4.6870193e-06 0)
(0.13624021 1.9355384e-05 0)
(0.2311194 5.6456078e-05 0)
(0.36078093 0.00013444553 0)
(0.53306293 0.00025829302 0)
(0.75295637 0.0003534472 0)
(1.0181104 0.00036911971 0)
(1.313184 0.0003075883 0)
(1.6051633 0.00022777181 0)
(1.8453995 0.00014555881 0)
(1.9824491 4.9996931e-05 0)
(1.9824491 -4.9996608e-05 0)
(1.8453995 -0.00014555725 0)
(1.6051633 -0.00022776854 0)
(1.313184 -0.00030758473 0)
(1.0181104 -0.00036911773 0)
(0.75295636 -0.0003534466 0)
(0.53306292 -0.00025829282 0)
(0.36078092 -0.00013444415 0)
(0.23111939 -5.6453367e-05 0)
(0.1362402 -1.93525e-05 0)
(0.06815923 -4.6852309e-06 0)
(0.019966547 -7.0035101e-07 0)
(0.019942203 2.9076457e-07 0)
(0.068078703 1.9871815e-06 0)
(0.13608628 8.2360711e-06 0)
(0.23087699 2.3699248e-05 0)
(0.36044744 5.6881523e-05 0)
(0.53266448 0.00012306874 0)
(0.75256878 0.00022681803 0)
(1.017808 0.00032272199 0)
(1.3129044 0.00034572428 0)
(1.604912 0.00030729926 0)
(1.8452029 0.00021095247 0)
(1.9822898 7.4613989e-05 0)
(1.9822898 -7.4614529e-05 0)
(1.8452029 -0.00021095229 0)
(1.604912 -0.00030729838 0)
(1.3129044 -0.0003457238 0)
(1.017808 -0.00032272243 0)
(0.75256877 -0.00022681869 0)
(0.53266448 -0.00012307 0)
(0.36044744 -5.688317e-05 0)
(0.23087699 -2.3700976e-05 0)
(0.13608628 -8.2374916e-06 0)
(0.068078702 -1.987958e-06 0)
(0.019942203 -2.9092447e-07 0)
(0.019933132 1.7181144e-07 0)
(0.068047755 1.1940572e-06 0)
(0.13602488 5.0651619e-06 0)
(0.23077535 1.4968805e-05 0)
(0.36029898 3.6219488e-05 0)
(0.5324792 7.6944205e-05 0)
(0.75239427 0.0001471377 0)
(1.0177222 0.00023749024 0)
(1.3129292 0.00028525582 0)
(1.6049746 0.00027441457 0)
(1.8452865 0.00019644569 0)
(1.9823834 7.1176479e-05 0)
(1.9823834 -7.117717e-05 0)
(1.8452865 -0.00019644587 0)
(1.6049746 -0.00027441422 0)
(1.3129292 -0.00028525536 0)
(1.0177222 -0.00023749009 0)
(0.75239427 -0.00014713732 0)
(0.5324792 -7.694361e-05 0)
(0.36029899 -3.6218858e-05 0)
(0.23077535 -1.4968364e-05 0)
(0.13602489 -5.0649747e-06 0)
(0.068047756 -1.1939999e-06 0)
(0.019933132 -1.7181029e-07 0)
(0.0199234 1.5587206e-07 0)
(0.068015507 1.0700572e-06 0)
(0.13596286 4.4934295e-06 0)
(0.23067607 1.3195415e-05 0)
(0.36015773 3.1857087e-05 0)
(0.53230178 6.6958227e-05 0)
(0.75221429 0.00012411891 0)
(1.0176105 0.00019917056 0)
(1.3129358 0.00025490843 0)
(1.6050904 0.00024595155 0)
(1.8454579 0.00018127865 0)
(1.9825798 6.6548173e-05 0)
(1.9825798 -6.6548726e-05 0)
(1.8454579 -0.00018127891 0)
(1.6050904 -0.00024595161 0)
(1.3129358 -0.0002549084 0)
(1.0176105 -0.00019917031 0)
(0.75221429 -0.00012411824 0)
(0.53230178 -6.6957082e-05 0)
(0.36015773 -3.1855651e-05 0)
(0.23067607 -1.3194044e-05 0)
(0.13596286 -4.4924103e-06 0)
(0.068015507 -1.0695024e-06 0)
(0.0199234 -1.5575667e-07 0)
(0.019915697 1.2758587e-07 0)
(0.067989792 8.7801287e-07 0)
(0.13591293 3.6959907e-06 0)
(0.23059503 1.0901583e-05 0)
(0.36003987 2.6613324e-05 0)
(0.53214753 5.7237105e-05 0)
(0.75204133 0.00010911049 0)
(1.0174723 0.0001793663 0)
(1.3128926 0.00023802477 0)
(1.6051414 0.00023746745 0)
(1.8455877 0.00017750659 0)
(1.9827514 6.5539182e-05 0)
(1.9827514 -6.5539649e-05 0)
(1.8455877 -0.00017750701 0)
(1.6051414 -0.00023746796 0)
(1.3128926 -0.00023802519 0)
(1.0174723 -0.00017936633 0)
(0.75204133 -0.00010911005 0)
(0.53214753 -5.7236188e-05 0)
(0.36003987 -2.661212e-05 0)
(0.23059503 -1.0900404e-05 0)
(0.13591293 -3.6950936e-06 0)
(0.067989792 -8.7751018e-07 0)
(0.019915697 -1.2747917e-07 0)
(0.019909217 1.0466205e-07 0)
(0.067968141 7.2315178e-07 0)
(0.13587084 3.0521268e-06 0)
(0.23052654 9.011846e-06 0)
(0.35993984 2.1999876e-05 0)
(0.53201542 4.7473412e-05 0)
(0.75188901 9.2014023e-05 0)
(1.0173341 0.00015618183 0)
(1.3128278 0.00021699669 0)
(1.6051595 0.00022709616 0)
(1.8456699 0.00017232615 0)
(1.982868 6.414753e-05 0)
(1.982868 -6.4147942e-05 0)
(1.8456699 -0.00017232665 0)
(1.6051595 -0.00022709682 0)
(1.3128278 -0.00021699729 0)
(1.0173341 -0.00015618205 0)
(0.75188901 -9.2013701e-05 0)
(0.53201542 -4.7472487e-05 0)
(0.35993984 -2.199854e-05 0)
(0.23052654 -9.0104832e-06 0)
(0.13587084 -3.0510724e-06 0)
(0.067968141 -7.2255535e-07 0)
(0.019909217 -1.0453552e-07 0)
(0.019903971 8.613207e-08 0)
(0.067950552 5.9698437e-07 0)
(0.13583649 2.5274121e-06 0)
(0.2304703 7.4916424e-06 0)
(0.35985692 1.8376304e-05 0)
(0.53190436 3.983566e-05 0)
(0.75175836 7.7712099e-05 0)
(1.0172122 0.00013432427 0)
(1.3127613 0.0001932336 0)
(1.6051772 0.00021058335 0)
(1.8457533 0.00016272958 0)
(1.9829863 6.1084107e-05 0)
(1.9829863 -6.1084492e-05 0)
(1.8457533 -0.00016273012 0)
(1.6051772 -0.0002105841 0)
(1.3127613 -0.00019323431 0)
(1.0172122 -0.0001343246 0)
(0.75175836 -7.7711773e-05 0)
(0.53190436 -3.9834527e-05 0)
(0.35985692 -1.8374611e-05 0)
(0.2304703 -7.4899037e-06 0)
(0.13583649 -2.52607e-06 0)
(0.067950553 -5.9622593e-07 0)
(0.019903971 -8.5971429e-08 0)
(0.019899543 7.3360421e-08 0)
(0.067935688 5.0897684e-07 0)
(0.13580742 2.156911e-06 0)
(0.23042259 6.4027807e-06 0)
(0.35978626 1.5747587e-05 0)
(0.5318089 3.4277788e-05 0)
(0.75164409 6.7204538e-05 0)
(1.0171021 0.00011722985 0)
(1.3126976 0.00017262454 0)
(1.6051928 0.00019308893 0)
(1.8458371 0.00015219856 0)
(1.9831061 5.7544691e-05 0)
(1.9831061 -5.7545004e-05 0)
(1.8458371 -0.00015219909 0)
(1.6051928 -0.00019308973 0)
(1.3126976 -0.00017262533 0)
(1.0171021 -0.00011723022 0)
(0.75164409 -6.720408e-05 0)
(0.5318089 -3.4276295e-05 0)
(0.35978626 -1.5745403e-05 0)
(0.23042259 -6.4005764e-06 0)
(0.13580742 -2.1552369e-06 0)
(0.067935688 -5.0803815e-07 0)
(0.019899543 -7.3162819e-08 0)
(0.019895721 6.3728582e-08 0)
(0.06792285 4.4252639e-07 0)
(0.13578228 1.8767452e-06 0)
(0.23038125 5.5765307e-06 0)
(0.35972483 1.3738672e-05 0)
(0.53172535 2.9997975e-05 0)
(0.75154264 5.9111508e-05 0)
(1.0170011 0.00010388812 0)
(1.3126344 0.00015540274 0)
(1.6052015 0.00017849522 0)
(1.8459125 0.00014271553 0)
(1.9832185 5.433059e-05 0)
(1.9832185 -5.4330767e-05 0)
(1.8459125 -0.00014271598 0)
(1.6052015 -0.00017849602 0)
(1.3126344 -0.00015540356 0)
(1.0170011 -0.00010388847 0)
(0.75154264 -5.9110822e-05 0)
(0.53172535 -2.9995998e-05 0)
(0.35972483 -1.3735865e-05 0)
(0.23038125 -5.5737484e-06 0)
(0.13578228 -1.8746625e-06 0)
(0.06792285 -4.4136824e-07 0)
(0.019895721 -6.3486174e-08 0)
(0.019892371 5.6090282e-08 0)
(0.067911586 3.8977797e-07 0)
(0.13576021 1.654125e-06 0)
(0.2303449 4.9187651e-06 0)
(0.35967069 1.2132008e-05 0)
(0.53165136 2.6542427e-05 0)
(0.7514519 5.2498757e-05 0)
(1.0169086 9.2875674e-05 0)
(1.3125728 0.00014061489 0)
(1.605205 0.00016529623 0)
(1.8459798 0.00013398939 0)
(1.9833221 5.1387538e-05 0)
(1.9833221 -5.1387528e-05 0)
(1.8459798 -0.00013398972 0)
(1.605205 -0.00016529697 0)
(1.3125728 -0.00014061571 0)
(1.0169086 -9.2875963e-05 0)
(0.7514519 -5.2497788e-05 0)
(0.53165136 -2.6539892e-05 0)
(0.35967069 -1.2128495e-05 0)
(0.2303449 -4.9153309e-06 0)
(0.13576021 -1.65158e-06 0)
(0.067911586 -3.8837146e-07 0)
(0.019892371 -5.5796968e-08 0)
(0.019889403 4.9849121e-08 0)
(0.067901607 3.4661767e-07 0)
(0.13574064 1.4717657e-06 0)
(0.23031264 4.3793956e-06 0)
(0.35962253 1.081232e-05 0)
(0.53158531 2.3691423e-05 0)
(0.75137029 4.6984161e-05 0)
(1.016824 8.3546341e-05 0)
(1.3125139 0.00012773754 0)
(1.6052051 0.00015293363 0)
(1.8460415 0.00012582061 0)
(1.9834196 4.8616711e-05 0)
(1.9834196 -4.8616498e-05 0)
(1.8460415 -0.0001258208 0)
(1.6052051 -0.00015293431 0)
(1.3125139 -0.00012773836 0)
(1.016824 -8.3546554e-05 0)
(0.75137029 -4.6982883e-05 0)
(0.53158531 -2.3688294e-05 0)
(0.35962253 -1.0808061e-05 0)
(0.23031264 -4.3752723e-06 0)
(0.13574064 -1.4687301e-06 0)
(0.067901607 -3.4494712e-07 0)
(0.019889403 -4.9501532e-08 0)
(0.019886752 4.4699531e-08 0)
(0.067892685 3.1094644e-07 0)
(0.13572313 1.3208242e-06 0)
(0.23028375 3.932219e-06 0)
(0.35957935 9.7159023e-06 0)
(0.53152592 2.1315629e-05 0)
(0.75129648 4.2360319e-05 0)
(1.0167465 7.561999e-05 0)
(1.3124581 0.00011654251 0)
(1.6052027 0.00014169899 0)
(1.8460982 0.00011827135 0)
(1.9835117 4.6031889e-05 0)
(1.9835117 -4.6031485e-05 0)
(1.8460982 -0.00011827143 0)
(1.6052027 -0.00014169963 0)
(1.3124581 -0.00011654333 0)
(1.0167465 -7.5620142e-05 0)
(0.75129648 -4.2358734e-05 0)
(0.53152592 -2.1311898e-05 0)
(0.35957935 -9.7108817e-06 0)
(0.23028375 -3.9273879e-06 0)
(0.13572313 -1.3172819e-06 0)
(0.067892685 -3.0900247e-07 0)
(0.019886752 -4.4295604e-08 0)
(0.019884362 4.0387634e-08 0)
(0.067884644 2.8104452e-07 0)
(0.13570735 1.1941658e-06 0)
(0.23025769 3.5565024e-06 0)
(0.35954035 8.7929187e-06 0)
(0.53147216 1.9310075e-05 0)
(0.75122934 3.844024e-05 0)
(1.0166753 6.8839074e-05 0)
(1.3124053 0.00010678375 0)
(1.6051983 0.00013155262 0)
(1.8461504 0.00011132844 0)
(1.9835985 4.3631565e-05 0)
(1.9835985 -4.3631003e-05 0)
(1.8461504 -0.00011132843 0)
(1.6051983 -0.00013155327 0)
(1.3124053 -0.00010678464 0)
(1.0166753 -6.8839194e-05 0)
(0.75122934 -3.8438362e-05 0)
(0.53147216 -1.9305744e-05 0)
(0.35954035 -8.7871299e-06 0)
(0.23025769 -3.5509527e-06 0)
(0.13570735 -1.1901063e-06 0)
(0.067884644 -2.7882065e-07 0)
(0.019884362 -3.9925926e-08 0)
(0.019882195 3.6713052e-08 0)
(0.067877349 2.5554532e-07 0)
(0.13569303 1.0860898e-06 0)
(0.23023403 3.235642e-06 0)
(0.3595049 8.0035975e-06 0)
(0.5314232 1.7590958e-05 0)
(0.75116796 3.5067286e-05 0)
(1.0166096 6.2964263e-05 0)
(1.3123553 9.8203429e-05 0)
(1.6051923 0.00012233398 0)
(1.8461982 0.00010491364 0)
(1.9836803 4.1390937e-05 0)
(1.9836803 -4.1390267e-05 0)
(1.8461982 -0.00010491359 0)
(1.6051923 -0.0001223347 0)
(1.3123553 -9.8204437e-05 0)
(1.0166096 -6.2964387e-05 0)
(0.75116796 -3.5065135e-05 0)
(0.5314232 -1.7586032e-05 0)
(0.3595049 -7.997033e-06 0)
(0.23023403 -3.2293615e-06 0)
(0.13569303 -1.081502e-06 0)
(0.067877349 -2.5303478e-07 0)
(0.019882195 -3.6192078e-08 0)
(0.019880219 3.3540654e-08 0)
(0.067870695 2.3351839e-07 0)
(0.13567996 9.9268343e-07 0)
(0.23021243 2.958158e-06 0)
(0.35947252 7.3202907e-06 0)
(0.53137842 1.6100132e-05 0)
(0.75111164 3.2133022e-05 0)
(1.0165488 5.7823467e-05 0)
(1.3123082 9.0602657e-05 0)
(1.6051852 0.00011395377 0)
(1.8462423 9.8956478e-05 0)
(1.9837576 3.9289462e-05 0)
(1.9837576 -3.9288737e-05 0)
(1.8462423 -9.8956448e-05 0)
(1.6051852 -0.00011395462 0)
(1.3123082 -9.0603829e-05 0)
(1.0165488 -5.7823624e-05 0)
(0.75111164 -3.2130608e-05 0)
(0.53137842 -1.6094604e-05 0)
(0.35947252 -7.3129343e-06 0)
(0.23021243 -2.9511272e-06 0)
(0.13567996 -9.8755122e-07 0)
(0.067870695 -2.3071178e-07 0)
(0.019880219 -3.2958406e-08 0)
(0.019878409 3.0776385e-08 0)
(0.0678646 2.1431481e-07 0)
(0.13566798 9.1121061e-07 0)
(0.23019263 2.7159835e-06 0)
(0.35944282 6.7234008e-06 0)
(0.53133728 1.479597e-05 0)
(0.75105976 2.9559651e-05 0)
(1.0164925 5.329255e-05 0)
(1.3122638 8.3831708e-05 0)
(1.6051772 0.00010632437 0)
(1.846283 9.3403743e-05 0)
(1.9838307 3.7312942e-05 0)
(1.9838307 -3.7312207e-05 0)
(1.846283 -9.3403781e-05 0)
(1.6051772 -0.0001063254 0)
(1.3122638 -8.3833085e-05 0)
(1.0164925 -5.3292765e-05 0)
(0.75105976 -2.9556978e-05 0)
(0.53133728 -1.4789827e-05 0)
(0.35944282 -6.7152251e-06 0)
(0.23019263 -2.7081727e-06 0)
(0.13566798 -9.0551085e-07 0)
(0.0678646 -2.1119895e-07 0)
(0.019878409 -3.0130082e-08 0)
(0.019876745 2.8346471e-08 0)
(0.067858993 1.9742662e-07 0)
(0.13565697 8.3953299e-07 0)
(0.23017441 2.5028196e-06 0)
(0.35941547 6.1976073e-06 0)
(0.53129936 1.3645723e-05 0)
(0.75101183 2.7285228e-05 0)
(1.0164401 4.9271682e-05 0)
(1.3122219 7.7767781e-05 0)
(1.6051688 9.9356407e-05 0)
(1.8463207 8.8214052e-05 0)
(1.9838998 3.545001e-05 0)
(1.9838998 -3.5449298e-05 0)
(1.8463207 -8.8214198e-05 0)
(1.6051688 -9.9357659e-05 0)
(1.3122219 -7.7769394e-05 0)
(1.0164401 -4.9271968e-05 0)
(0.75101183 -2.7282293e-05 0)
(0.53129936 -1.3638938e-05 0)
(0.35941547 -6.1885721e-06 0)
(0.23017441 -2.4941878e-06 0)
(0.13565697 -8.3323461e-07 0)
(0.067858993 -1.9398409e-07 0)
(0.019876745 -2.7632464e-08 0)
(0.019875208 2.6192886e-08 0)
(0.067853818 1.8245369e-07 0)
(0.1356468 7.7596425e-07 0)
(0.23015758 2.3136953e-06 0)
(0.3593902 5.730812e-06 0)
(0.5312643 1.2623462e-05 0)
(0.75096742 2.5260228e-05 0)
(1.0163914 4.5679455e-05 0)
(1.3121824 7.2308093e-05 0)
(1.6051599 9.2973633e-05 0)
(1.8463555 8.3350808e-05 0)
(1.9839652 3.3690021e-05 0)
(1.9839652 -3.368935e-05 0)
(1.8463555 -8.3351084e-05 0)
(1.6051599 -9.297513e-05 0)
(1.3121824 -7.2309959e-05 0)
(1.0163914 -4.567982e-05 0)
(0.75096742 -2.5257016e-05 0)
(0.53126429 -1.2615997e-05 0)
(0.3593902 -5.7208636e-06 0)
(0.23015758 -2.3041895e-06 0)
(0.1356468 -7.6902759e-07 0)
(0.067853818 -1.7866248e-07 0)
(0.019875209 -2.540658e-08 0)
(0.019873786 2.4270426e-08 0)
(0.067849027 1.6908367e-07 0)
(0.13563738 7.1918584e-07 0)
(0.230142 2.1447161e-06 0)
(0.35936679 5.3135127e-06 0)
(0.53123178 1.1708764e-05 0)
(0.75092616 2.3445428e-05 0)
(1.016346 4.2450421e-05 0)
(1.3121452 6.7367616e-05 0)
(1.6051509 8.7107777e-05 0)
(1.8463878 7.8785678e-05 0)
(1.9840271 3.2024407e-05 0)
(1.9840271 -3.2023777e-05 0)
(1.8463878 -7.8786093e-05 0)
(1.6051509 -8.7109528e-05 0)
(1.3121452 -6.7369745e-05 0)
(1.016346 -4.2450864e-05 0)
(0.75092616 -2.3441918e-05 0)
(0.53123178 -1.1700569e-05 0)
(0.35936679 -5.3025836e-06 0)
(0.230142 -2.1342709e-06 0)
(0.13563738 -7.1156259e-07 0)
(0.067849027 -1.6491715e-07 0)
(0.019873787 -2.3406277e-08 0)
(0.019872467 2.2543495e-08 0)
(0.067844581 1.5707036e-07 0)
(0.13562864 6.6815736e-07 0)
(0.23012754 1.9928048e-06 0)
(0.35934505 4.9381869e-06 0)
(0.53120156 1.0885421e-05 0)
(0.75088776 2.1809605e-05 0)
(1.0163035 3.9532059e-05 0)
(1.31211 6.2876485e-05 0)
(1.6051418 8.1702337e-05 0)
(1.8464178 7.4492439e-05 0)
(1.9840857 3.0445029e-05 0)
(1.9840857 -3.0444426e-05 0)
(1.8464178 -7.4492986e-05 0)
(1.6051418 -8.1704344e-05 0)
(1.31211 -6.2878881e-05 0)
(1.0163035 -3.9532579e-05 0)
(0.75088776 -2.180577e-05 0)
(0.53120156 -1.0876435e-05 0)
(0.35934504 -4.9261964e-06 0)
(0.23012754 -1.9813427e-06 0)
(0.13562864 -6.5979086e-07 0)
(0.067844581 -1.5249747e-07 0)
(0.019872467 -2.1595057e-08 0)
(0.01987124 2.0983606e-08 0)
(0.067840446 1.462166e-07 0)
(0.13562051 6.2204503e-07 0)
(0.23011408 1.8554932e-06 0)
(0.35932481 4.5987902e-06 0)
(0.53117342 1.0140371e-05 0)
(0.75085195 2.0327505e-05 0)
(1.0162638 3.6881676e-05 0)
(1.3120768 5.8776986e-05 0)
(1.6051327 7.6707042e-05 0)
(1.8464458 7.0451976e-05 0)
(1.9841412 2.8945852e-05 0)
(1.9841412 -2.8945248e-05 0)
(1.8464458 -7.0452639e-05 0)
(1.6051327 -7.6709301e-05 0)
(1.3120768 -5.8779653e-05 0)
(1.0162638 -3.6882266e-05 0)
(0.75085194 -2.0323309e-05 0)
(0.53117342 -1.0130524e-05 0)
(0.35932481 -4.5856451e-06 0)
(0.23011408 -1.8429256e-06 0)
(0.13562051 -6.128709e-07 0)
(0.067840446 -1.4120218e-07 0)
(0.01987124 -1.9943599e-08 0)
(0.019870096 1.9567739e-08 0)
(0.067836592 1.3636288e-07 0)
(0.13561293 5.80174e-07 0)
(0.23010153 1.7307821e-06 0)
(0.35930594 4.2904236e-06 0)
(0.53114716 9.4630154e-06 0)
(0.75081849 1.8978566e-05 0)
(1.0162266 3.4464278e-05 0)
(1.3120455 5.5020987e-05 0)
(1.6051237 7.2081103e-05 0)
(1.8464718 6.6643519e-05 0)
(1.9841938 2.7520445e-05 0)
(1.9841938 -2.7519804e-05 0)
(1.8464718 -6.6644277e-05 0)
(1.6051237 -7.2083607e-05 0)
(1.3120455 -5.5023927e-05 0)
(1.0162266 -3.4464932e-05 0)
(0.75081849 -1.8973971e-05 0)
(0.53114716 -9.4522246e-06 0)
(0.35930594 -4.2760189e-06 0)
(0.23010153 -1.7170102e-06 0)
(0.13561293 -5.7012071e-07 0)
(0.067836592 -1.3086803e-07 0)
(0.019870096 -1.8428117e-08 0)
(0.019869029 1.8277074e-08 0)
(0.067832994 1.2737876e-07 0)
(0.13560586 5.4199169e-07 0)
(0.23008981 1.6170333e-06 0)
(0.35928831 4.0090667e-06 0)
(0.53112262 8.8446352e-06 0)
(0.75078719 1.7745839e-05 0)
(1.0161917 3.225092e-05 0)
(1.3120159 5.1568284e-05 0)
(1.6051149 6.7786677e-05 0)
(1.846496 6.3053844e-05 0)
(1.9842436 2.6164777e-05 0)
(1.9842436 -2.6164063e-05 0)
(1.846496 -6.3054675e-05 0)
(1.6051149 -6.7789422e-05 0)
(1.312016 -5.1571504e-05 0)
(1.0161917 -3.2251633e-05 0)
(0.75078719 -1.7740801e-05 0)
(0.53112262 -8.8328124e-06 0)
(0.35928831 -3.9932875e-06 0)
(0.23008981 -1.6019489e-06 0)
(0.13560586 -5.3098127e-07 0)
(0.067832994 -1.2136113e-07 0)
(0.019869029 -1.70291e-08 0)
(0.019868031 1.7096115e-08 0)
(0.067829631 1.1915668e-07 0)
(0.13559924 5.0704236e-07 0)
(0.23007886 1.5128951e-06 0)
(0.35927183 3.7514022e-06 0)
(0.53109966 8.2780371e-06 0)
(0.75075787 1.6615309e-05 0)
(1.0161589 3.0217513e-05 0)
(1.311988 4.8384845e-05 0)
(1.6051063 6.3794149e-05 0)
(1.8465187 5.9664756e-05 0)
(1.9842909 2.4873488e-05 0)
(1.9842909 -2.4872664e-05 0)
(1.8465187 -5.9665638e-05 0)
(1.6051063 -6.3797136e-05 0)
(1.311988 -4.8388356e-05 0)
(1.0161589 -3.0218281e-05 0)
(0.75075787 -1.6609783e-05 0)
(0.53109965 -8.2650865e-06 0)
(0.35927183 -3.7341246e-06 0)
(0.23007886 -1.4963819e-06 0)
(0.13559924 -4.9499103e-07 0)
(0.067829631 -1.1257085e-07 0)
(0.019868031 -1.5730421e-08 0)
(0.019867097 1.6011924e-08 0)
(0.067826482 1.1160687e-07 0)
(0.13559305 4.7494532e-07 0)
(0.2300686 1.4172374e-06 0)
(0.35925639 3.5146517e-06 0)
(0.53107814 7.75718e-06 0)
(0.75073038 1.5575184e-05 0)
(1.0161281 2.8343798e-05 0)
(1.3119617 4.5442014e-05 0)
(1.6050979 6.0074002e-05 0)
(1.8465398 5.6467806e-05 0)
(1.9843356 2.3644258e-05 0)
(1.9843356 -2.3643294e-05 0)
(1.8465398 -5.6468725e-05 0)
(1.6050979 -6.0077238e-05 0)
(1.3119617 -4.5445832e-05 0)
(1.0161281 -2.8344619e-05 0)
(0.75073038 -1.5569123e-05 0)
(0.53107814 -7.7430004e-06 0)
(0.35925639 -3.4957443e-06 0)
(0.2300686 -1.3991717e-06 0)
(0.13559305 -4.6176396e-07 0)
(0.067826482 -1.0440453e-07 0)
(0.019867097 -1.4518552e-08 0)
(0.019866221 1.5013621e-08 0)
(0.067823531 1.0465374e-07 0)
(0.13558724 4.4538005e-07 0)
(0.23005898 1.3291093e-06 0)
(0.35924191 3.2964806e-06 0)
(0.53105796 7.2769953e-06 0)
(0.75070457 1.4615558e-05 0)
(1.0160992 2.6612586e-05 0)
(1.3119367 4.2714949e-05 0)
(1.6050897 5.6604564e-05 0)
(1.8465596 5.3445414e-05 0)
(1.984378 2.2472105e-05 0)
(1.984378 -2.2470977e-05 0)
(1.8465596 -5.3446363e-05 0)
(1.6050897 -5.6608063e-05 0)
(1.3119367 -4.2719096e-05 0)
(1.0160992 -2.6613462e-05 0)
(0.75070457 -1.4608913e-05 0)
(0.53105795 -7.2614805e-06 0)
(0.35924191 -3.2758051e-06 0)
(0.23005898 -1.309361e-06 0)
(0.13558724 -4.3097486e-07 0)
(0.067823531 -9.6784039e-08 0)
(0.019866221 -1.3382097e-08 0)
(0.0198654 1.409196e-08 0)
(0.067820761 9.8233194e-08 0)
(0.1355818 4.1807486e-07 0)
(0.23004995 1.2477036e-06 0)
(0.35922832 3.0949001e-06 0)
(0.53103901 6.8331459e-06 0)
(0.75068032 1.3727937e-05 0)
(1.0160719 2.5009244e-05 0)
(1.3119132 4.0182756e-05 0)
(1.6050818 5.3361901e-05 0)
(1.8465781 5.0593763e-05 0)
(1.9844182 2.135627e-05 0)
(1.9844182 -2.1354964e-05 0)
(1.8465781 -5.0594742e-05 0)
(1.6050818 -5.3365684e-05 0)
(1.3119132 -4.0187258e-05 0)
(1.0160719 -2.5010179e-05 0)
(0.75068032 -1.3720659e-05 0)
(0.531039 -6.8161857e-06 0)
(0.35922832 -3.072312e-06 0)
(0.23004995 -1.2261363e-06 0)
(0.1355818 -4.0234746e-07 0)
(0.067820762 -8.9642818e-08 0)
(0.0198654 -1.2311311e-08 0)
(0.019864628 1.3238998e-08 0)
(0.067818161 9.2290004e-08 0)
(0.13557668 3.9279563e-07 0)
(0.23004148 1.1723264e-06 0)
(0.35921555 2.9082089e-06 0)
(0.5310212 6.4219397e-06 0)
(0.75065752 1.2905083e-05 0)
(1.0160463 2.3521069e-05 0)
(1.3118909 3.7826615e-05 0)
(1.6050743 5.0330188e-05 0)
(1.8465955 4.789411e-05 0)
(1.9844563 2.029144e-05 0)
(1.9844563 -2.0289948e-05 0)
(1.8465955 -4.7895127e-05 0)
(1.6050743 -5.0334283e-05 0)
(1.3118909 -3.7831506e-05 0)
(1.0160463 -2.352207e-05 0)
(0.75065751 -1.2897123e-05 0)
(0.53102119 -6.4034199e-06 0)
(0.35921555 -2.8835581e-06 0)
(0.23004148 -1.1487986e-06 0)
(0.13557668 -3.7564409e-07 0)
(0.067818161 -8.2923742e-08 0)
(0.019864628 -1.1297877e-08 0)
(0.019863903 1.2447952e-08 0)
(0.067815716 8.677728e-08 0)
(0.13557187 3.6934391e-07 0)
(0.23003351 1.102387e-06 0)
(0.35920355 2.7349459e-06 0)
(0.53100445 6.0401756e-06 0)
(0.75063606 1.2140709e-05 0)
(1.0160221 2.2137256e-05 0)
(1.3118699 3.5631145e-05 0)
(1.6050669 4.7489382e-05 0)
(1.8466118 4.5347971e-05 0)
(1.9844924 1.927857e-05 0)
(1.9844924 -1.9276888e-05 0)
(1.8466118 -4.5349039e-05 0)
(1.6050669 -4.7493823e-05 0)
(1.3118699 -3.5636461e-05 0)
(1.0160221 -2.213833e-05 0)
(0.75063606 -1.2132015e-05 0)
(0.53100444 -6.0199781e-06 0)
(0.35920355 -2.7080772e-06 0)
(0.23003351 -1.0767527e-06 0)
(0.13557187 -3.5066324e-07 0)
(0.067815716 -7.6578354e-08 0)
(0.019863903 -1.0334713e-08 0)
(0.019863221 1.17128e-08 0)
(0.067813417 8.1653015e-08 0)
(0.13556735 3.4754163e-07 0)
(0.23002601 1.0373591e-06 0)
(0.35919226 2.573827e-06 0)
(0.53098868 5.6850782e-06 0)
(0.75061585 1.142936e-05 0)
(1.0159993 2.0848057e-05 0)
(1.31185 3.358139e-05 0)
(1.6050599 4.4827959e-05 0)
(1.8466272 4.2933437e-05 0)
(1.9845266 1.8311228e-05 0)
(1.9845266 -1.8309356e-05 0)
(1.8466272 -4.2934572e-05 0)
(1.6050599 -4.4832782e-05 0)
(1.31185 -3.358717e-05 0)
(1.0159993 -2.0849214e-05 0)
(0.75061585 -1.1419879e-05 0)
(0.53098868 -5.6630813e-06 0)
(0.35919225 -2.5445814e-06 0)
(0.23002601 -1.0094689e-06 0)
(0.13556735 -3.2722474e-07 0)
(0.067813417 -7.0563656e-08 0)
(0.019863221 -9.4156311e-09 0)
(0.019862579 1.1028546e-08 0)
(0.067811252 7.6882952e-08 0)
(0.13556309 3.2724406e-07 0)
(0.23001895 9.7680953e-07 0)
(0.35918162 2.4237688e-06 0)
(0.53097384 5.3542473e-06 0)
(0.75059681 1.0766306e-05 0)
(1.0159778 1.964546e-05 0)
(1.3118312 3.1666276e-05 0)
(1.6050532 4.2328938e-05 0)
(1.8466415 4.065893e-05 0)
(1.984559 1.7392597e-05 0)
(1.984559 -1.7390535e-05 0)
(1.8466415 -4.0660152e-05 0)
(1.6050532 -4.2334182e-05 0)
(1.3118312 -3.167256e-05 0)
(1.0159778 -1.964671e-05 0)
(0.75059681 -1.0755985e-05 0)
(0.53097383 -5.3303278e-06 0)
(0.35918162 -2.3919857e-06 0)
(0.23001895 -9.4651357e-07 0)
(0.13556309 -3.051844e-07 0)
(0.067811252 -6.4845943e-08 0)
(0.019862579 -8.5358169e-09 0)
(0.019861974 1.0390388e-08 0)
(0.067809213 7.2433183e-08 0)
(0.13555908 3.0830711e-07 0)
(0.2300123 9.2031571e-07 0)
(0.3591716 2.2837555e-06 0)
(0.53095985 5.0455168e-06 0)
(0.75057886 1.0147282e-05 0)
(1.0159575 1.8521596e-05 0)
(1.3118134 2.9872993e-05 0)
(1.6050467 3.9983554e-05 0)
(1.8466551 3.8496737e-05 0)
(1.9845898 1.6514114e-05 0)
(1.9845898 -1.6511862e-05 0)
(1.8466551 -3.8498063e-05 0)
(1.6050467 -3.9989257e-05 0)
(1.3118134 -2.9879822e-05 0)
(1.0159575 -1.8522947e-05 0)
(0.75057886 -1.0136066e-05 0)
(0.53095984 -5.0195506e-06 0)
(0.3591716 -2.2492746e-06 0)
(0.2300123 -8.8746537e-07 0)
(0.13555907 -2.8439954e-07 0)
(0.067809213 -5.9392341e-08 0)
(0.019861974 -7.6907612e-09 0)
(0.019861404 9.7948438e-09 0)
(0.067807292 6.8280455e-08 0)
(0.13555529 2.9063302e-07 0)
(0.23000603 8.6757891e-07 0)
(0.35916216 2.1530128e-06 0)
(0.53094666 4.7571159e-06 0)
(0.75056194 9.5687783e-06 0)
(1.0159384 1.7470778e-05 0)
(1.3117965 2.8194492e-05 0)
(1.6050405 3.7778123e-05 0)
(1.8466678 3.6464895e-05 0)
(1.9846188 1.5682203e-05 0)
(1.9846188 -1.5679761e-05 0)
(1.8466678 -3.6466346e-05 0)
(1.6050405 -3.7784325e-05 0)
(1.3117965 -2.8201907e-05 0)
(1.0159384 -1.7472238e-05 0)
(0.75056193 -9.5566141e-06 0)
(0.53094665 -4.7289822e-06 0)
(0.35916215 -2.1156799e-06 0)
(0.23000603 -8.3203261e-07 0)
(0.13555529 -2.6477869e-07 0)
(0.067807292 -5.418344e-08 0)
(0.019861404 -6.8778999e-09 0)
(0.019860867 9.2376659e-09 0)
(0.067805479 6.4393861e-08 0)
(0.13555173 2.740897e-07 0)
(0.23000012 8.1821935e-07 0)
(0.35915325 2.030662e-06 0)
(0.53093422 4.4872405e-06 0)
(0.75054596 9.0272513e-06 0)
(1.0159203 1.6486064e-05 0)
(1.3117806 2.6618302e-05 0)
(1.6050346 3.5704409e-05 0)
(1.8466798 3.4526144e-05 0)
(1.9846465 1.4884709e-05 0)
(1.9846465 -1.4882078e-05 0)
(1.8466798 -3.4527738e-05 0)
(1.6050346 -3.571115e-05 0)
(1.3117806 -2.6626344e-05 0)
(1.0159203 -1.6487643e-05 0)
(0.75054596 -9.0140864e-06 0)
(0.53093421 -4.4568258e-06 0)
(0.35915324 -1.990334e-06 0)
(0.23000012 -7.7984782e-07 0)
(0.13555173 -2.4620002e-07 0)
(0.06780548 -4.9194443e-08 0)
(0.019860867 -6.094435e-09 0)
(0.01986036 8.7171376e-09 0)
(0.067803771 6.0763638e-08 0)
(0.13554837 2.5863727e-07 0)
(0.22999455 7.720981e-07 0)
(0.35914485 1.91627e-06 0)
(0.53092248 4.2347567e-06 0)
(0.75053089 8.5203962e-06 0)
(1.0159032 1.5564268e-05 0)
(1.3117655 2.5142332e-05 0)
(1.605029 3.3754057e-05 0)
(1.846691 3.2712508e-05 0)
(1.9846726 1.4133044e-05 0)
(1.9846726 -1.4130228e-05 0)
(1.846691 -3.2714267e-05 0)
(1.605029 -3.3761376e-05 0)
(1.3117655 -2.5151039e-05 0)
(1.0159032 -1.5565973e-05 0)
(0.75053088 -8.5061835e-06 0)
(0.53092247 -4.2019605e-06 0)
(0.35914484 -1.8728239e-06 0)
(0.22999454 -7.3079348e-07 0)
(0.13554837 -2.2864131e-07 0)
(0.067803771 -4.4425966e-08 0)
(0.01986036 -5.3411145e-09 0)
(0.019859881 8.2285314e-09 0)
(0.067802156 5.7353582e-08 0)
(0.13554519 2.4411998e-07 0)
(0.22998928 7.2878394e-07 0)
(0.35913691 1.8089125e-06 0)
(0.53091139 3.9979247e-06 0)
(0.75051664 8.044861e-06 0)
(1.0158871 1.4698185e-05 0)
(1.3117512 2.3751839e-05 0)
(1.6050236 3.1915346e-05 0)
(1.8467017 3.097172e-05 0)
(1.9846975 1.3409253e-05 0)
(1.9846975 -1.3406254e-05 0)
(1.8467017 -3.0973663e-05 0)
(1.6050236 -3.1923281e-05 0)
(1.3117512 -2.3761249e-05 0)
(1.0158871 -1.4700022e-05 0)
(0.75051663 -8.0295583e-06 0)
(0.53091138 -3.9626616e-06 0)
(0.35913691 -1.7622476e-06 0)
(0.22998928 -6.8446095e-07 0)
(0.13554519 -2.1196525e-07 0)
(0.067802157 -3.9852758e-08 0)
(0.019859882 -4.6159558e-09 0)
(0.01985943 7.7733815e-09 0)
(0.067800634 5.4179463e-08 0)
(0.13554219 2.3060775e-07 0)
(0.22998431 6.8843234e-07 0)
(0.35912943 1.7087458e-06 0)
(0.53090093 3.7766156e-06 0)
(0.7505032 7.6001445e-06 0)
(1.0158719 1.388851e-05 0)
(1.3117377 2.2452881e-05 0)
(1.6050185 3.0190716e-05 0)
(1.8467117 2.9356782e-05 0)
(1.9847208 1.2732663e-05 0)
(1.9847208 -1.2729491e-05 0)
(1.8467117 -2.9358933e-05 0)
(1.6050185 -3.0199304e-05 0)
(1.3117377 -2.2463024e-05 0)
(1.0158719 -1.3890484e-05 0)
(0.7505032 -7.5837226e-06 0)
(0.53090092 -3.738836e-06 0)
(0.35912942 -1.6588149e-06 0)
(0.22998431 -6.4106043e-07 0)
(0.13554219 -1.9627699e-07 0)
(0.067800635 -3.5507612e-08 0)
(0.01985943 -3.9213611e-09 0)
(0.019859003 7.3438413e-09 0)
(0.067799193 5.1178724e-08 0)
(0.13553936 2.1783097e-07 0)
(0.22997961 6.5032583e-07 0)
(0.35912234 1.6143616e-06 0)
(0.53089102 3.568491e-06 0)
(0.75049047 7.1820227e-06 0)
(1.0158574 1.3125506e-05 0)
(1.3117249 2.1223675e-05 0)
(1.6050136 2.8557439e-05 0)
(1.8467212 2.7792616e-05 0)
(1.9847433 1.2076212e-05 0)
(1.9847433 -1.2072877e-05 0)
(1.8467212 -2.779499e-05 0)
(1.6050136 -2.8566707e-05 0)
(1.3117249 -2.1234573e-05 0)
(1.0158574 -1.312762e-05 0)
(0.75049046 -7.1644744e-06 0)
(0.53089101 -3.5281977e-06 0)
(0.35912233 -1.561191e-06 0)
(0.22997961 -5.9994815e-07 0)
(0.13553936 -1.813619e-07 0)
(0.067799193 -3.1358262e-08 0)
(0.019859003 -3.2554758e-09 0)
(0.0198586 6.9502278e-09 0)
(0.067797836 4.843503e-08 0)
(0.13553669 2.0614802e-07 0)
(0.22997518 6.1538326e-07 0)
(0.35911566 1.5274093e-06 0)
(0.5308817 3.3758599e-06 0)
(0.75047849 6.794091e-06 0)
(1.0158438 1.2418115e-05 0)
(1.3117128 2.00866e-05 0)
(1.605009 2.7041004e-05 0)
(1.84673 2.6364637e-05 0)
(1.9847642 1.1472119e-05 0)
(1.9847642 -1.146864e-05 0)
(1.84673 -2.6367254e-05 0)
(1.605009 -2.7050957e-05 0)
(1.3117128 -2.0098249e-05 0)
(1.0158438 -1.2420363e-05 0)
(0.75047848 -6.7754249e-06 0)