/*--------------------------------*- C++ -*----------------------------------*\
| =========                 |                                                 |
| \\      /  F ield         | OpenFOAM: The Open Source CFD Toolbox           |
|  \\    /   O peration     | Version:  2406                                  |
|   \\  /    A nd           | Website:  www.openfoam.com                      |
|    \\/     M anipulation  |                                                 |
\*---------------------------------------------------------------------------*/
FoamFile
{
    version     2.0;
    format      ascii;
    arch        "LSB;label=32;scalar=64";
    class       volScalarField;
    location    "9.25";
    object      p;
}
// * * * * * * * * * * * * * * * * * * * * * * * * * * * * * * * * * * * * * //

dimensions      [0 2 -2 0 0 0 0];

internalField   nonuniform List<scalar> 
34560
(
-18.392673
-18.397561
-18.405684
-18.418476
-18.436336
-18.458932
-18.484697
-18.512786
-18.541052
-18.376622
-18.383266
-18.394236
-18.411297
-18.434689
-18.463549
-18.495536
-18.529214
-18.562554
-18.360701
-18.369311
-18.38337
-18.404797
-18.433539
-18.46802
-18.505044
-18.542623
-18.578833
-18.342884
-18.35349
-18.370765
-18.396789
-18.43106
-18.471085
-18.512877
-18.553805
-18.592332
-18.323999
-18.336668
-18.357226
-18.387883
-18.427628
-18.473008
-18.519392
-18.563524
-18.604002
-18.305558
-18.320118
-18.343755
-18.378805
-18.423709
-18.474042
-18.524648
-18.571738
-18.613876
-18.288192
-18.304472
-18.330936
-18.370032
-18.419649
-18.474424
-18.528779
-18.578492
-18.622051
-18.272403
-18.290219
-18.319202
-18.361888
-18.415649
-18.474276
-18.531858
-18.58382
-18.628602
-18.258745
-18.277867
-18.308989
-18.354707
-18.411942
-18.473766
-18.534001
-18.58781
-18.633617
-18.247983
-18.26811
-18.300891
-18.348961
-18.408876
-18.473148
-18.535401
-18.590607
-18.637213
-18.240701
-18.261508
-18.295414
-18.345064
-18.406764
-18.472661
-18.536249
-18.592375
-18.639526
-18.236697
-18.257893
-18.292416
-18.342908
-18.405544
-18.472289
-18.536569
-18.593174
-18.640617
-18.236697
-18.257894
-18.292416
-18.342908
-18.405544
-18.47229
-18.53657
-18.593175
-18.640617
-18.240702
-18.261509
-18.295415
-18.345065
-18.406765
-18.472662
-18.536249
-18.592376
-18.639527
-18.247985
-18.268111
-18.300893
-18.348962
-18.408877
-18.473149
-18.535402
-18.590608
-18.637215
-18.258746
-18.277868
-18.30899
-18.354708
-18.411943
-18.473767
-18.534002
-18.587811
-18.633618
-18.272404
-18.29022
-18.319204
-18.361889
-18.41565
-18.474277
-18.531859
-18.583821
-18.628602
-18.288194
-18.304474
-18.330938
-18.370034
-18.419651
-18.474426
-18.52878
-18.578492
-18.622051
-18.305561
-18.320122
-18.343759
-18.378808
-18.423712
-18.474044
-18.524648
-18.571738
-18.613875
-18.324003
-18.336672
-18.357231
-18.387887
-18.427631
-18.47301
-18.519394
-18.563525
-18.604001
-18.342888
-18.353494
-18.37077
-18.396794
-18.431065
-18.471089
-18.512879
-18.553805
-18.59233
-18.360706
-18.369317
-18.383376
-18.404803
-18.433544
-18.468025
-18.505048
-18.542624
-18.578833
-18.376627
-18.383271
-18.394242
-18.411303
-18.434695
-18.463554
-18.49554
-18.529216
-18.562557
-18.392678
-18.397567
-18.40569
-18.418482
-18.436342
-18.458937
-18.484701
-18.512793
-18.541059
-17.72271
-17.720719
-17.718384
-17.715182
-17.709736
-17.700948
-17.688843
-17.673944
-17.658649
-17.743116
-17.740439
-17.736966
-17.731743
-17.722983
-17.709622
-17.692711
-17.67416
-17.656802
-17.765937
-17.762596
-17.758154
-17.751203
-17.73944
-17.721701
-17.700001
-17.677717
-17.657867
-17.788571
-17.784525
-17.779103
-17.770499
-17.75599
-17.734297
-17.70812
-17.682182
-17.659563
-17.81065
-17.805944
-17.799553
-17.789262
-17.772097
-17.746758
-17.716351
-17.686843
-17.661542
-17.831348
-17.826099
-17.81885
-17.806951
-17.787279
-17.758706
-17.724514
-17.691622
-17.663824
-17.850165
-17.844428
-17.83639
-17.822998
-17.801021
-17.769611
-17.732174
-17.69626
-17.666196
-17.866661
-17.860523
-17.851807
-17.837091
-17.813066
-17.779188
-17.739028
-17.700515
-17.668383
-17.880399
-17.873949
-17.864685
-17.848864
-17.823098
-17.787123
-17.744792
-17.704172
-17.670185
-17.891003
-17.884332
-17.874661
-17.857986
-17.830853
-17.793216
-17.749198
-17.706957
-17.671501
-17.898242
-17.891414
-17.881453
-17.864181
-17.836095
-17.797298
-17.752108
-17.708797
-17.67239
-17.901902
-17.895006
-17.884908
-17.867339
-17.838767
-17.799372
-17.753576
-17.709723
-17.672842
-17.901902
-17.895006
-17.884909
-17.867339
-17.838768
-17.799372
-17.753576
-17.709723
-17.672842
-17.898242
-17.891415
-17.881454
-17.864181
-17.836096
-17.797299
-17.752109
-17.708797
-17.672391
-17.891004
-17.884333
-17.874662
-17.857987
-17.830855
-17.793217
-17.749199
-17.706958
-17.671502
-17.8804
-17.87395
-17.864687
-17.848865
-17.823099
-17.787124
-17.744793
-17.704173
-17.670186
-17.866663
-17.860525
-17.851809
-17.837093
-17.813067
-17.779189
-17.739029
-17.700515
-17.668383
-17.850168
-17.844431
-17.836393
-17.823001
-17.801024
-17.769614
-17.732175
-17.69626
-17.666195
-17.831352
-17.826103
-17.818854
-17.806955
-17.787283
-17.758709
-17.724516
-17.691623
-17.663823
-17.810654
-17.805949
-17.799558
-17.789267
-17.772102
-17.746762
-17.716354
-17.686844
-17.661542
-17.788577
-17.78453
-17.779109
-17.770505
-17.755996
-17.734302
-17.708124
-17.682184
-17.659564
-17.765943
-17.762602
-17.75816
-17.75121
-17.739446
-17.721708
-17.700007
-17.677721
-17.657869
-17.743123
-17.740447
-17.736974
-17.73175
-17.722991
-17.709629
-17.692719
-17.674167
-17.656806
-17.722719
-17.720727
-17.718392
-17.715191
-17.709744
-17.700957
-17.688851
-17.673952
-17.658656
-16.730595
-16.730045
-16.729596
-16.729639
-16.730515
-16.731989
-16.7324
-16.730245
-16.726633
-16.734127
-16.733431
-16.732754
-16.732539
-16.733186
-16.734517
-16.7348
-16.7323
-16.728452
-16.737463
-16.736642
-16.735822
-16.735529
-16.736276
-16.737927
-16.738572
-16.736193
-16.732261
-16.739968
-16.739014
-16.738055
-16.737721
-16.738648
-16.74072
-16.741801
-16.739588
-16.735436
-16.74215
-16.741073
-16.739983
-16.739599
-16.740619
-16.742949
-16.744329
-16.742241
-16.737961
-16.744284
-16.743081
-16.741878
-16.741483
-16.742585
-16.744982
-16.746452
-16.744451
-16.740116
-16.746304
-16.744983
-16.743689
-16.74331
-16.744507
-16.746893
-16.748298
-16.746343
-16.742001
-16.748185
-16.746761
-16.745396
-16.745049
-16.746341
-16.748698
-16.749943
-16.747978
-16.743699
-16.749835
-16.748328
-16.746917
-16.746612
-16.748017
-16.75039
-16.751423
-16.749385
-16.74524
-16.751173
-16.749604
-16.748164
-16.747907
-16.749422
-16.751842
-16.752726
-16.750621
-16.746569
-16.752116
-16.750501
-16.749044
-16.748829
-16.750434
-16.752904
-16.753719
-16.751554
-16.747501
-16.75259
-16.750956
-16.749494
-16.749304
-16.750962
-16.753465
-16.754254
-16.752056
-16.747978
-16.752591
-16.750957
-16.749494
-16.749304
-16.750962
-16.753465
-16.754254
-16.752056
-16.747978
-16.752117
-16.750502
-16.749045
-16.74883
-16.750435
-16.752905
-16.753719
-16.751555
-16.747501
-16.751173
-16.749605
-16.748165
-16.747908
-16.749423
-16.751843
-16.752727
-16.750621
-16.746569
-16.749836
-16.748329
-16.746918
-16.746614
-16.748018
-16.750392
-16.751424
-16.749386
-16.74524
-16.748187
-16.746762
-16.745398
-16.745051
-16.746343
-16.748699
-16.749945
-16.747979
-16.743699
-16.746307
-16.744986
-16.743692
-16.743313
-16.74451
-16.746896
-16.7483
-16.746344
-16.742001
-16.744287
-16.743085
-16.741881
-16.741487
-16.742589
-16.744985
-16.746455
-16.744453
-16.740116
-16.742155
-16.741078
-16.739988
-16.739605
-16.740624
-16.742953
-16.744333
-16.742243
-16.737961
-16.739974
-16.73902
-16.738062
-16.737728
-16.738655
-16.740726
-16.741807
-16.739591
-16.735437
-16.73747
-16.73665
-16.735829
-16.735538
-16.736284
-16.737935
-16.738579
-16.736198
-16.732264
-16.734136
-16.73344
-16.732763
-16.732548
-16.733195
-16.734526
-16.734808
-16.732306
-16.728455
-16.730605
-16.730055
-16.729605
-16.729648
-16.730524
-16.731998
-16.732409
-16.730253
-16.726637
-15.974126
-15.974305
-15.974515
-15.974652
-15.974521
-15.973834
-15.97284
-15.972094
-15.971007
-15.978664
-15.978787
-15.978872
-15.978765
-15.978187
-15.976727
-15.974553
-15.972523
-15.970823
-15.983682
-15.983753
-15.983749
-15.983467
-15.982567
-15.980577
-15.97763
-15.974696
-15.97243
-15.988427
-15.988435
-15.988346
-15.987923
-15.986742
-15.984367
-15.980924
-15.977394
-15.974625
-15.992856
-15.992805
-15.99264
-15.992087
-15.990619
-15.987835
-15.983997
-15.980051
-15.976893
-15.996797
-15.996712
-15.996497
-15.995808
-15.994074
-15.990904
-15.986687
-15.982378
-15.978862
-16.000026
-15.999933
-15.999687
-15.998886
-15.996896
-15.993382
-15.98883
-15.984195
-15.980357
-16.002581
-16.002497
-16.002227
-16.001323
-15.999109
-15.995291
-15.990449
-15.985557
-15.981457
-16.004468
-16.004405
-16.004136
-16.003158
-16.000768
-15.996703
-15.991624
-15.986544
-15.982249
-16.005796
-16.005751
-16.005483
-16.004453
-16.001931
-15.997677
-15.992425
-15.987222
-15.982782
-16.006639
-16.006608
-16.006341
-16.005272
-16.002656
-15.998273
-15.99291
-15.98763
-15.983098
-16.007032
-16.007011
-16.006749
-16.005662
-16.003
-15.998553
-15.993136
-15.98782
-15.983244
-16.007033
-16.007011
-16.006749
-16.005662
-16.003
-15.998553
-15.993136
-15.98782
-15.983244
-16.006639
-16.006609
-16.006342
-16.005273
-16.002657
-15.998274
-15.99291
-15.98763
-15.983098
-16.005797
-16.005752
-16.005484
-16.004454
-16.001932
-15.997678
-15.992426
-15.987222
-15.982782
-16.004469
-16.004407
-16.004137
-16.003159
-16.00077
-15.996704
-15.991625
-15.986545
-15.982249
-16.002582
-16.002498
-16.002229
-16.001325
-15.999111
-15.995293
-15.990451
-15.985558
-15.981457
-16.000028
-15.999935
-15.99969
-15.998889
-15.996899
-15.993385
-15.988832
-15.984196
-15.980357
-15.9968
-15.996715
-15.9965
-15.995812
-15.994078
-15.990908
-15.98669
-15.98238
-15.978862
-15.99286
-15.992809
-15.992644
-15.992092
-15.990624
-15.98784
-15.984001
-15.980054
-15.976894
-15.988433
-15.988441
-15.988352
-15.987929
-15.986749
-15.984373
-15.980929
-15.977398
-15.974627
-15.983689
-15.98376
-15.983756
-15.983475
-15.982574
-15.980585
-15.977637
-15.974701
-15.972433
-15.978672
-15.978796
-15.978881
-15.978773
-15.978196
-15.976735
-15.97456
-15.97253
-15.970827
-15.974135
-15.974315
-15.974525
-15.974662
-15.97453
-15.973843
-15.972848
-15.972101
-15.971013
-15.148443
-15.14845
-15.148496
-15.148619
-15.148867
-15.149275
-15.149833
-15.1504
-15.150659
-15.150543
-15.150511
-15.150489
-15.15051
-15.150614
-15.150852
-15.151191
-15.151477
-15.151549
-15.152742
-15.152678
-15.15262
-15.152603
-15.152663
-15.15284
-15.153066
-15.153199
-15.15317
-15.154555
-15.154469
-15.154391
-15.154367
-15.154436
-15.154592
-15.154749
-15.15474
-15.154516
-15.155861
-15.155778
-15.155694
-15.155646
-15.155697
-15.15584
-15.155936
-15.155786
-15.15538
-15.156812
-15.156735
-15.156646
-15.15659
-15.156611
-15.15672
-15.156765
-15.156508
-15.155964
-15.157554
-15.157481
-15.157387
-15.15732
-15.157339
-15.157426
-15.157428
-15.157103
-15.156452
-15.158136
-15.158062
-15.157973
-15.157911
-15.157933
-15.158016
-15.157992
-15.157607
-15.15686
-15.158594
-15.158516
-15.158421
-15.158362
-15.158392
-15.158483
-15.158448
-15.158016
-15.157183
-15.158932
-15.158851
-15.158753
-15.158692
-15.158728
-15.15883
-15.158792
-15.158323
-15.157425
-15.159157
-15.159073
-15.158971
-15.158909
-15.158949
-15.15906
-15.159023
-15.15853
-15.157589
-15.159261
-15.159176
-15.159073
-15.159012
-15.159056
-15.159174
-15.159139
-15.158636
-15.157674
-15.159261
-15.159176
-15.159073
-15.159012
-15.159056
-15.159174
-15.159139
-15.158636
-15.157674
-15.159157
-15.159073
-15.158971
-15.158909
-15.158949
-15.159061
-15.159023
-15.15853
-15.157588
-15.158932
-15.158852
-15.158753
-15.158693
-15.158729
-15.158831
-15.158793
-15.158323
-15.157424
-15.158595
-15.158516
-15.158422
-15.158363
-15.158393
-15.158484
-15.158449
-15.158016
-15.157182
-15.158137
-15.158063
-15.157975
-15.157912
-15.157935
-15.158018
-15.157993
-15.157608
-15.156859
-15.157556
-15.157483
-15.157389
-15.157323
-15.157342
-15.157429
-15.15743
-15.157104
-15.156452
-15.156814
-15.156738
-15.156649
-15.156594
-15.156614
-15.156724
-15.156768
-15.15651
-15.155965
-15.155865
-15.155782
-15.155698
-15.155651
-15.155702
-15.155845
-15.15594
-15.155789
-15.155381
-15.15456
-15.154474
-15.154397
-15.154373
-15.154442
-15.154598
-15.154755
-15.154744
-15.154519
-15.152749
-15.152685
-15.152627
-15.15261
-15.15267
-15.152848
-15.153073
-15.153204
-15.153175
-15.150551
-15.15052
-15.150498
-15.150519
-15.150623
-15.150861
-15.1512
-15.151485
-15.151555
-15.148452
-15.14846
-15.148505
-15.148629
-15.148877
-15.149285
-15.149843
-15.150411
-15.150669
-14.371724
-14.371773
-14.371835
-14.371902
-14.371962
-14.371997
-14.371987
-14.37194
-14.371747
-14.372327
-14.372372
-14.372418
-14.372439
-14.372403
-14.37228
-14.372081
-14.371841
-14.371551
-14.373085
-14.373127
-14.373157
-14.373134
-14.373015
-14.372781
-14.372484
-14.372176
-14.371901
-14.37389
-14.373921
-14.373931
-14.37387
-14.373694
-14.373401
-14.373051
-14.3727
-14.372406
-14.374801
-14.374817
-14.374806
-14.374717
-14.374506
-14.374177
-14.373768
-14.373354
-14.373015
-14.375777
-14.375776
-14.375747
-14.375646
-14.375432
-14.375084
-14.374623
-14.374137
-14.373735
-14.376731
-14.376715
-14.376673
-14.37657
-14.376364
-14.376013
-14.375518
-14.374971
-14.374497
-14.377609
-14.377583
-14.377532
-14.37743
-14.377231
-14.376881
-14.376364
-14.375764
-14.375217
-14.378359
-14.378326
-14.37827
-14.378166
-14.377975
-14.37763
-14.377098
-14.376454
-14.375837
-14.378948
-14.378911
-14.378851
-14.378749
-14.378564
-14.378226
-14.377682
-14.377001
-14.376326
-14.379356
-14.379315
-14.379253
-14.379152
-14.378973
-14.378639
-14.378088
-14.37738
-14.376664
-14.379562
-14.379519
-14.379457
-14.379357
-14.379182
-14.378851
-14.378296
-14.377574
-14.376837
-14.379562
-14.379519
-14.379457
-14.379357
-14.379182
-14.378851
-14.378296
-14.377574
-14.376837
-14.379356
-14.379315
-14.379253
-14.379152
-14.378974
-14.37864
-14.378088
-14.377379
-14.376663
-14.378948
-14.378911
-14.378851
-14.378749
-14.378565
-14.378226
-14.377683
-14.377
-14.376325
-14.378359
-14.378326
-14.37827
-14.378167
-14.377975
-14.377631
-14.377099
-14.376453
-14.375836
-14.377609
-14.377583
-14.377533
-14.377431
-14.377232
-14.376882
-14.376365
-14.375764
-14.375215
-14.376732
-14.376717
-14.376675
-14.376572
-14.376367
-14.376015
-14.37552
-14.374971
-14.374495
-14.375779
-14.375779
-14.37575
-14.375649
-14.375436
-14.375088
-14.374626
-14.374138
-14.373734
-14.374804
-14.374821
-14.37481
-14.374721
-14.374511
-14.374182
-14.373772
-14.373356
-14.373015
-14.373895
-14.373927
-14.373937
-14.373877
-14.373701
-14.373408
-14.373056
-14.372703
-14.372407
-14.373093
-14.373135
-14.373165
-14.373142
-14.373023
-14.372789
-14.372492
-14.372182
-14.371904
-14.372336
-14.372382
-14.372428
-14.372449
-14.372413
-14.37229
-14.372091
-14.371849
-14.371556
-14.371735
-14.371783
-14.371846
-14.371913
-14.371973
-14.372008
-14.371998
-14.37195
-14.371756
-13.586363
-13.586371
-13.586389
-13.586424
-13.58649
-13.586599
-13.58675
-13.586924
-13.587033
-13.586925
-13.586924
-13.586926
-13.586937
-13.58697
-13.587034
-13.587117
-13.587195
-13.587229
-13.587502
-13.587496
-13.58749
-13.587492
-13.587513
-13.587555
-13.587598
-13.587623
-13.58763
-13.587999
-13.587988
-13.587979
-13.58798
-13.588
-13.588027
-13.588035
-13.588014
-13.587978
-13.588398
-13.588387
-13.588377
-13.588378
-13.58839
-13.588391
-13.588361
-13.588295
-13.588209
-13.588697
-13.588687
-13.588679
-13.588676
-13.588669
-13.58864
-13.588573
-13.588463
-13.588328
-13.588895
-13.588888
-13.588879
-13.588865
-13.588839
-13.588785
-13.588684
-13.588534
-13.588356
-13.589027
-13.589021
-13.589009
-13.588985
-13.588942
-13.588863
-13.588732
-13.588546
-13.588332
-13.589119
-13.589112
-13.589096
-13.589066
-13.589007
-13.588906
-13.588747
-13.588531
-13.588287
-13.589184
-13.589175
-13.589157
-13.58912
-13.589049
-13.588929
-13.588748
-13.588508
-13.588243
-13.589225
-13.589216
-13.589195
-13.589152
-13.589072
-13.58894
-13.588744
-13.58849
-13.58821
-13.589243
-13.589233
-13.589211
-13.589167
-13.589083
-13.588944
-13.588741
-13.588479
-13.588193
-13.589243
-13.589233
-13.589211
-13.589167
-13.589082
-13.588944
-13.588741
-13.588479
-13.588192
-13.589225
-13.589215
-13.589194
-13.589152
-13.589072
-13.58894
-13.588744
-13.588489
-13.588209
-13.589183
-13.589174
-13.589156
-13.589119
-13.589049
-13.588929
-13.588748
-13.588507
-13.588241
-13.589118
-13.589111
-13.589096
-13.589066
-13.589008
-13.588906
-13.588747
-13.58853
-13.588285
-13.589027
-13.589021
-13.589009
-13.588986
-13.588942
-13.588864
-13.588733
-13.588545
-13.588329
-13.588895
-13.588889
-13.58888
-13.588867
-13.588841
-13.588786
-13.588685
-13.588533
-13.588353
-13.588698
-13.588689
-13.588681
-13.588679
-13.588672
-13.588643
-13.588575
-13.588462
-13.588325
-13.588402
-13.588391
-13.588382
-13.588383
-13.588395
-13.588396
-13.588365
-13.588296
-13.588207
-13.588005
-13.587994
-13.587985
-13.587987
-13.588007
-13.588033
-13.58804
-13.588017
-13.587977
-13.58751
-13.587504
-13.587499
-13.587501
-13.587523
-13.587564
-13.587605
-13.587627
-13.587631
-13.586935
-13.586935
-13.586936
-13.586948
-13.586981
-13.587044
-13.587127
-13.587202
-13.587231
-13.586374
-13.586383
-13.5864
-13.586436
-13.586502
-13.586611
-13.586761
-13.586934
-13.587039
-12.811193
-12.811204
-12.811218
-12.811236
-12.811257
-12.811279
-12.811304
-12.811335
-12.811338
-12.811365
-12.811373
-12.811382
-12.811388
-12.811386
-12.811373
-12.811357
-12.811343
-12.811323
-12.811573
-12.81158
-12.811585
-12.811581
-12.811562
-12.81153
-12.811494
-12.811468
-12.811457
-12.811782
-12.811786
-12.811786
-12.811775
-12.811748
-12.811708
-12.811666
-12.811634
-12.811621
-12.812005
-12.812005
-12.812001
-12.811984
-12.811952
-12.811908
-12.81186
-12.811819
-12.811799
-12.812248
-12.812245
-12.812237
-12.812217
-12.812183
-12.812135
-12.812081
-12.812031
-12.811999
-12.812491
-12.812485
-12.812475
-12.812455
-12.812422
-12.812374
-12.812316
-12.812257
-12.812213
-12.812719
-12.812711
-12.812699
-12.81268
-12.81265
-12.812605
-12.812545
-12.812479
-12.81242
-12.812917
-12.812908
-12.812895
-12.812876
-12.81285
-12.812809
-12.812749
-12.812676
-12.812604
-12.813075
-12.813064
-12.813051
-12.813034
-12.81301
-12.812973
-12.812913
-12.812835
-12.81275
-12.813185
-12.813174
-12.81316
-12.813144
-12.813123
-12.813088
-12.813029
-12.812946
-12.812851
-12.81324
-12.813229
-12.813216
-12.8132
-12.81318
-12.813147
-12.813088
-12.813003
-12.812903
-12.81324
-12.813229
-12.813216
-12.8132
-12.81318
-12.813146
-12.813087
-12.813002
-12.812903
-12.813184
-12.813173
-12.81316
-12.813144
-12.813123
-12.813088
-12.813028
-12.812945
-12.81285
-12.813073
-12.813063
-12.81305
-12.813033
-12.81301
-12.812973
-12.812913
-12.812833
-12.812747
-12.812916
-12.812906
-12.812894
-12.812876
-12.81285
-12.812808
-12.812748
-12.812674
-12.8126
-12.812718
-12.81271
-12.812699
-12.81268
-12.81265
-12.812605
-12.812544
-12.812477
-12.812416
-12.812491
-12.812485
-12.812475
-12.812456
-12.812423
-12.812376
-12.812316
-12.812256
-12.812209
-12.812249
-12.812246
-12.812238
-12.812219
-12.812185
-12.812138
-12.812082
-12.81203
-12.811995
-12.812007
-12.812008
-12.812004
-12.811988
-12.811956
-12.811912
-12.811862
-12.811819
-12.811795
-12.811786
-12.811791
-12.811792
-12.811781
-12.811754
-12.811714
-12.811671
-12.811636
-12.811619
-12.81158
-12.811588
-12.811593
-12.811589
-12.811571
-12.811538
-12.811501
-12.811471
-12.811456
-12.811374
-12.811383
-12.811392
-12.811398
-12.811396
-12.811383
-12.811365
-12.811349
-12.811326
-12.811204
-12.811214
-12.811229
-12.811247
-12.811268
-12.81129
-12.811315
-12.811345
-12.811344
-12.033008
-12.033009
-12.033013
-12.033022
-12.03304
-12.033069
-12.033109
-12.033156
-12.033184
-12.033145
-12.033144
-12.033144
-12.033147
-12.033156
-12.033172
-12.033193
-12.033212
-12.03322
-12.033287
-12.033285
-12.033283
-12.033283
-12.033288
-12.033297
-12.033305
-12.03331
-12.033313
-12.033408
-12.033405
-12.033402
-12.033402
-12.033406
-12.03341
-12.033409
-12.033403
-12.033398
-12.033505
-12.033502
-12.0335
-12.033499
-12.0335
-12.033497
-12.033489
-12.033474
-12.03346
-12.033581
-12.033578
-12.033575
-12.033573
-12.03357
-12.033562
-12.033545
-12.033522
-12.033497
-12.033636
-12.033633
-12.033629
-12.033625
-12.033618
-12.033604
-12.033581
-12.033548
-12.033513
-12.033675
-12.033672
-12.033668
-12.033661
-12.033651
-12.033632
-12.033601
-12.033559
-12.033514
-12.033705
-12.033701
-12.033696
-12.033688
-12.033674
-12.033651
-12.033613
-12.033562
-12.033509
-12.033726
-12.033722
-12.033716
-12.033707
-12.03369
-12.033662
-12.033619
-12.033562
-12.033501
-12.033739
-12.033735
-12.033729
-12.033719
-12.0337
-12.033669
-12.033622
-12.03356
-12.033495
-12.033746
-12.033741
-12.033735
-12.033724
-12.033705
-12.033672
-12.033623
-12.033559
-12.033491
-12.033745
-12.033741
-12.033734
-12.033724
-12.033704
-12.033672
-12.033623
-12.033558
-12.033491
-12.033739
-12.033735
-12.033728
-12.033718
-12.0337
-12.033669
-12.033621
-12.033559
-12.033493
-12.033724
-12.033721
-12.033715
-12.033706
-12.03369
-12.033662
-12.033618
-12.03356
-12.033499
-12.033703
-12.0337
-12.033695
-12.033687
-12.033674
-12.03365
-12.033612
-12.03356
-12.033505
-12.033674
-12.033671
-12.033667
-12.033661
-12.033651
-12.033632
-12.033601
-12.033557
-12.03351
-12.033635
-12.033632
-12.033629
-12.033625
-12.033618
-12.033605
-12.033581
-12.033546
-12.033508
-12.033581
-12.033579
-12.033576
-12.033574
-12.033572
-12.033563
-12.033546
-12.03352
-12.033492
-12.033507
-12.033504
-12.033502
-12.033502
-12.033503
-12.033501
-12.033491
-12.033474
-12.033456
-12.033412
-12.033409
-12.033407
-12.033407
-12.033411
-12.033414
-12.033412
-12.033404
-12.033396
-12.033293
-12.033291
-12.03329
-12.033291
-12.033295
-12.033304
-12.03331
-12.033313
-12.033313
-12.033153
-12.033153
-12.033153
-12.033156
-12.033165
-12.033181
-12.033201
-12.033218
-12.033222
-12.033017
-12.033019
-12.033023
-12.033032
-12.033049
-12.033079
-12.033119
-12.033165
-12.033191
-11.256998
-11.257
-11.257004
-11.257008
-11.257013
-11.25702
-11.25703
-11.257044
-11.257052
-11.257047
-11.257048
-11.25705
-11.25705
-11.25705
-11.257049
-11.25705
-11.257053
-11.257054
-11.257104
-11.257105
-11.257105
-11.257103
-11.257099
-11.257095
-11.257091
-11.257091
-11.257095
-11.257161
-11.257161
-11.25716
-11.257157
-11.257152
-11.257145
-11.25714
-11.257137
-11.25714
-11.25722
-11.257219
-11.257217
-11.257213
-11.257206
-11.257198
-11.257189
-11.257183
-11.257182
-11.257277
-11.257276
-11.257274
-11.257269
-11.257262
-11.257251
-11.257239
-11.25723
-11.257225
-11.257331
-11.257329
-11.257326
-11.257322
-11.257314
-11.257302
-11.257288
-11.257275
-11.257266
-11.257378
-11.257376
-11.257373
-11.257369
-11.257361
-11.257349
-11.257333
-11.257317
-11.257305
-11.257418
-11.257416
-11.257413
-11.257408
-11.257401
-11.257389
-11.257372
-11.257354
-11.257339
-11.257449
-11.257447
-11.257444
-11.25744
-11.257432
-11.25742
-11.257403
-11.257383
-11.257365
-11.257471
-11.257468
-11.257465
-11.257461
-11.257454
-11.257442
-11.257424
-11.257403
-11.257383
-11.257481
-11.257479
-11.257476
-11.257472
-11.257464
-11.257453
-11.257435
-11.257413
-11.257392
-11.257481
-11.257479
-11.257476
-11.257471
-11.257464
-11.257452
-11.257434
-11.257413
-11.257391
-11.25747
-11.257468
-11.257465
-11.25746
-11.257453
-11.257441
-11.257423
-11.257402
-11.257381
-11.257448
-11.257446
-11.257443
-11.257439
-11.257432
-11.25742
-11.257402
-11.257382
-11.257362
-11.257416
-11.257415
-11.257412
-11.257408
-11.2574
-11.257388
-11.257371
-11.257352
-11.257335
-11.257376
-11.257375
-11.257372
-11.257368
-11.257361
-11.257349
-11.257333
-11.257315
-11.257301
-11.25733
-11.257328
-11.257326
-11.257322
-11.257314
-11.257303
-11.257288
-11.257273
-11.257262
-11.257277
-11.257276
-11.257274
-11.25727
-11.257263
-11.257253
-11.25724
-11.257228
-11.25722
-11.257221
-11.257221
-11.257219
-11.257216
-11.257209
-11.257201
-11.257191
-11.257183
-11.257178
-11.257165
-11.257165
-11.257164
-11.257162
-11.257157
-11.25715
-11.257143
-11.257138
-11.257137
-11.25711
-11.257111
-11.257111
-11.25711
-11.257106
-11.257101
-11.257096
-11.257094
-11.257094
-11.257054
-11.257056
-11.257057
-11.257058
-11.257058
-11.257057
-11.257057
-11.257058
-11.257056
-11.257007
-11.257009
-11.257012
-11.257016
-11.257021
-11.257029
-11.257039
-11.257052
-11.257057
-10.480385
-10.480385
-10.480386
-10.480389
-10.480393
-10.4804
-10.480409
-10.48042
-10.480425
-10.480418
-10.480418
-10.480418
-10.480419
-10.480421
-10.480424
-10.480428
-10.480431
-10.480432
-10.480454
-10.480453
-10.480453
-10.480453
-10.480453
-10.480454
-10.480454
-10.480454
-10.480455
-10.480485
-10.480484
-10.480483
-10.480483
-10.480483
-10.480482
-10.48048
-10.480478
-10.480478
-10.480512
-10.480511
-10.48051
-10.480509
-10.480508
-10.480506
-10.480503
-10.480499
-10.480496
-10.480534
-10.480533
-10.480532
-10.48053
-10.480529
-10.480526
-10.480522
-10.480517
-10.480512
-10.480554
-10.480552
-10.480551
-10.480549
-10.480547
-10.480543
-10.480538
-10.480531
-10.480524
-10.48057
-10.480568
-10.480567
-10.480564
-10.480562
-10.480558
-10.480552
-10.480543
-10.480534
-10.480583
-10.480581
-10.480579
-10.480577
-10.480574
-10.48057
-10.480563
-10.480553
-10.480542
-10.480593
-10.480591
-10.480589
-10.480586
-10.480583
-10.480579
-10.480571
-10.48056
-10.480547
-10.480599
-10.480598
-10.480595
-10.480593
-10.48059
-10.480585
-10.480577
-10.480565
-10.480551
-10.480603
-10.480601
-10.480598
-10.480596
-10.480593
-10.480588
-10.48058
-10.480567
-10.480552
-10.480602
-10.4806
-10.480598
-10.480596
-10.480592
-10.480588
-10.48058
-10.480567
-10.480552
-10.480598
-10.480597
-10.480595
-10.480592
-10.480589
-10.480585
-10.480577
-10.480564
-10.480549
-10.480591
-10.48059
-10.480588
-10.480586
-10.480583
-10.480578
-10.480571
-10.480559
-10.480545
-10.480581
-10.48058
-10.480578
-10.480576
-10.480573
-10.480569
-10.480562
-10.480551
-10.480538
-10.480568
-10.480567
-10.480566
-10.480564
-10.480561
-10.480558
-10.480551
-10.480541
-10.48053
-10.480553
-10.480552
-10.48055
-10.480549
-10.480547
-10.480544
-10.480538
-10.480529
-10.48052
-10.480534
-10.480534
-10.480533
-10.480532
-10.48053
-10.480527
-10.480522
-10.480515
-10.480508
-10.480513
-10.480512
-10.480512
-10.480511
-10.480511
-10.480508
-10.480504
-10.480498
-10.480493
-10.480488
-10.480488
-10.480487
-10.480487
-10.480487
-10.480486
-10.480483
-10.480479
-10.480475
-10.480459
-10.480459
-10.480459
-10.480459
-10.480459
-10.48046
-10.480459
-10.480457
-10.480454
-10.480425
-10.480425
-10.480426
-10.480426
-10.480428
-10.480431
-10.480434
-10.480436
-10.480434
-10.480393
-10.480393
-10.480395
-10.480397
-10.480401
-10.480408
-10.480417
-10.480427
-10.48043
-9.7040825
-9.7040827
-9.7040832
-9.7040841
-9.7040856
-9.7040883
-9.7040922
-9.7040974
-9.7041003
-9.7040974
-9.7040973
-9.7040973
-9.7040972
-9.7040974
-9.7040981
-9.7040998
-9.7041022
-9.7041038
-9.7041137
-9.7041136
-9.7041132
-9.7041127
-9.7041121
-9.7041118
-9.7041121
-9.7041133
-9.7041151
-9.7041291
-9.7041288
-9.7041284
-9.7041276
-9.7041267
-9.7041258
-9.7041252
-9.7041253
-9.7041266
-9.7041434
-9.704143
-9.7041425
-9.7041416
-9.7041403
-9.7041386
-9.704137
-9.7041359
-9.7041361
-9.7041565
-9.7041562
-9.7041555
-9.7041545
-9.7041528
-9.7041504
-9.7041476
-9.7041451
-9.7041439
-9.7041681
-9.7041677
-9.704167
-9.7041659
-9.7041639
-9.7041608
-9.7041568
-9.7041529
-9.7041503
-9.704178
-9.7041776
-9.7041768
-9.7041756
-9.7041734
-9.7041697
-9.7041647
-9.7041594
-9.7041554
-9.704186
-9.7041856
-9.7041849
-9.7041836
-9.7041812
-9.704177
-9.704171
-9.7041646
-9.7041594
-9.704192
-9.7041916
-9.7041909
-9.7041896
-9.7041871
-9.7041825
-9.7041758
-9.7041685
-9.7041623
-9.704196
-9.7041956
-9.7041949
-9.7041936
-9.704191
-9.7041862
-9.704179
-9.704171
-9.704164
-9.7041979
-9.7041975
-9.7041968
-9.7041956
-9.7041929
-9.704188
-9.7041806
-9.7041721
-9.7041647
-9.7041977
-9.7041973
-9.7041967
-9.7041954
-9.7041928
-9.7041879
-9.7041804
-9.7041719
-9.7041643
-9.7041954
-9.7041951
-9.7041945
-9.7041933
-9.7041908
-9.704186
-9.7041787
-9.7041703
-9.7041628
-9.7041911
-9.7041908
-9.7041902
-9.7041891
-9.7041868
-9.7041822
-9.7041753
-9.7041674
-9.7041603
-9.7041849
-9.7041846
-9.7041841
-9.7041832
-9.704181
-9.7041768
-9.7041705
-9.7041633
-9.7041568
-9.704177
-9.7041768
-9.7041764
-9.7041755
-9.7041736
-9.7041699
-9.7041644
-9.704158
-9.7041525
-9.7041676
-9.7041674
-9.7041671
-9.7041663
-9.7041647
-9.7041615
-9.7041569
-9.7041517
-9.7041472
-9.7041568
-9.7041567
-9.7041564
-9.7041558
-9.7041544
-9.704152
-9.7041484
-9.7041443
-9.704141
-9.7041449
-9.7041448
-9.7041446
-9.7041441
-9.7041431
-9.7041412
-9.7041387
-9.7041359
-9.7041337
-9.7041322
-9.7041322
-9.704132
-9.7041317
-9.7041309
-9.7041297
-9.704128
-9.7041263
-9.7041251
-9.7041185
-9.7041186
-9.7041186
-9.7041183
-9.7041178
-9.7041171
-9.7041164
-9.7041158
-9.7041152
-9.7041037
-9.7041039
-9.704104
-9.7041041
-9.7041043
-9.7041048
-9.7041057
-9.7041067
-9.7041058
-9.7040896
-9.7040899
-9.7040905
-9.7040914
-9.7040931
-9.7040958
-9.7040996
-9.7041042
-9.704105
-8.927769
-8.9277691
-8.9277693
-8.9277698
-8.9277707
-8.9277721
-8.9277742
-8.9277768
-8.9277784
-8.9277771
-8.9277771
-8.927777
-8.927777
-8.9277772
-8.9277776
-8.9277784
-8.9277795
-8.9277802
-8.927786
-8.9277859
-8.9277857
-8.9277855
-8.9277852
-8.9277849
-8.9277849
-8.9277853
-8.9277862
-8.9277947
-8.9277945
-8.9277942
-8.9277938
-8.9277932
-8.9277926
-8.9277922
-8.9277921
-8.9277927
-8.9278032
-8.9278029
-8.9278024
-8.9278018
-8.9278012
-8.9278004
-8.9277997
-8.9277992
-8.9277993
-8.9278114
-8.927811
-8.9278104
-8.9278098
-8.9278091
-8.9278083
-8.9278074
-8.9278065
-8.9278061
-8.9278189
-8.9278184
-8.9278178
-8.9278172
-8.9278165
-8.9278158
-8.9278148
-8.9278137
-8.9278128
-8.9278256
-8.9278251
-8.9278244
-8.9278238
-8.9278232
-8.9278226
-8.9278216
-8.9278203
-8.9278189
-8.9278312
-8.9278306
-8.92783
-8.9278293
-8.9278288
-8.9278283
-8.9278274
-8.9278259