/*--------------------------------*- C++ -*----------------------------------*\
| =========                 |                                                 |
| \\      /  F ield         | OpenFOAM: The Open Source CFD Toolbox           |
|  \\    /   O peration     | Version:  2406                                  |
|   \\  /    A nd           | Website:  www.openfoam.com                      |
|    \\/     M anipulation  |                                                 |
\*---------------------------------------------------------------------------*/
FoamFile
{
    version     2.0;
    format      ascii;
    arch        "LSB;label=32;scalar=64";
    class       surfaceScalarField;
    location    "9.25";
    object      phi;
}
// * * * * * * * * * * * * * * * * * * * * * * * * * * * * * * * * * * * * * //

dimensions      [0 3 -1 0 0 0 0];

oriented        oriented;

internalField   nonuniform List<scalar> 
101088
(
0.00013469148
-1.0650562e-05
7.5753708e-06
9.2065102e-06
0.00030202378
-4.6908093e-05
3.5324804e-05
4.1317272e-05
0.00049102831
-0.00011531177
9.1265447e-05
0.00010307297
0.00067577088
-0.00022236703
0.00018587845
0.00020193732
0.00081947165
-0.00035832257
0.00031664037
0.00033111933
0.00089175197
-0.00048946432
0.00045521954
0.00046093337
0.00088905649
-0.00056666487
0.00055255864
0.00054411045
0.00083373413
-0.00056419778
0.00057127403
0.00055435963
-0.00049060826
0.00051205776
0.00050116076
0.00075175095
0.00016388509
-1.1761526e-05
9.9738249e-06
0.00036330575
-5.1026481e-05
4.6120692e-05
0.00058127677
-0.00012363536
0.00011828607
0.0007824563
-0.0002342909
0.00023885144
0.00092209694
-0.0003709252
0.00040274061
0.00096923795
-0.0004974693
0.00057302718
0.0009290463
-0.00056574109
0.00069078454
0.00083406802
-0.00055080469
0.0007147305
-0.00046890628
0.00064848525
0.0007254266
0.00019303757
-1.2369437e-05
1.2539169e-05
0.00042341231
-5.2899869e-05
5.7474554e-05
0.00066781346
-0.00012658115
0.00014623946
0.00088246511
-0.00023637605
0.00029255247
0.0010165713
-0.00036867839
0.00048777689
0.0010408586
-0.00048652748
0.00068576338
0.00096984192
-0.0005447195
0.00081880931
0.00084655818
-0.00052062722
0.00084393338
-0.00043680139
0.0007691315
0.00071680196
0.00022128365
-1.2512932e-05
1.5277431e-05
0.00048103973
-5.2718715e-05
6.9344753e-05
0.00074956537
-0.00012454968
0.00017488849
0.00097509923
-0.00022934366
0.00034637907
0.0011022782
-0.00035309255
0.00057085521
0.0011053712
-0.00045961304
0.00079282388
0.0010083752
-0.00050786879
0.00093698019
0.00086358621
-0.00047867788
0.0009601727
-0.00039734834
0.00087531507
0.00071808397
0.00024777761
-1.2070522e-05
1.8033869e-05
0.00053441998
-5.0273106e-05
8.1142882e-05
0.00082424317
-0.00011759411
0.00020301318
0.0010585212
-0.00021411449
0.00039844722
0.0011785785
-0.00032638867
0.00064976052
0.001162821
-0.00042025121
0.00089247665
0.0010440974
-0.00045938774
0.0010446189
0.00088210053
-0.00042848139
0.0010638164
-0.00035250586
0.00096800783
0.00072407513
0.000272297
-1.1195163e-05
2.0739243e-05
0.00058365912
-4.6137481e-05
9.257954e-05
0.00089283756
-0.00010691225
0.00022995051
0.0011348596
-0.00019267924
0.0004476375
0.0012483859
-0.00029125207
0.00072309224
0.0012159752
-0.00037154759
0.00098351403
0.0010784364
-0.00040231375
0.0011412606
0.00090141907
-0.00037200243
0.0011551689
-0.00030333578
0.0010480641
0.00073247156
0.0002939325
-9.95031e-06
2.3311724e-05
0.00062671606
-4.0596038e-05
0.00010330158
0.00095218948
-9.3257884e-05
0.00025486441
0.0012001793
-0.0001665439
0.00049246819
0.001307453
-0.0002499924
0.00078890597
0.0012606348
-0.00031644497
0.0010639784
0.0011074497
-0.00033982712
0.0012254685
0.00091810866
-0.00031181929
0.0012336186
-0.00025184703
0.0011157191
0.00074045818
0.00031241104
-8.3756301e-06
2.56099e-05
0.00066326221
-3.3873769e-05
0.00011280952
0.0010022039
-7.7243817e-05
0.00027680028
0.0012547842
-0.00013690545
0.00053161732
0.0013563469
-0.00020436653
0.00084585554
0.0012971864
-0.00025706436
0.0011329276
0.0011309063
-0.00027414386
0.0012969485
0.00093129839
-0.00024975973
0.001299502
-0.00019969728
0.0011717869
0.00074676219
0.00032748998
-6.5141552e-06
2.7542449e-05
0.00069294836
-2.6186587e-05
0.0001207681
0.0010426051
-5.9398673e-05
0.00029508762
0.0012985787
-0.00010469926
0.00056410676
0.0013951209
-0.00015567278
0.00089286254
0.0013256271
-0.00019487989
0.0011894934
0.0011485446
-0.00020667484
0.0013551804
0.00094054974
-0.00018707654
0.0013527891
-0.00014813116
0.001216624
0.00075082348
0.00033900856
-4.4624097e-06
2.9051791e-05
0.00071559546
-1.7870654e-05
0.00012696823
0.0010733344
-4.035784e-05
0.00030929753
0.0013316919
-7.0818002e-05
0.00058926495
0.0014240865
-0.00010495535
0.00092909952
0.001346362
-0.00013089246
0.0012328688
0.0011607472
-0.00013821512
0.00139957
0.00094627055
-0.0001244285
0.0013931272
-9.7717019e-05
0.0012502083
0.00075288017
0.00034667462
-2.292167e-06
3.0140085e-05
0.00073046576
-9.1112011e-06
0.00013136331
0.0010931808
-2.0475939e-05
0.00031921082
0.0013526352
-3.5784541e-05
0.00060654687
0.0014418633
-5.2883306e-05
0.00095365452
0.0013584852
-6.5768531e-05
0.0012619316
0.0011672585
-6.924432e-05
0.0014290384
0.00094878992
-6.2101674e-05
0.0014196824
-4.8497682e-05
0.0012721291
0.00075347467
0.00035052944
1.3199424e-11
3.0645349e-05
0.00073796455
1.9667311e-11
0.00013344875
0.0011032271
8.4202148e-12
0.00032400839
0.0013632628
-9.7143898e-13
0.00061506371
0.0014508616
-1.0651787e-10
0.00096592788
0.0013645293
-4.312766e-10
0.0012765846
0.0011703459
-8.872014e-10
0.0014439506
0.00094979685
-9.6516662e-10
0.0014331211
-7.0313445e-10
0.0012832068
0.00075350781
0.00035052929
2.292187e-06
3.0645344e-05
0.00073796439
9.1112144e-06
0.00013344874
0.0011032267
2.0475888e-05
0.00032400835
0.0013632624
3.578442e-05
0.00061506364
0.0014508611
5.2882905e-05
0.00096592778
0.0013645289
6.5767442e-05
0.0012765845
0.0011703459
6.9242414e-05
0.0014439505
0.000949797
6.2099632e-05
0.001433121
4.8496085e-05
0.0012832067
0.00075350827
0.00034667457
4.4624249e-06
3.0140084e-05
0.00073046577
1.7870634e-05
0.00013136331
0.0010931804
4.0357777e-05
0.00031921081
0.0013526348
7.0817892e-05
0.00060654684
0.0014418626
0.00010495474
0.00095365448
0.0013584846
0.00013089103
0.0012619315
0.0011672587
0.00013821312
0.0014290382
0.00094879039
0.00012442628
0.0014196823
9.7714788e-05
0.001272129
0.0007534757
0.00033900893
6.5141712e-06
2.9051784e-05
0.00071559572
2.6186486e-05
0.0001269682
0.0010733336
5.9398627e-05
0.00030929746
0.0013316913
0.00010469936
0.00058926481
0.0014240856
0.00015567219
0.0009290993
0.0013463614
0.0001948784
0.0012328685
0.0011607472
0.00020667293
0.0013995696
0.00094627092
0.00018707411
0.0013931269
0.00014812795
0.0012502081
0.00075288095
0.00032749056
8.3755648e-06
2.7542446e-05
0.00069294838
3.3873368e-05
0.00012076808
0.0010426039
7.724347e-05
0.00029508759
0.0012985781
0.00013690554
0.0005641067
0.0013951203
0.00020436619
0.00089286241
0.0013256268
0.00025706323
0.0011894931
0.0011485443
0.00027414202
0.0013551802
0.00094054962
0.00024975721
0.0013527889
0.00019969377
0.0012166238
0.00075082337
0.0003124112
9.9502657e-06
2.56099e-05
0.00066326149
4.0595774e-05
0.00011280952
0.0010022029
9.3257767e-05
0.00027680028
0.0012547839
0.00016654446
0.00053161731
0.0013563465
0.00024999272
0.00084585549
0.001297186
0.00031644425
0.0011329275
0.0011309058
0.00033982514
0.0012969484
0.00093129785
0.00031181705
0.0012995018
0.00025184445
0.0011717867
0.00074676153
0.00029393215
1.1195233e-05
2.3311728e-05
0.00062671533
4.6137658e-05
0.0001033016
0.00095218918
0.00010691244
0.00025486444
0.0012001787
0.00019267946
0.00049246821
0.0013074523
0.00029125191
0.000788906
0.001260634
0.00037154688
0.0010639784
0.0011074492
0.0004023121
0.0012254684
0.00091810807
0.0003720012
0.0012336185
0.00030333444
0.0011157189
0.00074045754
0.00027229729
1.2070589e-05
2.073925e-05
0.00058365974
5.02733e-05
9.2579568e-05
0.00089283752
0.00011759396
0.00022995057
0.0011348594
0.00021411402
0.0004476376
0.0012483849
0.00032638805
0.00072309237
0.0012159741
0.0004202507
0.0009835142
0.001078436
0.00045938696
0.0011412607
0.00090141834
0.0004284812
0.0011551688
0.00035250516
0.001048064
0.00073247047
0.00024777746
1.2512926e-05
1.8033871e-05
0.00053441946
5.2718633e-05
8.114289e-05
0.00082424205
0.00012454945
0.00020301319
0.0010585205
0.00022934349
0.00039844724
0.001178577
0.00035309248
0.00064976052
0.00116282
0.00045961358
0.00089247667
0.0010440969
0.00050786863
0.0010446188
0.00088209984
0.0004786775
0.0010638164
0.00039734839
0.00096800772
0.00072407392
0.00022128365
1.2369453e-05
1.5277431e-05
0.00048104004
5.2899859e-05
6.934475e-05
0.00074956572
0.00012658124
0.00017488848
0.00097509909
0.000236376
0.00034637904
0.001102278
0.00036867808
0.00057085518
0.0011053705
0.00048652719
0.00079282383
0.0010083751
0.00054471974
0.00093698013
0.00086358595
0.00052062635
0.00096017265
0.00043680263
0.00087531502
0.00071808453
0.00019303767
1.1761503e-05
1.2539168e-05
0.00042341268
5.1026373e-05
5.7474548e-05
0.00066781375
0.00012363521
0.00014623944
0.00088246479
0.00023429047
0.00029255244
0.001016571
0.00037092464
0.00048777684
0.0010408585
0.00049746974
0.00068576332
0.00096984103
0.00056574238
0.00081880927
0.00084655718
0.0005508032
0.00084393335
0.00046890621
0.00076913144
0.00071680248
0.00016388511
1.065056e-05
9.9738283e-06
0.00036330595
4.6908079e-05
4.6120704e-05
0.00058127721
0.00011531171
0.0001182861
0.00078245678
0.00022236671
0.00023885149
0.00092209715
0.0003583223
0.00040274068
0.00096923852
0.00048946528
0.00057302729
0.00092904596
0.00056666637
0.00069078463
0.00083406846
0.00056419629
0.00071473057
0.00049060717
0.00064848531
0.0007254284
0.00013469154
7.5753766e-06
9.2065024e-06
0.00030202405
3.5324827e-05
4.1317214e-05
0.0004910289
9.12655e-05
0.00010307284
0.00067577217
0.00018587854
0.0002019371
0.00081947342
0.00031664051
0.00033111914
0.00089175307
0.00045521972
0.00046093364
0.0008890576
0.00055255882
0.00054411204
0.00083373599
0.0005712741
0.00055435844
0.0005120578
0.00050115922
0.0007517523
3.0081998e-06
2.1577191e-06
4.6310006e-06
-2.2215526e-06
1.526201e-05
5.9009708e-06
2.395671e-05
-6.7867606e-06
4.2998898e-05
2.5744323e-06
6.7829886e-05
-6.8759522e-06
9.1859533e-05
-2.6239235e-05
0.00015073398
1.252281e-05
0.00016189601
-0.0001042257
0.00027788839
7.2941085e-05
0.00024206167
-0.00023433676
0.00042697179
0.00018241891
0.00031314466
-0.0003772311
0.00054497703
0.0003137295
0.00036457052
-0.00047158137
0.00058204416
0.0004093852
-0.0004821431
0.00052946295
0.00043323942
0.00039606913
4.1090355e-06
2.3818831e-06
5.6406036e-06
2.08664e-05
5.7026663e-06
2.9561506e-05
5.814987e-05
-8.8558484e-07
8.4462422e-05
0.00012104465
-3.8880251e-05
0.00018859766
0.00020390107
-0.00013195462
0.0003476134
0.00028685911
-0.00027612341
0.00053185571
0.00034632566
-0.00042195018
0.00067603696
0.00037568762
-0.00050942751
0.00072321483
-0.00050775946
0.00066646995
0.00038331931
5.6997885e-06
2.636901e-06
6.5843088e-06
2.8141616e-05
5.812443e-06
3.4922811e-05
7.6181985e-05
-3.2461949e-06
0.00010055969
0.00015293855
-4.8367326e-05
0.00022528323
0.00024612578
-0.00015177562
0.00041441061
0.00032837948
-0.00030247866
0.00062986475
0.00037476762
-0.00044406876
0.00079453946
0.00038397095
-0.00052199514
0.00084729754
-0.0005113786
0.00078505751
0.00037166388
7.5916683e-06
2.7715049e-06
7.5511345e-06
3.6678797e-05
5.7252797e-06
4.0344619e-05
9.6757583e-05
-5.0836482e-06
0.00011664703
0.00018781466
-5.4475303e-05
0.0002614301
0.00029000079
-0.00016205352
0.00047894696
0.00036984768
-0.00031162482
0.0007221236
0.00040386507
-0.00044384328
0.00090273682
0.00039573173
-0.00051094401
0.00095725518
-0.00049473063
0.0008877765
0.00036662213
9.527781e-06
2.7985827e-06
8.4790609e-06
4.529748e-05
5.5319975e-06
4.5566643e-05
0.00011725073
-6.1549501e-06
0.00013213152
0.00022198129
-5.6809502e-05
0.00029605066
0.00033236996
-0.00016273077
0.00054004949
0.00040990332
-0.00030461327
0.00080793132
0.00043356101
-0.00042398683
0.0010011044
0.00041195657
-0.00048016619
0.0010546433
-0.00046155053
0.00097656956
0.00037021452
1.1460039e-05
2.7003097e-06
9.3774443e-06
5.383006e-05
5.1573724e-06
5.0584072e-05
0.00013736155
-6.6368097e-06
0.00014690129
0.00025513572
-5.5739108e-05
0.00032879326
0.00037323352
-0.00015492738
0.00059719153
0.00044916156
-0.00028382731
0.00088679997
0.00046474248
-0.0003880754
0.0010897679
0.00043315763
-0.00043390591
0.0011404934
-0.00041551392
0.0010529674
0.00038221767
1.328418e-05
2.4691183e-06
1.0258839e-05
6.1780234e-05
4.584522e-06
5.5378496e-05
0.0001558195
-6.5607344e-06
0.00016074891
0.0002850747
-5.1531064e-05
0.00035900522
0.00040981173
-0.00013988321
0.00064912489
0.00048462778
-0.00025191283
0.00095724775
0.00049412657
-0.00033974634
0.0011676406
0.00045574163
-0.0003764827
0.0012145804
-0.00036026959
0.0011176011
0.00039861529
1.4903658e-05
2.1213011e-06
1.1053901e-05
6.8776686e-05
3.8490335e-06
5.9672401e-05
0.00017191103
-5.9691579e-06
0.0001730746
0.00031089903
-4.4631903e-05
0.00038572995
0.00044114843
-0.00011895375
0.00069467654
0.00051528939
-0.0002114855
0.0010183591
0.00052034169
-0.00028224022
0.0012343902
0.00047710469
-0.00031105202
0.0012773083
-0.00029775642
0.0011714557
0.00041492283
1.6260231e-05
1.6765794e-06
1.1726643e-05
7.4589361e-05
2.9892533e-06
6.3299024e-05
0.00018515942
-4.9208295e-06
0.00018346979
0.00033190379
-3.5508982e-05
0.00040823926
0.00046634755
-9.3351176e-05
0.00073281635
0.00053961268
-0.00016440427
0.001069147
0.00054116806
-0.00021799344
0.0012893784
0.00049404545
-0.00023969273
0.0013285525
-0.00022887501
0.0012148997
0.00042688858
1.7304726e-05
1.1644778e-06
1.2259042e-05
7.9041754e-05
2.0541683e-06
6.6166327e-05
0.0001952416
-3.4956927e-06
0.0001916728
0.0003477224
-2.4676803e-05
0.00042595172
0.00048509226
-6.4263083e-05
0.00076264187
0.00055745532
-0.00011246166
0.0011085634
0.00055588621
-0.00014857316
0.001331719
0.00050447822
-0.00016291598
0.0013677587
-0.00015486726
0.0012477879
0.00043289124
1.803282e-05
5.8242318e-07
1.2689358e-05
8.2104563e-05
9.9345343e-07
6.8352295e-05
0.00020205448
-1.9057976e-06
0.00019767124
0.00035818748
-1.2756985e-05
0.00043849416
0.0004971991
-3.2849976e-05
0.00078323015
0.00056855704
-5.7164194e-05
0.0011352765
0.00056428266
-7.53051e-05
0.001360045
0.00050962476
-8.2357938e-05
0.0013937826
-7.8001297e-05
0.0012694294
0.00043545879
1.8364461e-05
2.1773495e-11
1.2863316e-05
8.3493049e-05
5.467509e-11
6.9313594e-05
0.00020513792
7.9859499e-11
0.00020045795
0.00036289631
2.5250209e-11
0.00044454872
0.00050257187
-1.9837829e-10
0.00079340287
0.00057334917
-6.207974e-10
0.001148644
0.00056767764
-1.0194899e-09
0.0013743183
0.00051148348
-1.1712331e-09
0.0014069589
-9.9678709e-10
0.0012804026
0.00043628769
1.8364462e-05
-5.8237527e-07
1.2863314e-05
8.349311e-05
-9.933432e-07
6.9313583e-05
0.00020513788
1.9059206e-06
0.00020045792
0.00036289618
1.2756939e-05
0.00044454866
0.00050257163
3.2849436e-05
0.00079340277
0.00057334896
5.7162804e-05
0.0011486438
0.00056767755
7.5302982e-05
0.0013743182
0.00051148344
8.2355542e-05
0.0014069588
7.7999246e-05
0.0012804025
0.00043628777
1.8032837e-05
-1.1644349e-06
1.2689356e-05
8.2104691e-05
-2.0540881e-06
6.8352288e-05
0.00020205443
3.4957608e-06
0.00019767122
0.00035818738
2.4676691e-05
0.00043849412
0.00049719878
6.42624e-05
0.00078323008
0.00056855675
0.00011246011
0.0011352764
0.00056428254
0.00014857101
0.0013600448
0.00050962469
0.00016291353
0.0013937824
0.00015486498
0.0012694292
0.00043545889
1.730486e-05
-1.6765388e-06
1.2259037e-05
7.9041858e-05
-2.9892092e-06
6.6166303e-05
0.00019524134
4.9209111e-06
0.00019167274
0.00034772223
3.5509031e-05
0.00042595159
0.00048509184
9.3350602e-05
0.00076264164
0.00055745492
0.00016440279
0.0011085631
0.00055588591
0.00021799136
0.0013317186
0.00050447794
0.00023969016
0.0013677583
0.00022887223
0.0012477876
0.00043289109
1.6260522e-05
-2.1212744e-06
1.172664e-05
7.4589403e-05
-3.8490562e-06
6.3299008e-05
0.00018515896
5.9692236e-06
0.00018346975
0.00033190356
4.4632162e-05
0.00040823917
0.00046634718
0.0001189535
0.00073281618
0.00053961227
0.00021148437
0.0010691468
0.00054116754
0.00028223828
0.001289378
0.00049404486
0.00031104948
0.0013285522
0.00029775342
0.0012148994
0.00042688799
1.4903819e-05
-2.469086e-06
1.1053899e-05
6.8776431e-05
-4.5845063e-06
5.9672391e-05
0.00017191055
6.5609273e-06
0.00017307458
0.0003108987
5.1531583e-05
0.0003857299
0.00044114802
0.00013988332
0.00069467645
0.00051528885
0.00025191204
0.0010183589
0.00052034096
0.00033974453
0.0012343899
0.00047710383
0.0003764805
0.001277308
0.00036026708
0.0011714554
0.00041492193
1.3284089e-05
-2.7002466e-06
1.0258838e-05
6.177994e-05
-5.1571892e-06
5.5378494e-05
0.00015581928
6.6371878e-06
0.00016074891
0.00028507428
5.5739598e-05
0.00035900521
0.00040981111
0.00015492755
0.00064912487
0.00048462698
0.00028382683
0.00095724769
0.00049412574
0.00038807397
0.0011676404
0.00045574065
0.00043390435
0.0012145802
0.00041551211
0.0011176009
0.0003986143
1.1460074e-05
-2.7984942e-06
9.3774466e-06
5.3830078e-05
-5.5317412e-06
5.0584084e-05
0.00013736118
6.1552096e-06
0.00014690132
0.00025513519
5.6809701e-05
0.00032879332
0.00037323256
0.00016273085
0.00059719161
0.00044916049
0.00030461311
0.00088680006
0.00046474158
0.00042398605
0.0010897679
0.00043315654
0.00048016526
0.0011404933
0.000461549
0.0010529672
0.00038221645
9.5277581e-06
-2.771442e-06
8.4790614e-06
4.5297323e-05
-5.7251218e-06
4.5566645e-05
0.00011725024
5.0838765e-06
0.00013213153
0.00022198084
5.4475658e-05
0.00029605066
0.00033236892
0.00016205385
0.00054004948
0.00040990226
0.00031162522
0.00080793131
0.00043356006
0.00044384294
0.0010011044
0.00041195548
0.0005109432
0.0010546432
0.00049472947
0.00097656939
0.00037021311
7.5916898e-06
-2.6368471e-06
7.5511355e-06
3.6678959e-05
-5.8123081e-06
4.0344621e-05
9.675773e-05
3.2465222e-06
0.00011664703
0.00018781454
4.8367798e-05
0.00026143009
0.00029000046
0.00015177602
0.00047894693
0.00036984701
0.00030247896
0.00072212354
0.00040386452
0.00044406898
0.00090273674
0.00039573086
0.00052199443
0.0009572551
0.00051137807
0.0008877764
0.00036662139
5.6998672e-06
-2.3818462e-06
6.5843098e-06
2.8141864e-05
-5.7025678e-06
3.4922812e-05
7.6182262e-05
8.8581115e-07
0.00010055969
0.00015293859
3.8880495e-05
0.00022528321
0.00024612576
0.00013195482
0.00041441056
0.00032837953
0.00027612394
0.00062986468
0.00037476703
0.00042195132
0.00079453939
0.00038396972
0.00050942721
0.00084729749
0.00050775826
0.00078505745
0.00037166311
4.1090778e-06
-2.157693e-06
5.6406072e-06
2.0866589e-05
-5.9008943e-06
2.9561519e-05
5.8150243e-05
-2.5743098e-06
8.4462451e-05
0.00012104519
2.6239254e-05
0.0001885977
0.00020390182
0.00010422567
0.00034761346
0.00028686048
0.0002343372
0.00053185579
0.00034632698
0.000377232
0.00067603701
0.00037568942
0.00047158107
0.00072321487
0.000482142
0.00066647002
0.00038332127
3.0082416e-06
4.6310057e-06
-2.2215743e-06
1.5262205e-05
2.395673e-05
-6.7868429e-06
4.299939e-05
6.7829931e-05
-6.8761337e-06
9.1860703e-05
0.00015073406
1.2522458e-05
0.00016189801
0.00027788849
7.2940552e-05
0.00024206402
0.0004269719
0.00018241844
0.00031314773
0.00054497714
0.00031372991
0.00036457387
0.00058204425
0.00040938528
0.00052946304
0.00043323967
0.00039607087
6.8678726e-07
2.3048124e-07
4.4130024e-06
-6.9927067e-07
3.8177223e-06
1.7015885e-07
2.283808e-05
-2.1824713e-06
1.158509e-05
-2.8190835e-06
6.508882e-05
-2.2072333e-06
2.7021552e-05
-1.6115675e-05
0.00014609872
5.3144604e-06
5.3435553e-05
-5.4653516e-05
0.00027257956
3.3548349e-05
9.2751845e-05
-0.00013396892
0.00042408575
9.7538659e-05
0.00014262607
-0.00024520656
0.00054696842
0.00019334088
0.00019435383
-0.00033653275
0.00058806907
0.00027878001
-0.00036474996
0.00053632505
0.00031528203
0.00023695959
8.8751353e-07
-1.8483181e-07
5.1683999e-06
5.1542643e-06
-1.7771172e-06
2.7241999e-05
1.5929548e-05
-7.8996587e-06
7.8767675e-05
3.6763863e-05
-2.6950312e-05
0.00017859797
6.9902259e-05
-7.5118481e-05
0.00033494
0.00011334619
-0.00016723955
0.00052168237
0.00015947414
-0.00028810392
0.00067280629
0.00019965368
-0.00037953154
0.00072603401
-0.00039950817
0.00067149101
0.00022939078
1.1477126e-06
-5.4576552e-07
5.7975237e-06
6.6437487e-06
-3.4529739e-06
3.1102574e-05
2.0442415e-05
-1.226523e-05
9.1126513e-05
4.6584119e-05
-3.6198833e-05
0.00020838997
8.5878355e-05
-9.2126781e-05
0.00039212455
0.00013187589
-0.00019329399
0.00060992155
0.00017244595
-0.00031790822
0.00078377354
0.00020001862
-0.00040458749
0.00084478069
-0.00041556023
0.00078635706
0.00021477109
1.4247864e-06
-8.2621184e-07
6.4067933e-06
8.2523358e-06
-4.7508731e-06
3.4814961e-05
2.5268723e-05
-1.5576222e-05
0.00010294167
5.6845047e-05
-4.2975749e-05
0.00023663074
0.00010206031
-0.00010403007
0.00044563493
0.00014977846
-0.00020978965
0.00069090105
0.00018424505
-0.00033264446
0.00088300626
0.00019980597
-0.00041111099
0.00094821768
-0.00041352009
0.00088435828
0.000201184
1.6713566e-06
-9.7852037e-07
6.9599938e-06
9.7436703e-06
-5.4933883e-06
3.8236796e-05
2.9872043e-05
-1.7486626e-05
0.00011391353
6.677326e-05
-4.672974e-05
0.00026290338
0.00011753188
-0.00010996942
0.00049523026
0.00016634524
-0.0002156331
0.00076496132
0.00019489078
-0.00033199824
0.00097191249
0.00020013694
-0.00040037479
0.0010386609
-0.00039586614
0.00096801253
0.00019103996
1.9562322e-06
-1.042096e-06
7.4847911e-06
1.1391138e-05
-5.7999496e-06
4.1455738e-05
3.4830327e-05
-1.8199295e-05
0.00012417479
7.7290559e-05
-4.7743943e-05
0.00028734716
0.00013353496
-0.00011010148
0.00054107915
0.00018295125
-0.00021072585
0.00083247628
0.0002056333
-0.00031628228
0.0010513696
0.00020172967
-0.00037356527
0.0011175875
-0.00036398372
0.0010391005
0.00018371416
2.2357464e-06
-1.0248631e-06
8.0058469e-06
1.2981913e-05
-5.6915761e-06
4.4523973e-05
3.9530033e-05
-1.7717908e-05
0.00013371943
8.696662e-05
-4.5903286e-05
0.00030972801
0.00014763472
-0.00010408978
0.00058244497
0.00019680316
-0.00019512307
0.00089247636
0.00021404215
-0.00028659567
0.0011207147
0.00020249682
-0.00033250886
0.0011850693
-0.00031980534
0.0010984183
0.00017750129
2.4874348e-06
-9.3087593e-07
8.4724503e-06
1.4397126e-05
-5.1740563e-06
4.7245216e-05
4.3658979e-05
-1.6037986e-05
0.00014213279
9.5300522e-05
-4.1190537e-05
0.00032937561
0.00015939455
-9.2068493e-05
0.00061856108
0.0002076697
-0.00016944706
0.00094440779
0.00021997504
-0.00024444617
0.0011799352
0.00020240857
-0.00027936988
0.0012417358
-0.00026582948
0.0011471335
0.00017275489
2.6990927e-06
-7.6577436e-07
8.8624097e-06
1.5576574e-05
-4.2688948e-06
4.9516432e-05
4.706373e-05
-1.3211816e-05
0.00014915649
0.00010205616
-3.3733322e-05
0.00034578959
0.0001686432
-7.4542076e-05
0.00064870285
0.00021598769
-0.00013516736
0.00098752277
0.00022424567
-0.00019197322
0.0012286474
0.00020236646
-0.00021661135
0.0012876733
-0.0002049517
0.0011858829
0.00017050551
2.8680006e-06
-5.4411061e-07
9.1693532e-06
1.6507983e-05
-3.0431545e-06
5.1300661e-05
4.9721702e-05
-9.4170446e-06
0.00015466436
0.00010724253
-2.3948105e-05
0.00035864571
0.00017555693
-5.2456021e-05
0.00067224149
0.00022198251
-9.4015075e-05
0.0010209857
0.00022751178
-0.00013188621
0.0012661028
0.00020372057
-0.00014764056
0.0013225793
-0.00013943256
0.0012148922
0.00017109721
2.9985821e-06
-2.8642158e-07
9.4330741e-06
1.7199372e-05
-1.595994e-06
5.2704424e-05
5.1624964e-05
-4.9205518e-06
0.00015874929
0.00011082554
-1.2455032e-05
0.00036780065
0.00018015104
-2.7096802e-05
0.00068854562
0.00022588213
-4.8176008e-05
0.0010437066
0.0002299524
-6.7049666e-05
0.0012911383
0.00020521024
-7.4740387e-05
0.0013456248
-7.0537321e-05
0.0012338073
0.00017193723
3.0490643e-06
2.1847966e-11
9.5278059e-06
1.7485361e-05
5.7080333e-11
5.3281349e-05
5.2445694e-05
7.895727e-11
0.00016057718
0.00011239708
-5.0997327e-12
0.00037214251
0.00018214155
-2.9544769e-10
0.0006965621
0.0002275162
-7.3853147e-10
0.0010550942
0.00023099157
-1.1252478e-09
0.0013037946
0.00020589573
-1.2543393e-09
0.0013573157
-1.0704892e-09
0.0012433996
0.00017236253
3.0490786e-06
2.8647132e-07
9.5278043e-06
1.7485364e-05
1.5961205e-06
5.3281341e-05
5.2445649e-05
4.9207215e-06
0.00016057716
0.00011239698
1.2455023e-05
0.00037214246
0.00018214139
2.7096193e-05
0.00069656202
0.000227516
4.8174495e-05
0.0010550941
0.00023099138
6.704738e-05
0.0013037945
0.00020589555
7.4737842e-05
0.0013573156
7.0535163e-05
0.0012433995
0.00017236235
2.9986188e-06
5.4415896e-07
9.4330735e-06
1.7199398e-05
3.0432763e-06
5.2704422e-05
5.1624927e-05
9.4172113e-06
0.00015874928
0.00011082541
2.3948101e-05
0.00036780063
0.00018015077
5.2455409e-05
0.00068854558
0.00022588175
9.4013562e-05
0.0010437065
0.00022995195
0.00013188393
0.0012911382
0.00020520974
0.000147638
0.0013456246
0.00013943036
0.0012338071
0.00017193671
2.8680302e-06
7.6582492e-07
9.1693504e-06
1.6507954e-05
4.2690291e-06
5.1300646e-05
4.972158e-05
1.3212023e-05
0.00015466432
0.00010724227
3.3733414e-05
0.00035864562
0.00017555645
7.4541594e-05
0.00067224132
0.00022198184
0.00013516598
0.0010209854
0.00022751096
0.00019197103
0.0012661025
0.00020371965
0.00021660878
0.0013225789
0.00020494938
0.001214892
0.00017109628
2.6991202e-06
9.3093416e-07
8.8624083e-06
1.5576504e-05
5.1742224e-06
4.9516425e-05
4.7063535e-05
1.6038278e-05
0.00014915647
0.00010205578
4.1190813e-05
0.00034578954
0.00016864256
9.2068285e-05
0.00064870274
0.00021598676
0.00016944599
0.00098752258
0.00022424448
0.00024444421
0.0012286471
0.00020236506
0.00027936742
0.0012876729
0.00026582713
0.0011858826
0.00017050405
2.4874489e-06
1.0249333e-06
8.4724501e-06
1.4397046e-05
5.6917889e-06
4.7245215e-05
4.3658766e-05
1.7718326e-05
0.00014213279
9.5300043e-05
4.5903796e-05
0.0003293756
0.00015939376
0.00010408989
0.00061856105
0.00020766856
0.00019512237
0.00094440769
0.00021997356
0.00028659406
0.001179935
0.00020240677
0.00033250671
0.0012417355
0.00031980318
0.0011471333
0.00017275294
2.2357526e-06
1.0421733e-06
8.0058478e-06
1.2981842e-05
5.8001933e-06
4.4523979e-05
3.952979e-05
1.8199785e-05
0.00013371945
8.6966071e-05
4.7744592e-05
0.00030972804
0.00014763384
0.00011010186
0.00058244501
0.00019680191
0.00021072553
0.00089247636
0.00021404055
0.00031628113
0.0011207147
0.00020249477
0.00037356361
0.0011850691
0.00036398192
0.001098418
0.00017749899
1.9562061e-06
9.7861568e-07
7.4847943e-06
1.139101e-05
5.4936765e-06
4.1455754e-05
3.483002e-05
1.7487183e-05
0.00012417483
7.7290044e-05
4.6730528e-05
0.00028734725
0.00013353408
0.00010997005
0.00054107929
0.00018295002
0.00021563315
0.00083247642
0.0002056318
0.00033199756
0.0010513697
0.00020172767
0.00040037371
0.0011175874
0.00039586469
0.0010391003
0.00018371185
1.6713552e-06
8.2631896e-07
6.9599954e-06
9.743629e-06
4.751196e-06
3.8236803e-05
2.9871866e-05
1.5576844e-05
0.00011391354
6.6772889e-05
4.297664e-05
0.00026290341
0.00011753115
0.00010403083
0.00049523029
0.0001663442
0.00020978992
0.00076496134
0.00019488953
0.00033264407
0.00097191243
0.00020013528
0.00041111038
0.0010386607
0.000413519
0.00096801238
0.00019103794
1.4247995e-06
5.4585799e-07
6.4067936e-06
8.2523736e-06
3.4532516e-06
3.4814961e-05
2.5268716e-05
1.2265803e-05
0.00010294167
5.6844919e-05
3.6199682e-05
0.00023663073
0.00010206001
9.2127581e-05
0.0004456349
0.00014977793
0.00019329441
0.00069090099
0.00018424439
0.00031790815
0.00088300616
0.00019980503
0.00040458723
0.00094821757
0.00041555954
0.00088435819
0.00020118268
1.1477386e-06
1.8490195e-07
5.7975233e-06
6.6438555e-06
1.7773311e-06
3.1102571e-05
2.0442624e-05
7.9000975e-06
9.11265e-05
4.6584439e-05
2.6950927e-05
0.00020838993
8.5878843e-05
7.5119025e-05
0.00039212447
0.00013187649
0.00016723991
0.00060992142
0.00017244629
0.00028810424
0.00078377341
0.00020001841
0.0003795319
0.0008447806
0.00039950776
0.00078635702
0.00021477043
8.875507e-07
-2.3044945e-07
5.1684009e-06
5.1544213e-06
-1.7006958e-07
2.7242003e-05
1.5929944e-05
2.8192285e-06
7.8767679e-05
3.6764709e-05
1.6115757e-05
0.00017859797
6.9903775e-05
5.4653377e-05
0.00033493997
0.00011334838
0.00013396872
0.00052168233
0.00015947644
0.00024520674
0.00067280626
0.00019965574
0.0003365334
0.00072603404
0.00036475042
0.0006714911
0.00022939204
6.8682009e-07
4.4130051e-06
-6.9928443e-07
3.8178564e-06
2.283809e-05
-2.1825268e-06
1.1585425e-05
6.5088841e-05
-2.207361e-06
2.7022273e-05
0.00014609875
5.3141555e-06
5.3436791e-05
0.00027257958
3.3547734e-05
9.2753707e-05
0.00042408576
9.7537768e-05
0.00014262903
0.00054696844
0.00019334008
0.00019435822
0.00058806916
0.00027877949
0.00053632517
0.00031528368
0.00023696288
-2.7097199e-07
1.3492217e-07
4.7306832e-06
-1.8163093e-07
-1.3284851e-06
-1.1902155e-07
2.4235423e-05
-2.2080347e-07
-3.1471541e-06
-2.6296413e-06
6.8308082e-05
1.2290649e-06
-4.0634815e-06
-1.20159e-05
0.00015156571
7.4652698e-06
3.9932602e-07
-3.6908753e-05
0.00028006238
2.4963143e-05
1.6409267e-05
-8.6183342e-05
0.00043305544
6.120372e-05
4.5617528e-05
-0.00015304169
0.00055716638
0.00011363545
8.2065184e-05
-0.00021310303
0.00059898823
0.00016573619
-0.00023984949
0.00054619689
0.00019535377
0.00011668902
-3.2115856e-07
1.3338963e-07
5.491093e-06
-1.4534603e-06
-3.7780211e-07
2.8633079e-05
-3.1194364e-06
-4.0160097e-06
8.1820014e-05
-3.1240786e-06
-1.6714967e-05
0.00018330168
3.4475764e-06
-4.9010079e-05
0.00034046967
2.1970228e-05
-0.00011043534
0.0005274117
5.1866633e-05
-0.00018939498
0.00067926316
8.5089812e-05
-0.00025396561
0.0007336734
-0.00027718235
0.00067903232
0.00011488141
-2.8436923e-07
1.1618833e-07
6.0990939e-06
-1.2443848e-06
-6.7458274e-07
3.235935e-05
-2.3360892e-06
-5.4475441e-06
9.3649709e-05
-8.1069881e-07
-2.1367691e-05
0.00021151724
8.6032267e-06
-6.0526938e-05
0.00039422744
2.980345e-05
-0.0001320133
0.00061029923
5.9322846e-05
-0.00021916345
0.00078402255
8.8198099e-05
-0.00028467647
0.00084661623
-0.0003023656
0.00078922658
0.00011051189
-1.8057625e-07
3.8543588e-08
6.6650097e-06
-6.9952068e-07
-1.1694174e-06
3.5828725e-05
-6.7838844e-07
-7.1598386e-06
0.00010463283
3.1081256e-06
-2.6042896e-05
0.00023751942
1.6118777e-05
-7.1052379e-05
0.00044314967
3.9963036e-05
-0.00014918995
0.00068423335
6.8430819e-05
-0.00023978096
0.0008751559
9.2216524e-05