/*--------------------------------*- C++ -*----------------------------------*\
| =========                 |                                                 |
| \\      /  F ield         | OpenFOAM: The Open Source CFD Toolbox           |
|  \\    /   O peration     | Version:  2406                                  |
|   \\  /    A nd           | Website:  www.openfoam.com                      |
|    \\/     M anipulation  |                                                 |
\*---------------------------------------------------------------------------*/
FoamFile
{
    version     2.0;
    format      ascii;
    arch        "LSB;label=32;scalar=64";
    class       volVectorField;
    location    "9.25";
    object      U;
}
// * * * * * * * * * * * * * * * * * * * * * * * * * * * * * * * * * * * * * //

dimensions      [0 1 -1 0 0 0 0];

internalField   nonuniform List<vector> 
34560
(
(0.057122629 0.00013121581 -0.013509932)
(0.18507619 0.0014240736 -0.044076076)
(0.34468152 0.0026539012 -0.080237972)
(0.53008493 0.0044011019 -0.11941321)
(0.72819121 0.0057685058 -0.15530912)
(0.9184841 0.0061015975 -0.18118969)
(1.0776247 0.0054985271 -0.19202393)
(1.1939647 0.0040892456 -0.18859009)
(1.2720174 0.0034634986 -0.17608233)
(0.069953469 -0.00020785548 -0.015956626)
(0.22307476 0.00080086875 -0.051682004)
(0.40870556 0.0018670369 -0.092777407)
(0.6166547 0.0037287412 -0.13561315)
(0.82930196 0.0053608174 -0.17248378)
(1.0233713 0.0060182732 -0.19586418)
(1.1761246 0.0058616513 -0.20148087)
(1.2796185 0.0053519833 -0.19176162)
(1.3455225 0.0052337326 -0.17231271)
(0.08312069 -0.00022932138 -0.017864147)
(0.26122672 0.00098444957 -0.057747566)
(0.47148445 0.002252494 -0.10271657)
(0.69912168 0.004276997 -0.14831513)
(0.92252724 0.005882608 -0.18586987)
(1.1171832 0.0062881152 -0.20725443)
(1.2624039 0.0057655987 -0.20918774)
(1.3538675 0.0052584772 -0.1951298)
(1.4094445 0.0048460845 -0.17271589)
(0.096735663 -0.00035821416 -0.019696019)
(0.29983915 0.00088185784 -0.063493763)
(0.53364056 0.0022847844 -0.11190772)
(0.77877482 0.0044827007 -0.15969198)
(1.0103525 0.006130837 -0.19744137)
(1.203703 0.0064222393 -0.21668839)
(1.3408563 0.0057173308 -0.21534685)
(1.4214692 0.0052766055 -0.19813441)
(1.4675917 0.0049455653 -0.17378442)
(0.11008962 -0.0003677074 -0.021269628)
(0.33721497 0.0010162974 -0.068498303)
(0.59300802 0.0026035082 -0.11984263)
(0.8536926 0.0049315285 -0.16936912)
(1.0917044 0.0065614497 -0.2071328)
(1.2828946 0.0067616284 -0.22439353)
(1.4120376 0.0060008721 -0.2202073)
(1.4830167 0.0056304655 -0.20065021)
(1.5204669 0.0053836102 -0.17495356)
(0.12289894 -0.00036094979 -0.022589608)
(0.37262132 0.001071854 -0.072757485)
(0.6485723 0.0027569458 -0.12657226)
(0.92292231 0.0051246489 -0.17750012)
(1.1659369 0.0067020989 -0.21521218)
(1.3545807 0.0068595168 -0.23071157)
(1.4762272 0.0061338789 -0.22412969)
(1.538604 0.0058326655 -0.20274663)
(1.568169 0.0056916741 -0.17598296)
(0.13490429 -0.00034253313 -0.023729549)
(0.40538729 0.001065338 -0.076432975)
(0.69938078 0.0027621868 -0.13231654)
(0.98547228 0.0050728693 -0.18433883)
(1.2323455 0.0065475227 -0.22190288)
(1.4183599 0.0066708849 -0.23580549)
(1.5331866 0.0060181164 -0.22715194)
(1.5879595 0.0057663048 -0.20430296)
(1.610462 0.0057349909 -0.17665074)
(0.14548843 -0.00031510614 -0.024667607)
(0.43406546 0.00097886569 -0.079487467)
(0.74355946 0.0025737643 -0.13706847)
(1.0395203 0.0046974685 -0.18994975)
(1.2895338 0.0060029588 -0.22732633)
(1.4732863 0.0060910798 -0.23981878)
(1.5823224 0.0055289385 -0.22939251)
(1.6305176 0.0053363908 -0.20530647)
(1.6468436 0.0054169356 -0.17687557)
(0.15429043 -0.00026154034 -0.025401512)
(0.45779563 0.0008521802 -0.081910645)
(0.77996523 0.002238098 -0.14083387)
(1.0839071 0.0040427767 -0.19437489)
(1.3365011 0.0051088914 -0.2315507)
(1.518518 0.0051512957 -0.24283562)
(1.6229226 0.0046832572 -0.23092145)
(1.6656094 0.0045512024 -0.20578026)
(1.6767385 0.0047107636 -0.176687)
(0.16110353 -0.00019418726 -0.025937497)
(0.47609932 0.00065244718 -0.083706462)
(0.80795785 0.0017124821 -0.14362867)
(1.1179414 0.0030732435 -0.19765072)
(1.3725367 0.0038511457 -0.23462838)
(1.5533024 0.0038628576 -0.2449329)
(1.6542215 0.0035143574 -0.23183114)
(1.6925606 0.0034463303 -0.2058333)
(1.6996183 0.0036353804 -0.17623496)
(0.16596459 -0.00014787494 -0.026325213)
(0.48897658 0.00033741609 -0.084969889)
(0.82740919 0.00098084433 -0.14555279)
(1.1413302 0.0018260574 -0.19985886)
(1.3971554 0.0023144121 -0.23662605)
(1.5769814 0.0023350326 -0.24620013)
(1.67549 0.0021390776 -0.23225148)
(1.710783 0.0021265566 -0.20565005)
(1.7150311 0.0022851111 -0.17573047)
(0.16823571 -3.4264573e-05 -0.026500171)
(0.49509052 0.00017721832 -0.085569783)
(0.83677365 0.00043250064 -0.14647692)
(1.1527342 0.00074080247 -0.20092594)
(1.4092961 0.00090111391 -0.23759006)
(1.5887709 0.00088399508 -0.24679326)
(1.6861468 0.00078857669 -0.23240884)
(1.7199193 0.00076138281 -0.20549521)
(1.7227543 0.00080077041 -0.17542002)
(0.16823571 3.4278172e-05 -0.026500166)
(0.49509053 -0.00017720892 -0.085569768)
(0.83677366 -0.00043251461 -0.14647691)
(1.1527342 -0.00074084233 -0.20092591)
(1.4092961 -0.00090120944 -0.23759002)
(1.5887709 -0.0008841953 -0.24679321)
(1.6861468 -0.00078888716 -0.23240881)
(1.7199193 -0.00076170456 -0.20549523)
(1.7227543 -0.00080102833 -0.17542007)
(0.16596459 0.00014788151 -0.026325224)
(0.48897657 -0.0003374146 -0.084969878)
(0.82740917 -0.00098085607 -0.14555279)
(1.1413301 -0.0018260982 -0.1998588)
(1.3971554 -0.0023145285 -0.23662597)
(1.5769814 -0.0023352483 -0.24620002)
(1.6754899 -0.0021393818 -0.23225143)
(1.7107829 -0.0021268855 -0.20565008)
(1.7150309 -0.0022854321 -0.17573061)
(0.16110353 0.00019419779 -0.025937577)
(0.4760993 -0.00065241137 -0.083706563)
(0.80795783 -0.0017124421 -0.14362877)
(1.1179414 -0.0030732586 -0.1976507)
(1.3725367 -0.003851279 -0.23462831)
(1.5533023 -0.0038630793 -0.24493279)
(1.6542214 -0.0035146423 -0.23183107)
(1.6925604 -0.0034466724 -0.2058333)
(1.6996182 -0.0036358099 -0.17623511)
(0.15429043 0.00026155686 -0.025401613)
(0.45779565 -0.00085213575 -0.081910796)
(0.77996528 -0.0022380498 -0.14083392)
(1.0839071 -0.0040428066 -0.1943748)
(1.336501 -0.0051090378 -0.23155062)
(1.5185178 -0.0051515053 -0.24283551)
(1.6229224 -0.0046835252 -0.23092135)
(1.6656092 -0.0045515577 -0.20578016)
(1.6767384 -0.0047112469 -0.17668703)
(0.14548843 0.00031510382 -0.024667603)
(0.43406547 -0.00097890027 -0.07948744)
(0.74355948 -0.0025737752 -0.1370683)
(1.0395203 -0.0046975086 -0.18994959)
(1.2895337 -0.0060030592 -0.22732628)
(1.4732862 -0.0060912465 -0.23981867)
(1.5823222 -0.0055292007 -0.22939235)
(1.6305175 -0.0053367325 -0.20530626)
(1.6468434 -0.0054173259 -0.17687547)
(0.13490429 0.00034254542 -0.023729449)
(0.4053873 -0.00106538 -0.076432897)
(0.6993808 -0.0027621864 -0.1323164)
(0.98547227 -0.0050728529 -0.18433875)
(1.2323455 -0.0065475348 -0.22190285)
(1.4183599 -0.006670977 -0.23580533)
(1.5331865 -0.0060183429 -0.2271517)
(1.5879593 -0.0057665696 -0.20430271)
(1.6104618 -0.0057352426 -0.17665065)
(0.12289894 0.00036097281 -0.022589622)
(0.37262132 -0.0010718317 -0.072757521)
(0.64857228 -0.0027569378 -0.12657226)
(0.92292227 -0.0051246171 -0.17750007)
(1.1659369 -0.0067021075 -0.21521208)
(1.3545806 -0.006859534 -0.23071132)
(1.4762271 -0.0061340009 -0.22412942)
(1.5386038 -0.0058328204 -0.2027464)
(1.5681689 -0.0056919246 -0.17598281)
(0.11008962 0.00036772999 -0.021269594)
(0.33721499 -0.0010162898 -0.068498235)
(0.59300804 -0.0026035304 -0.11984254)
(0.85369261 -0.0049315217 -0.16936901)
(1.0917044 -0.0065614533 -0.20713269)
(1.2828946 -0.0067615811 -0.22439333)
(1.4120375 -0.0060008514 -0.22020705)
(1.4830166 -0.0056305865 -0.20064989)
(1.5204668 -0.0053839563 -0.17495315)
(0.096735669 0.00035821683 -0.019696015)
(0.29983917 -0.00088193822 -0.063493891)
(0.53364058 -0.0022848814 -0.11190789)
(0.77877483 -0.0044828041 -0.15969213)
(1.0103525 -0.0061308873 -0.1974414)
(1.203703 -0.0064222065 -0.21668825)
(1.3408563 -0.0057171184 -0.21534657)
(1.4214692 -0.0052767477 -0.19813379)
(1.4675916 -0.0049458607 -0.1737841)
(0.083120697 0.00022932548 -0.017864178)
(0.26122674 -0.00098449449 -0.057747708)
(0.4714845 -0.0022525287 -0.10271669)
(0.69912175 -0.0042770651 -0.14831519)
(0.92252731 -0.0058826559 -0.18586982)
(1.1171832 -0.0062881509 -0.20725439)
(1.262404 -0.0057654336 -0.20918728)
(1.3538674 -0.0052582642 -0.19512909)
(1.4094444 -0.0048459101 -0.17271615)
(0.06995348 0.00020785078 -0.015956628)
(0.22307479 -0.00080092148 -0.051682027)
(0.40870561 -0.0018671038 -0.0927774)
(0.61665478 -0.0037288465 -0.13561317)
(0.82930207 -0.005360917 -0.17248376)
(1.0233715 -0.0060183502 -0.19586401)
(1.1761247 -0.0058617199 -0.20148041)
(1.2796184 -0.0053513541 -0.1917616)
(1.3455224 -0.0052331507 -0.17231313)
(0.057122649 -0.00013122088 -0.013509919)
(0.18507625 -0.0014241248 -0.044076053)
(0.34468162 -0.0026539713 -0.080237936)
(0.53008509 -0.0044011781 -0.11941318)
(0.72819142 -0.0057685414 -0.15530897)
(0.91848433 -0.006101599 -0.18118944)
(1.0776249 -0.0054985484 -0.19202414)
(1.1939646 -0.0040888934 -0.18859027)
(1.2720173 -0.0034632099 -0.17608212)
(0.032488442 0.0016146325 0.0012304901)
(0.11909387 0.0039495833 0.0020745226)
(0.24861646 0.0048691802 -0.0011390817)
(0.42721487 0.0024552071 -0.011239641)
(0.64673411 -0.0048062951 -0.029404058)
(0.88119343 -0.016568701 -0.05242357)
(1.0955233 -0.030389366 -0.073589123)
(1.262639 -0.042724836 -0.086926641)
(1.3684957 -0.050954837 -0.091217437)
(0.037419698 0.001548626 0.00092486022)
(0.13749353 0.0033335021 0.00078041236)
(0.2867503 0.0030928474 -0.0044899444)
(0.48956556 -0.0011862899 -0.017869892)
(0.73088907 -0.010574137 -0.039664736)
(0.9754511 -0.023778116 -0.064798411)
(1.1847254 -0.037616373 -0.084998673)
(1.3379759 -0.048724794 -0.095308072)
(1.4309259 -0.055014649 -0.095567276)
(0.042093155 0.0017940535 0.00083111061)
(0.15500618 0.0036636703 0.00013459003)
(0.32305394 0.0029951716 -0.0066770091)
(0.54845676 -0.0022887388 -0.022566027)
(0.80874823 -0.012729287 -0.04678177)
(1.0594831 -0.0261842 -0.072779274)
(1.2605389 -0.039092192 -0.091357801)
(1.3995921 -0.048813565 -0.099172993)
(1.4816779 -0.053807593 -0.096833936)
(0.04701143 0.0019065605 0.00061685487)
(0.17302236 0.0037400457 -0.00078146776)
(0.35969499 0.0027380558 -0.0091765862)
(0.60676937 -0.0031439923 -0.02735041)
(0.88415241 -0.013954366 -0.053336361)
(1.1389889 -0.026961709 -0.079451151)
(1.3310505 -0.038528274 -0.096140963)
(1.4561373 -0.046761612 -0.10171947)
(1.5277682 -0.050787358 -0.097514854)
(0.051784788 0.0019594746 0.00038129983)
(0.19046393 0.003746761 -0.0016880367)
(0.39502833 0.002553468 -0.011504517)
(0.66264679 -0.0035567846 -0.031618796)
(0.95561885 -0.014210504 -0.058817423)
(1.213745 -0.026339236 -0.084819485)
(1.3973305 -0.036442211 -0.099807357)
(1.5092907 -0.043200361 -0.10356434)
(1.5707762 -0.046351086 -0.098230486)
(0.056396069 0.0019433927 0.00011951592)
(0.20717622 0.0036658053 -0.0025979255)
(0.42861484 0.0024072456 -0.013654231)
(0.71528717 -0.0035859574 -0.03532933)
(1.0222552 -0.013603474 -0.06321591)
(1.2830131 -0.024510685 -0.088825122)
(1.4590574 -0.033083533 -0.10249977)
(1.5593184 -0.03849597 -0.10492279)
(1.6113513 -0.040926293 -0.099141)
(0.060915561 0.0018266691 -0.00015204732)
(0.2232211 0.0034011365 -0.0034847852)
(0.46031094 0.0021521651 -0.015620537)
(0.76418561 -0.0034336282 -0.038528973)
(1.0833901 -0.012436249 -0.066796926)
(1.3461218 -0.021884553 -0.091879906)
(1.5156341 -0.0289281 -0.1045463)
(1.6058232 -0.033172939 -0.10600186)
(1.6494856 -0.035075406 -0.10018778)
(0.064974725 0.0016264087 -0.00040898519)
(0.23757351 0.0029991651 -0.0042833545)
(0.48853958 0.0018455313 -0.0173034)
(0.80750566 -0.003084783 -0.041137607)
(1.1372685 -0.010800699 -0.06957274)
(1.4016418 -0.018670613 -0.094076732)
(1.5658376 -0.02427622 -0.10598196)
(1.6478481 -0.027571903 -0.10680117)
(1.6844744 -0.029104066 -0.10102997)
(0.068391569 0.0013474748 -0.00063690813)
(0.24965834 0.0024648876 -0.0049641191)
(0.5123065 0.0014776799 -0.018671185)
(0.84394999 -0.0025920143 -0.043157)
(1.1824962 -0.0088178336 -0.071597422)
(1.4482888 -0.0150408 -0.095539105)
(1.6082713 -0.019352001 -0.10665445)
(1.6841013 -0.021852273 -0.10716091)
(1.7150399 -0.023028774 -0.10118126)
(0.071078237 0.0010107079 -0.00082045959)
(0.2591821 0.0018390202 -0.0054950784)
(0.53104414 0.0010800685 -0.01969308)
(0.87264323 -0.001963994 -0.044589977)
(1.217973 -0.0065418892 -0.072931539)
(1.4848416 -0.011058159 -0.096347052)
(1.6416617 -0.014157084 -0.10680147)
(1.7130155 -0.01594193 -0.10694023)
(1.739539 -0.016740801 -0.10034923)
(0.073233308 0.00062866899 -0.00095124561)
(0.2664885 0.0011409144 -0.005866504)
(0.54491716 0.00066100934 -0.020384696)
(0.89327393 -0.0012230878 -0.045504134)
(1.2428949 -0.0040224872 -0.073707644)
(1.5101842 -0.006766711 -0.09668405)
(1.6647052 -0.0086516082 -0.10661409)
(1.7330369 -0.0097283404 -0.10630021)
(1.7565523 -0.010165884 -0.099307575)
(0.074119127 0.00019554182 -0.0010149064)
(0.26970534 0.00033597276 -0.0060420478)
(0.55133736 0.0001513232 -0.020700335)
(0.90318561 -0.00049608628 -0.045908892)
(1.2551645 -0.0014369589 -0.074024108)
(1.5228423 -0.0023447598 -0.096761992)
(1.6763146 -0.0029566463 -0.10640949)
(1.7431842 -0.0032933061 -0.10580928)
(1.7652001 -0.0034130904 -0.098645594)
(0.074119125 -0.00019551493 -0.001014907)
(0.26970533 -0.0003359262 -0.0060420588)
(0.55133735 -0.00015128096 -0.020700349)
(0.9031856 0.0004960768 -0.045908895)
(1.2551645 0.0014368519 -0.074024099)
(1.5228423 0.0023445257 -0.096761971)
(1.6763145 0.0029563192 -0.10640947)
(1.7431841 0.0032929467 -0.10580927)
(1.7651999 0.0034127683 -0.098645596)
(0.073233304 -0.00062863814 -0.0009512512)
(0.26648848 -0.0011408607 -0.005866529)
(0.54491713 -0.00066096522 -0.020384726)
(0.89327387 0.0012230659 -0.045504143)
(1.2428948 0.0040223621 -0.07370763)
(1.5101841 0.0067664687 -0.096684002)
(1.664705 0.0086512888 -0.10661404)
(1.7330367 0.0097279849 -0.10630017)
(1.756552 0.010165547 -0.099307577)
(0.071078229 -0.0010106768 -0.0008204849)
(0.25918207 -0.001838959 -0.0054951423)
(0.53104409 -0.0010800072 -0.019693142)
(0.87264313 0.0019639844 -0.044590009)
(1.2179729 0.0065417609 -0.072931544)
(1.4848414 0.011057918 -0.096346998)
(1.6416614 0.014156777 -0.10680139)
(1.7130152 0.015941576 -0.10694014)
(1.7395387 0.016740425 -0.10034921)
(0.068391564 -0.001347446 -0.0006369533)
(0.24965832 -0.0024648297 -0.0049642254)
(0.51230647 -0.0014776062 -0.018671252)
(0.84394992 0.00259203 -0.043157028)
(1.1824961 0.0088177267 -0.071597428)
(1.4482886 0.015040584 -0.095539043)
(1.608271 0.019351713 -0.10665434)
(1.684101 0.021851928 -0.10716074)
(1.7150396 0.02302837 -0.10118118)
(0.064974716 -0.0016263826 -0.00040900838)
(0.23757348 -0.0029991273 -0.0042834227)
(0.48853954 -0.0018454644 -0.017303405)
(0.80750558 0.0030848179 -0.041137612)
(1.1372684 0.010800639 -0.069572735)
(1.4016416 0.018670452 -0.094076655)
(1.5658373 0.024275964 -0.1059818)
(1.6478478 0.0275716 -0.1068009)
(1.684474 0.029103711 -0.10102982)
(0.060915555 -0.001826636 -0.00015203567)
(0.22322108 -0.003401092 -0.0034848132)
(0.46031091 -0.002152078 -0.015620539)
(0.76418553 0.0034337028 -0.038529005)
(1.08339 0.012436264 -0.066796926)
(1.3461216 0.021884473 -0.091879797)
(1.5156338 0.028927904 -0.10454607)
(1.6058229 0.033172712 -0.10600153)
(1.6494853 0.035075142 -0.10018756)
(0.056396069 -0.0019433512 0.0001195071)
(0.20717621 -0.0036657408 -0.0025979928)
(0.42861482 -0.0024071466 -0.013654282)
(0.71528711 0.0035860626 -0.035329368)
(1.0222551 0.01360354 -0.063215887)
(1.283013 0.024510685 -0.088824949)
(1.4590572 0.033083436 -0.10249948)
(1.5593182 0.038495831 -0.10492241)
(1.611351 0.040926082 -0.09914068)
(0.05178479 -0.0019594249 0.00038128164)
(0.19046394 -0.0037466873 -0.0016881234)
(0.39502833 -0.0025533722 -0.011504605)
(0.66264677 0.0035568836 -0.031618879)
(0.9556188 0.014210577 -0.058817419)
(1.213745 0.02633932 -0.084819317)
(1.3973304 0.036442228 -0.099807058)
(1.5092906 0.04320029 -0.10356389)
(1.570776 0.046350914 -0.098230041)
(0.047011445 -0.001906522 0.00061682333)
(0.1730224 -0.0037400116 -0.00078161585)
(0.35969505 -0.0027380002 -0.0091767692)
(0.60676944 0.0031440528 -0.027350579)
(0.88415248 0.013954434 -0.053336407)
(1.138989 0.026961841 -0.079451007)
(1.3310506 0.038528467 -0.09614064)
(1.4561374 0.04676169 -0.10171896)
(1.5277682 0.050787296 -0.097514465)
(0.042093172 -0.0017940256 0.00083107957)
(0.15500623 -0.0036636565 0.00013445959)
(0.32305403 -0.0029951269 -0.0066771508)
(0.54845687 0.0022887947 -0.022566144)
(0.80874834 0.012729376 -0.04678179)
(1.0594832 0.026184351 -0.072779204)
(1.2605391 0.03909254 -0.091357567)
(1.3995923 0.048813951 -0.09917252)
(1.481678 0.053807635 -0.096833513)
(0.037419726 -0.001548608 0.00092484364)
(0.13749361 -0.0033334993 0.00078034667)
(0.28675043 -0.0030928332 -0.0044900175)
(0.48956575 0.001186301 -0.017869973)
(0.73088929 0.010574169 -0.039664792)
(0.97545135 0.023778208 -0.064798443)
(1.1847256 0.03761662 -0.084998496)
(1.3379761 0.048725345 -0.095307423)
(1.4309262 0.055014934 -0.095566713)
(0.032488475 -0.0016146301 0.0012304899)
(0.11909396 -0.0039495925 0.0020745156)
(0.24861662 -0.0048692009 -0.0011390964)
(0.42721508 -0.0024552507 -0.011239663)
(0.64673435 0.0048062521 -0.02940406)
(0.88119368 0.016568747 -0.052423491)
(1.0955236 0.030389602 -0.073588921)
(1.2626392 0.042725356 -0.086925893)
(1.3684959 0.050955094 -0.091216697)
(0.023133383 0.00037389603 0.00028228193)
(0.089445605 0.00086910104 0.00040834803)
(0.19633427 0.00085270613 -0.00066869353)
(0.35531794 -0.00066139456 -0.0041580472)
(0.56742969 -0.0053266388 -0.011430247)
(0.81267627 -0.014606303 -0.022983534)
(1.0492365 -0.02781187 -0.037056721)
(1.2367379 -0.040785956 -0.048450451)
(1.3549787 -0.049886949 -0.054086843)
(0.024697548 1.4315467e-05 -6.1860729e-05)
(0.097372085 -0.00026493461 -0.00067217052)
(0.21644133 -0.0011913004 -0.0027123886)
(0.39388252 -0.0037511491 -0.0074756988)
(0.62730675 -0.0096675284 -0.016337218)
(0.88864724 -0.020260659 -0.029459197)
(1.1283507 -0.034166437 -0.044035773)
(1.306475 -0.046626094 -0.054340355)
(1.4135006 -0.054159915 -0.058005339)
(0.025715112 -0.00019789832 -0.00022684806)
(0.10345946 -0.00096780827 -0.0012344113)
(0.23297828 -0.0024913653 -0.0038803363)
(0.42657185 -0.0057204997 -0.0095086635)
(0.6783248 -0.012327303 -0.019423056)
(0.95217865 -0.023353306 -0.033398185)
(1.1919697 -0.036903155 -0.047777369)
(1.3605627 -0.048225314 -0.056736035)
(1.4587262 -0.054403858 -0.05851024)
(0.026831797 -0.00040789842 -0.0003522441)
(0.10962047 -0.0016318031 -0.0016581584)
(0.24916471 -0.0036583426 -0.004792067)
(0.45789802 -0.0073878707 -0.011140379)
(0.72635749 -0.014423588 -0.021891608)
(1.0109262 -0.025536936 -0.03641552)
(1.2495237 -0.038339808 -0.050223532)
(1.4087769 -0.048321503 -0.057613778)
(1.4986006 -0.053261703 -0.057689513)
(0.027886972 -0.00053524967 -0.00039860427)
(0.1154551 -0.0020551184 -0.001842564)
(0.26450221 -0.0044217106 -0.0052952055)
(0.487583 -0.0084781063 -0.012199077)
(0.77184281 -0.015722217 -0.023663849)
(1.0662536 -0.026667436 -0.038444603)
(1.3034003 -0.038493455 -0.051490216)
(1.4538066 -0.047058322 -0.057334184)
(1.5354605 -0.05081301 -0.055999044)
(0.028994359 -0.00059580843 -0.00039512489)
(0.12124182 -0.002266889 -0.0018679424)
(0.27935816 -0.0048066601 -0.0055169462)
(0.51602537 -0.0089957408 -0.012830637)
(0.81533588 -0.01618432 -0.02486848)
(1.1186953 -0.026596122 -0.039642593)
(1.3542841 -0.037226622 -0.051619423)
(1.4965245 -0.044365873 -0.05604134)
(1.5702571 -0.04707563 -0.053532402)
(0.030287423 -0.00061301721 -0.00037099537)
(0.12728236 -0.0023248606 -0.0018171589)
(0.29406013 -0.0048925155 -0.005574969)
(0.54340987 -0.0090164848 -0.013169785)
(0.85658425 -0.01584874 -0.025530216)
(1.1678742 -0.025345917 -0.040030952)
(1.4018506 -0.034580048 -0.050767737)
(1.5367037 -0.040316488 -0.053902909)
(1.6029262 -0.042124482 -0.050431157)
(0.031527945 -0.00058224533 -0.00033096979)
(0.13290408 -0.0022126132 -0.0017048032)
(0.30753586 -0.004646547 -0.0054836273)
(0.56836272 -0.0084822204 -0.013219575)
(0.89401117 -0.014640615 -0.025669614)
(1.212386 -0.022878463 -0.039733152)
(1.4449162 -0.030556667 -0.049175413)
(1.5733376 -0.034968339 -0.051173503)
(1.6327251 -0.036037006 -0.047042321)
(0.032616439 -0.00050777003 -0.00028447687)
(0.13777599 -0.0019364327 -0.0015606109)
(0.31916797 -0.0040679425 -0.005296242)
(0.5899679 -0.0073806427 -0.01306513)
(0.92630565 -0.012554836 -0.025432136)
(1.2507697 -0.019240556 -0.038963352)
(1.482181 -0.025221519 -0.047370702)
(1.6051373 -0.028434574 -0.048310951)
(1.6586472 -0.02899007 -0.043948303)
(0.033512291 -0.00039277777 -0.00023925113)
(0.14173861 -0.0015056828 -0.0014131912)
(0.32856772 -0.0031708717 -0.0050729367)
(0.60739155 -0.0057352021 -0.012804308)
(0.95225273 -0.0096528739 -0.025011077)
(1.2815079 -0.01456784 -0.038032945)
(1.5120043 -0.018797006 -0.045597371)
(1.6306881 -0.020946509 -0.045866685)
(1.6795868 -0.021205702 -0.041761045)
(0.034373322 -0.00024965309 -0.00020546926)
(0.14510684 -0.00095867686 -0.0013004413)
(0.33595937 -0.0020218279 -0.0048930447)
(0.62040182 -0.0036477501 -0.012569864)
(0.97097987 -0.0060896908 -0.024615711)
(1.3032329 -0.0090840756 -0.037236372)
(1.532861 -0.011584834 -0.044222159)
(1.6485645 -0.012812653 -0.044209729)
(1.6942534 -0.012931502 -0.040277778)
(0.034655843 -8.852988e-05 -0.00018751685)
(0.14642513 -0.00033693972 -0.0012385621)
(0.339176 -0.00070336538 -0.0047872036)
(0.62648181 -0.0012579949 -0.012421429)
(0.98010881 -0.0020855257 -0.024370245)
(1.314063 -0.0030910549 -0.036779435)
(1.54338 -0.0039181273 -0.04347672)
(1.6576638 -0.0043159302 -0.043363666)
(1.7017415 -0.0043482093 -0.039498105)
(0.034655841 8.8558906e-05 -0.00018751907)
(0.14642512 0.00033699213 -0.0012385737)
(0.33917599 0.00070341517 -0.0047872159)
(0.62648179 0.0012579865 -0.012421437)
(0.98010878 0.002085401 -0.024370243)
(1.3140629 0.0030908024 -0.036779419)
(1.54338 0.003917786 -0.043476692)
(1.6576637 0.0043155613 -0.043363627)
(1.7017414 0.0043478771 -0.03949807)
(0.034373316 0.00024968407 -0.00020547403)
(0.14510682 0.00095873398 -0.0013004665)
(0.33595934 0.0020218837 -0.0048930706)
(0.62040176 0.0036477458 -0.012569881)
(0.97097977 0.0060895687 -0.024615703)
(1.3032328 0.0090838265 -0.037236324)
(1.5328608 0.011584499 -0.044222074)
(1.6485642 0.01281229 -0.044209608)
(1.6942531 0.012931175 -0.040277667)
(0.033512283 0.00039281054 -0.00023925844)
(0.14173859 0.0015057452 -0.0014132367)
(0.32856768 0.0031709408 -0.005072977)
(0.60739146 0.0057352153 -0.012804342)
(0.95225258 0.0096527705 -0.025011071)
(1.2815077 0.014567611 -0.038032871)
(1.512004 0.018796689 -0.045597227)
(1.6306877 0.020946163 -0.045866474)
(1.6795865 0.021205384 -0.041760848)
(0.032616432 0.00050780513 -0.00028448798)
(0.13777597 0.0019364974 -0.0015606809)
(0.31916793 0.0040680282 -0.0052963004)
(0.58996782 0.0073806881 -0.013065185)
(0.92630551 0.012554773 -0.02543213)
(1.2507695 0.019240369 -0.038963248)
(1.4821806 0.025221241 -0.047370492)
(1.6051369 0.028434265 -0.048310633)
(1.6586468 0.028989776 -0.043948002)
(0.031527938 0.00058228201 -0.00033098329)
(0.13290406 0.0022126785 -0.0017048835)
(0.30753583 0.0046466485 -0.0054837028)
(0.56836265 0.0084823015 -0.013219646)
(0.89401105 0.014640606 -0.025669603)
(1.2123858 0.022878341 -0.039733018)
(1.4449158 0.030556454 -0.049175139)
(1.5733372 0.034968101 -0.051173076)
(1.6327246 0.036036768 -0.047041915)
(0.030287418 0.00061305949 -0.00037101592)
(0.12728234 0.0023249388 -0.0018172496)
(0.29406011 0.004892641 -0.0055750669)
(0.54340981 0.0090166039 -0.013169871)
(0.85658415 0.015848791 -0.025530206)
(1.167874 0.025345869 -0.040030799)
(1.4018503 0.03457992 -0.050767414)
(1.5367033 0.04031635 -0.053902395)
(1.6029257 0.042124329 -0.050430667)
(0.028994358 0.00059585978 -0.00039514434)
(0.12124182 0.0022669825 -0.001868033)
(0.27935815 0.0048068066 -0.0055170516)
(0.51602534 0.0089958923 -0.012830735)
(0.81533581 0.016184421 -0.024868484)
(1.1186952 0.026596145 -0.039642434)
(1.3542839 0.037226581 -0.051619076)
(1.4965241 0.044365839 -0.056040766)
(1.5702568 0.047075553 -0.053531861)
(0.027886974 0.00053531161 -0.00039863696)
(0.11545511 0.0020552253 -0.0018426917)
(0.26450223 0.004421877 -0.0052953587)
(0.48758301 0.0084782844 -0.012199228)
(0.7718428 0.015722355 -0.023663889)
(1.0662536 0.026667521 -0.038444458)
(1.3034002 0.038493488 -0.051489868)
(1.4538064 0.047058349 -0.057333557)
(1.5354603 0.050812978 -0.055998461)
(0.026831802 0.000407964 -0.00035228293)
(0.10962049 0.001631913 -0.0016582992)
(0.24916474 0.0036585129 -0.0047922417)
(0.45789806 0.0073880567 -0.011140553)
(0.72635752 0.014423747 -0.021891672)
(1.0109262 0.025537069 -0.036415402)
(1.2495237 0.038339906 -0.050223169)
(1.4087768 0.048321544 -0.057613077)
(1.4986005 0.053261692 -0.057688878)
(0.02571512 0.00019795114 -0.0002268831)
(0.10345948 0.000967889 -0.0012345393)
(0.23297832 0.0024914953 -0.0038805027)
(0.4265719 0.0057206417 -0.0095088405)
(0.67832484 0.012327434 -0.019423143)
(0.95217868 0.023353453 -0.033398086)
(1.1919698 0.036903336 -0.047776964)
(1.3605627 0.048225434 -0.056735258)
(1.4587262 0.054403844 -0.058509509)
(0.02469756 -1.4282834e-05 -6.188644e-05)
(0.09737212 0.00026497512 -0.00067225922)
(0.21644139 0.0011913597 -0.0027125026)
(0.39388259 0.0037511932 -0.0074758115)
(0.62730682 0.0096675409 -0.016337254)
(0.88864731 0.020260689 -0.029459058)
(1.1283508 0.034166583 -0.044035287)
(1.3064751 0.046626403 -0.054339475)
(1.4135007 0.05416014 -0.058004651)
(0.023133402 -0.0003738901 0.00028227732)
(0.089445658 -0.0008690961 0.00040833364)
(0.19633435 -0.00085270695 -0.00066871104)
(0.35531804 0.00066136835 -0.0041580404)
(0.56742977 0.0053265782 -0.011430163)
(0.81267633 0.014606264 -0.022983286)
(1.0492366 0.027811932 -0.037056215)
(1.2367381 0.040786224 -0.048449522)
(1.3549789 0.049887188 -0.054086385)
(0.027934218 0.00011398055 0.00012433657)
(0.10412693 2.3100777e-05 0.00016012362)
(0.22134525 -0.00078723736 -0.0001943743)
(0.38855233 -0.0029597378 -0.0013877794)
(0.60429501 -0.0072638815 -0.0041795772)
(0.84909917 -0.014160482 -0.0093300877)
(1.0850593 -0.022824242 -0.015921835)
(1.2746222 -0.031589154 -0.022341334)
(1.3941144 -0.038585941 -0.026860881)
(0.029720182 6.202001e-05 6.9041266e-05)
(0.11233819 -0.00023221457 -3.1913236e-05)
(0.24097248 -0.0014493611 -0.00062219414)
(0.42443572 -0.0043590957 -0.0022599823)
(0.65790043 -0.0098260692 -0.0058477432)
(0.91528357 -0.018168359 -0.012120877)
(1.152285 -0.02794397 -0.019691841)
(1.331945 -0.036770795 -0.026271969)
(1.4409139 -0.0428542 -0.030266384)
(0.030878931 8.2613053e-05 7.2576533e-05)
(0.11839173 -0.00027276196 -5.441508e-05)
(0.25632337 -0.0017330791 -0.00076203403)
(0.45323898 -0.0051611552 -0.0026988188)
(0.70110324 -0.011429233 -0.0068750306)
(0.96762039 -0.020655333 -0.013999152)
(1.2031794 -0.030846267 -0.022197607)
(1.3730457 -0.039244493 -0.028763079)
(1.4737391 -0.044414001 -0.032122569)
(0.032078889 5.2239721e-05 3.8077481e-05)
(0.12429195 -0.00043086195 -0.00017247402)
(0.27084377 -0.0021465071 -0.0010373612)
(0.47991937 -0.0060148824 -0.0032778799)
(0.74045518 -0.012888125 -0.0080167838)
(1.0144784 -0.022605715 -0.015768088)
(1.2480735 -0.032732852 -0.02422997)
(1.409041 -0.04045181 -0.030519426)
(1.5022209 -0.044698725 -0.033102589)
(0.033145926 -1.1881937e-05 -8.3522074e-06)
(0.129638 -0.00066743015 -0.00031576677)
(0.28411099 -0.0026457948 -0.0013325572)
(0.50442532 -0.006897786 -0.0038420361)
(0.77680739 -0.014241058 -0.0091075803)
(1.0577794 -0.024031731 -0.017076893)
(1.2897699 -0.033714625 -0.025468945)
(1.4428457 -0.040547536 -0.031218609)
(1.5287608 -0.04376413 -0.032884404)
(0.034207205 -0.00012133228 -6.2434302e-05)
(0.13476218 -0.0010063634 -0.0004618368)
(0.29660915 -0.0032505771 -0.0015785869)
(0.52735123 -0.0077826317 -0.0042441385)
(0.81073725 -0.015192367 -0.0095760734)
(1.0983201 -0.024643767 -0.017429366)
(1.3290907 -0.033533462 -0.025414282)
(1.4750967 -0.039271307 -0.030382435)
(1.5539058 -0.041489762 -0.031206402)
(0.035404775 -0.00024962885 -0.00010233144)
(0.14000636 -0.0013686207 -0.00054493284)
(0.30878071 -0.0038133482 -0.0016525288)
(0.54911021 -0.0084156759 -0.0042469562)
(0.84230552 -0.015543443 -0.0093322809)
(1.1359439 -0.024271209 -0.01679775)
(1.3657532 -0.032066822 -0.024124156)
(1.5055002 -0.036632607 -0.028283414)
(1.5775112 -0.037930566 -0.028440205)
(0.036503949 -0.00035099623 -0.00011276158)
(0.14473238 -0.0016225008 -0.00052730183)
(0.31964954 -0.0041222588 -0.0015175759)
(0.56846703 -0.0085035697 -0.0038247097)
(0.87041045 -0.015003289 -0.0084727443)
(1.1696134 -0.022660154 -0.015368034)
(1.3988245 -0.029145653 -0.021925697)
(1.533212 -0.032531265 -0.025334149)
(1.5989882 -0.033064579 -0.025083715)
(0.037416716 -0.00038819451 -9.3556635e-05)
(0.14865628 -0.001651088 -0.00041248916)
(0.32869539 -0.0039676585 -0.0011806992)
(0.58459216 -0.0078345929 -0.0030956163)
(0.89411897 -0.013363382 -0.0072093405)
(1.1982654 -0.019646467 -0.013448471)
(1.4271923 -0.024685957 -0.019270401)
(1.5571639 -0.026990932 -0.022085045)
(1.6175262 -0.027016367 -0.021744206)
(0.0381341 -0.00034944092 -5.6838813e-05)
(0.1517383 -0.0014238582 -0.00025004417)
(0.3357977 -0.0033074695 -0.00076831543)
(0.59725727 -0.006350153 -0.0022759494)
(0.91281221 -0.010581909 -0.0058549302)
(1.220933 -0.015246845 -0.011472288)
(1.4497014 -0.018797646 -0.016666397)
(1.5762284 -0.020211935 -0.019116689)
(1.6322498 -0.020006833 -0.018956386)
(0.038849033 -0.00024342327 -1.9817551e-05)
(0.15441216 -0.00096644927 -9.7851676e-05)
(0.34142367 -0.0021995004 -0.00040674649)
(0.60669429 -0.0041480857 -0.0015844024)
(0.92622858 -0.0068070357 -0.0047379096)
(1.2368583 -0.0096733264 -0.0098743491)
(1.4653334 -0.011766191 -0.014623639)
(1.5893959 -0.012507338 -0.016918167)
(1.6423906 -0.012296386 -0.016976123)
(0.039049874 -8.7361802e-05 1.8292997e-06)
(0.1553617 -0.00034309466 -1.0569103e-05)
(0.34372036 -0.00077399172 -0.00020104732)