/*--------------------------------*- C++ -*----------------------------------*\
  =========                 |
  \\      /  F ield         | OpenFOAM: The Open Source CFD Toolbox
   \\    /   O peration     | Website:  https://openfoam.org
    \\  /    A nd           | Version:  10
     \\/     M anipulation  |
\*---------------------------------------------------------------------------*/
FoamFile
{
    format      ascii;
    class       volScalarField;
    location    "7.8";
    object      T_0;
}
// * * * * * * * * * * * * * * * * * * * * * * * * * * * * * * * * * * * * * //

dimensions      [0 0 -1 0 0 0 0];

internalField   nonuniform List<scalar> 
100
(
-0.0429085
-0.127205
-0.206995
-0.279452
-0.342009
-0.39245
-0.428989
-0.45033
-0.455719
-0.444963
-0.418444
-0.377102
-0.322401
-0.256278
-0.181077
-0.0994606
-0.0143211
0.0713258
0.154446
0.232095
0.301521
0.360267
0.406249
0.43784
0.45392
0.45392
0.43784
0.406249
0.360266
0.301521
0.232094
0.154445
0.071325
-0.0143218
-0.0994613
-0.181077
-0.256279
-0.322401
-0.377102
-0.418445
-0.444963
-0.455719
-0.45033
-0.428989
-0.39245
-0.342008
-0.279451
-0.206994
-0.127204
-0.0429076
0.0429086
0.127205
0.206995
0.279452
0.342009
0.39245
0.428989
0.45033
0.455719
0.444963
0.418444
0.377102
0.3224
0.256278
0.181077
0.0994604
0.0143209
-0.071326
-0.154446
-0.232095
-0.301522
-0.360267
-0.406249
-0.43784
-0.45392
-0.45392
-0.43784
-0.406249
-0.360266
-0.301521
-0.232094
-0.154445
-0.0713248
0.0143221
0.0994616
0.181078
0.256279
0.322401
0.377103
0.418445
0.444963
0.455719
0.45033
0.428989
0.39245
0.342008
0.279451
0.206994
0.127204
0.0429077
)
;

boundaryField
{
    inlet
    {
        type            cyclic;
    }
    outlet
    {
        type            cyclic;
    }
    bottom
    {
        type            slip;
    }
    top
    {
        type            slip;
    }
    frontAndBack
    {
        type            empty;
    }
}


// ************************************************************************* //
