/*--------------------------------*- C++ -*----------------------------------*\
  =========                 |
  \\      /  F ield         | OpenFOAM: The Open Source CFD Toolbox
   \\    /   O peration     | Website:  https://openfoam.org
    \\  /    A nd           | Version:  10
     \\/     M anipulation  |
\*---------------------------------------------------------------------------*/
FoamFile
{
    format      ascii;
    class       volScalarField;
    location    "3.6";
    object      T;
}
// * * * * * * * * * * * * * * * * * * * * * * * * * * * * * * * * * * * * * //

dimensions      [0 0 -1 0 0 0 0];

internalField   nonuniform List<scalar> 
100
(
0.0560634
0.166203
0.270454
0.365125
0.446861
0.512766
0.560507
0.588391
0.595432
0.581378
0.54673
0.492713
0.421241
0.334847
0.23659
0.129953
0.0187113
-0.0931929
-0.201796
-0.30325
-0.393961
-0.470716
-0.530796
-0.572072
-0.593082
-0.593082
-0.572071
-0.530795
-0.470715
-0.39396
-0.303248
-0.201794
-0.0931914
0.0187129
0.129954
0.236592
0.334848
0.421242
0.492714
0.54673
0.581379
0.595432
0.588391
0.560507
0.512766
0.44686
0.365124
0.270453
0.166202
0.0560622
-0.0560634
-0.166203
-0.270454
-0.365125
-0.446861
-0.512767
-0.560507
-0.588392
-0.595432
-0.581379
-0.54673
-0.492713
-0.421241
-0.334847
-0.236591
-0.129953
-0.0187116
0.0931926
0.201795
0.303249
0.393961
0.470716
0.530796
0.572072
0.593082
0.593082
0.572071
0.530795
0.470715
0.39396
0.303249
0.201795
0.0931916
-0.0187126
-0.129954
-0.236592
-0.334848
-0.421242
-0.492713
-0.54673
-0.581379
-0.595432
-0.588391
-0.560507
-0.512766
-0.44686
-0.365124
-0.270453
-0.166202
-0.0560621
)
;

boundaryField
{
    inlet
    {
        type            cyclic;
    }
    outlet
    {
        type            cyclic;
    }
    bottom
    {
        type            slip;
    }
    top
    {
        type            slip;
    }
    frontAndBack
    {
        type            empty;
    }
}


// ************************************************************************* //
