/*--------------------------------*- C++ -*----------------------------------*\
  =========                 |
  \\      /  F ield         | OpenFOAM: The Open Source CFD Toolbox
   \\    /   O peration     | Website:  https://openfoam.org
    \\  /    A nd           | Version:  10
     \\/     M anipulation  |
\*---------------------------------------------------------------------------*/
FoamFile
{
    format      ascii;
    class       volScalarField;
    location    "3.6";
    object      T_0;
}
// * * * * * * * * * * * * * * * * * * * * * * * * * * * * * * * * * * * * * //

dimensions      [0 0 -1 0 0 0 0];

internalField   nonuniform List<scalar> 
100
(
0.0565482
0.16764
0.272793
0.368282
0.450725
0.517201
0.565354
0.593479
0.600581
0.586406
0.551457
0.496973
0.424884
0.337742
0.238636
0.131076
0.0188732
-0.0939987
-0.203541
-0.305872
-0.397368
-0.474787
-0.535386
-0.577019
-0.598211
-0.59821
-0.577018
-0.535385
-0.474786
-0.397367
-0.305871
-0.203539
-0.0939972
0.0188747
0.131078
0.238638
0.337744
0.424885
0.496974
0.551458
0.586407
0.600581
0.59348
0.565354
0.5172
0.450725
0.368282
0.272792
0.167639
0.056547
-0.0565482
-0.16764
-0.272793
-0.368283
-0.450725
-0.517201
-0.565354
-0.59348
-0.600581
-0.586406
-0.551458
-0.496974
-0.424884
-0.337743
-0.238637
-0.131077
-0.0188734
0.0939985
0.20354
0.305872
0.397368
0.474786
0.535386
0.577019
0.598211
0.59821
0.577018
0.535385
0.474786
0.397367
0.305871
0.20354
0.0939975
-0.0188744
-0.131078
-0.238637
-0.337743
-0.424885
-0.496974
-0.551458
-0.586406
-0.600581
-0.593479
-0.565354
-0.5172
-0.450724
-0.368281
-0.272792
-0.167639
-0.0565469
)
;

boundaryField
{
    inlet
    {
        type            cyclic;
    }
    outlet
    {
        type            cyclic;
    }
    bottom
    {
        type            slip;
    }
    top
    {
        type            slip;
    }
    frontAndBack
    {
        type            empty;
    }
}


// ************************************************************************* //
