/*--------------------------------*- C++ -*----------------------------------*\
  =========                 |
  \\      /  F ield         | OpenFOAM: The Open Source CFD Toolbox
   \\    /   O peration     | Website:  https://openfoam.org
    \\  /    A nd           | Version:  10
     \\/     M anipulation  |
\*---------------------------------------------------------------------------*/
FoamFile
{
    format      ascii;
    class       volScalarField;
    location    "44.5";
    object      ddt0(T);
}
// * * * * * * * * * * * * * * * * * * * * * * * * * * * * * * * * * * * * * //

dimensions      [0 0 -1 1 0 0 0];

internalField   nonuniform List<scalar> 
10000
(
301.794
3.02119
51.4607
48.7633
48.5649
48.6293
48.6347
48.6343
48.635
48.6357
48.6363
48.637
48.6376
48.6383
48.6389
48.6395
48.6401
48.6407
48.6414
48.642
48.6426
48.6432
48.6438
48.6443
48.6449
48.6455
48.6461
48.6466
48.6472
48.6478
48.6483
48.6489
48.6494
48.6499
48.6505
48.651
48.6515
48.652
48.6525
48.653
48.6535
48.654
48.6545
48.655
48.6554
48.6559
48.6564
48.6568
48.6572
48.6577
48.6581
48.6585
48.6589
48.6593
48.6597
48.6601
48.6605
48.6608
48.6612
48.6616
48.6619
48.6622
48.6626
48.6629
48.6632
48.6635
48.6638
48.6641
48.6643
48.6646
48.6649
48.6651
48.6654
48.6656
48.6658
48.666
48.6663
48.6664
48.6666
48.6668
48.667
48.6672
48.6673
48.6675
48.6676
48.6677
48.6678
48.668
48.6681
48.6681
48.6682
48.6683
48.6684
48.6684
48.6679
48.6655
48.7028
49.1717
46.7601
33.9058
14.878
-49.3806
-13.9409
-20.9992
-20.9934
-20.8379
-20.8352
-20.838
-20.8366
-20.8346
-20.8327
-20.8308
-20.8289
-20.8271
-20.8252
-20.8234
-20.8215
-20.8197
-20.8179
-20.8161
-20.8143
-20.8125
-20.8107
-20.809
-20.8072
-20.8055
-20.8037
-20.802
-20.8003
-20.7987
-20.797
-20.7954
-20.7937
-20.7921
-20.7905
-20.7889
-20.7874
-20.7858
-20.7843
-20.7828
-20.7813
-20.7799
-20.7784
-20.777
-20.7756
-20.7742
-20.7729
-20.7715
-20.7702
-20.7689
-20.7676
-20.7664
-20.7652
-20.764
-20.7628
-20.7616
-20.7605
-20.7594
-20.7583
-20.7573
-20.7562
-20.7552
-20.7543
-20.7533
-20.7524
-20.7515
-20.7506
-20.7497
-20.7489
-20.7481
-20.7473
-20.7466
-20.7458
-20.7451
-20.7445
-20.7438
-20.7432
-20.7426
-20.742
-20.7415
-20.741
-20.7405
-20.74
-20.7396
-20.7392
-20.7388
-20.7384
-20.7381
-20.7378
-20.7375
-20.7372
-20.737
-20.7368
-20.7365
-20.7369
-20.7446
-20.756
-20.4834
-20.9775
-13.9334
57.7805
-17.7555
11.9347
5.02849
5.26498
5.44423
5.44451
5.44205
5.44478
5.44808
5.45126
5.45439
5.45751
5.46062
5.46372
5.46681
5.46988
5.47293
5.47597
5.47899
5.48199
5.48497
5.48793
5.49087
5.49379
5.49669
5.49956
5.50241
5.50523
5.50803
5.5108
5.51354
5.51626
5.51895
5.52161
5.52424
5.52684
5.5294
5.53194
5.53445
5.53692
5.53935
5.54176
5.54413
5.54646
5.54876
5.55103
5.55325
5.55544
5.5576
5.55971
5.56179
5.56383
5.56583
5.56779
5.56971
5.57159
5.57343
5.57523
5.57699
5.57871
5.58039
5.58203
5.58362
5.58518
5.58669
5.58816
5.58958
5.59097
5.59231
5.5936
5.59486
5.59607
5.59724
5.59836
5.59944
5.60048
5.60148
5.60243
5.60333
5.60419
5.60501
5.60579
5.60652
5.6072
5.60784
5.60844
5.60899
5.6095
5.60996
5.61038
5.61076
5.61112
5.6116
5.61172
5.60396
5.57262
5.67505
5.00467
4.2532
55.6869
-23.9408
5.85629
-0.786456
-0.507226
-0.331693
-0.332927
-0.33449
-0.330474
-0.325901
-0.321463
-0.317078
-0.31271
-0.308358
-0.304025
-0.299711
-0.295418
-0.291147
-0.2869
-0.282676
-0.278479
-0.274308
-0.270165
-0.266052
-0.261969
-0.257917
-0.253897
-0.249912
-0.245961
-0.242046
-0.238167
-0.234327
-0.230525
-0.226763
-0.223042
-0.219362
-0.215725
-0.212131
-0.208582
-0.205077
-0.201619
-0.198207
-0.194843
-0.191527
-0.188259
-0.185042
-0.181874
-0.178758
-0.175693
-0.17268
-0.16972
-0.166813
-0.16396
-0.161161
-0.158417
-0.155728
-0.153095
-0.150518
-0.147997
-0.145534
-0.143127
-0.140779
-0.138488
-0.136256
-0.134082
-0.131968
-0.129912
-0.127916
-0.12598
-0.124103
-0.122287
-0.12053
-0.118835
-0.1172
-0.115626
-0.114113
-0.112661
-0.11127
-0.10994
-0.108672
-0.107466
-0.106321
-0.105238
-0.104217
-0.103258
-0.102361
-0.101526
-0.100753
-0.100042
-0.0993941
-0.0988092
-0.0982885
-0.0977957
-0.0970643
-0.0954732
-0.0955671
-0.107119
-0.0242332
0.0661866
-0.145228
55.5226
-23.9521
6.05925
-0.540485
-0.263671
-0.0905433
-0.0912644
-0.0915805
-0.0862757
-0.0804383
-0.0747454
-0.0691098
-0.063496
-0.0579027
-0.0523324
-0.046787
-0.0412684
-0.035778
-0.0303176
-0.0248887
-0.0194929
-0.0141316
-0.0088065
-0.00351895
0.00172954
0.00693755
0.0121037
0.0172265
0.0223046
0.0273367
0.0323215
0.0372577
0.042144
0.0469791
0.0517619
0.0564912
0.0611658
0.0657846
0.0703466
0.0748505
0.0792955
0.0836804
0.0880044
0.0922664
0.0964656
0.100601
0.104672
0.108677
0.112617
0.116489
0.120293
0.12403
0.127696
0.131294
0.13482
0.138276
0.14166
0.144972
0.148212
0.151378
0.15447
0.157489
0.160433
0.163302
0.166095
0.168813
0.171455
0.17402
0.176509
0.178921
0.181255
0.183512
0.185692
0.187793
0.189816
0.191761
0.193627
0.195414
0.197123
0.198752
0.200303
0.201774
0.203166
0.204478
0.205711
0.206864
0.207937
0.208931
0.209845
0.210679
0.21143
0.21209
0.212646
0.213204
0.214235
0.214577
0.203761
0.206535
0.233565
0.249669
55.5772
-23.8176
6.21689
-0.385857
-0.111357
0.062109
0.0625945
0.0635786
0.0701576
0.077254
0.0841998
0.0910841
0.0979422
0.104775
0.11158
0.118354
0.125095
0.131802
0.138472
0.145104
0.151696
0.158245
0.16475
0.171209
0.177621
0.183983
0.190294
0.196552
0.202755
0.208903
0.214992
0.221022
0.226991
0.232898
0.238741
0.244518
0.250229
0.255871
0.261444
0.266946
0.272376
0.277732
0.283015
0.288221
0.293351
0.298403
0.303376
0.308269
0.313081
0.317812
0.322459
0.327023
0.331503
0.335897
0.340206
0.344427
0.348561
0.352607
0.356565
0.360432
0.36421
0.367898
0.371494
0.374998
0.378411
0.381731
0.384959
0.388093
0.391133
0.394079
0.396931
0.399688
0.40235
0.404917
0.407389
0.409764
0.412044
0.414228
0.416315
0.418306
0.4202
0.421997
0.423697
0.4253
0.426806
0.428215
0.429526
0.43074
0.431856
0.432875
0.433797
0.434614
0.435309
0.435909
0.436789
0.438279
0.436169
0.432715
0.430201
0.439884
55.5817
-23.8149
6.21775
-0.386297
-0.111271
0.0633985
0.0651854
0.0674484
0.0752891
0.0836402
0.0918366
0.0999675
0.108068
0.116138
0.124175
0.132176
0.140138
0.14806
0.155938
0.163771
0.171556
0.179291
0.186975
0.194604
0.202176
0.209691
0.217145
0.224536
0.231863
0.239124
0.246316
0.253438
0.260488
0.267464
0.274365
0.281189
0.287934
0.294598
0.30118
0.307679
0.314092
0.320419
0.326658
0.332807
0.338866
0.344833
0.350706
0.356486
0.362169
0.367756
0.373246
0.378636
0.383927
0.389117
0.394206
0.399192
0.404075
0.408854
0.413528
0.418096
0.422558
0.426913
0.431161
0.4353
0.439331
0.443252
0.447064
0.450766
0.454356
0.457836
0.461205
0.464461
0.467605
0.470637
0.473556
0.476362
0.479055
0.481634
0.484099
0.48645
0.488688
0.49081
0.492818
0.494712
0.496491
0.498154
0.499703
0.501137
0.502455
0.503659
0.504748
0.50572
0.50656
0.507242
0.507895
0.50895
0.50957
0.5095
0.50723
0.50973
55.5815
-23.817
6.21603
-0.387107
-0.11084
0.0651278
0.0681934
0.0717192
0.0808155
0.0904184
0.0998629
0.109238
0.118578
0.127883
0.13715
0.146375
0.155556
0.16469
0.173774
0.182806
0.191782
0.200701
0.20956
0.218357
0.227089
0.235753
0.244347
0.25287
0.261318
0.26969
0.277983
0.286195
0.294324
0.302368
0.310325
0.318193
0.32597
0.333654
0.341243
0.348736
0.356131
0.363426
0.37062
0.37771
0.384696
0.391576
0.398349
0.405012
0.411566
0.418008
0.424338
0.430553
0.436654
0.442638
0.448505
0.454255
0.459885
0.465395
0.470784
0.476051
0.481196
0.486218
0.491115
0.495888
0.500536
0.505057
0.509453
0.513721
0.517861
0.521873
0.525757
0.529512
0.533138
0.536633
0.539999
0.543235
0.546339
0.549313
0.552156
0.554867
0.557446
0.559894
0.562209
0.564392
0.566443
0.568362
0.570147
0.5718
0.573321
0.574708
0.575963
0.577087
0.578073
0.578897
0.579559
0.580226
0.580916
0.581755
0.579946
0.582314
55.5821
-23.8155
6.21881
-0.383041
-0.105489
0.0717531
0.0760804
0.0808619
0.0912104
0.102062
0.112752
0.123369
0.133946
0.144483
0.154977
0.165424
0.175821
0.186164
0.196451
0.206678
0.216844
0.226944
0.236976
0.246938
0.256826
0.266637
0.27637
0.286021
0.295588
0.305068
0.31446
0.323759
0.332965
0.342074
0.351085
0.359994
0.368801
0.377503
0.386097
0.394582
0.402956
0.411217
0.419364
0.427393
0.435304
0.443095
0.450764
0.458311
0.465732
0.473027
0.480195
0.487233
0.494142
0.500919
0.507563
0.514073
0.520449
0.526689
0.532792
0.538757
0.544583
0.550269
0.555815
0.56122
0.566483
0.571604
0.576581
0.581414
0.586103
0.590646
0.595044
0.599297
0.603402
0.607361
0.611172
0.614836
0.618352
0.62172
0.624939
0.628009
0.63093
0.633701
0.636324
0.638796
0.641118
0.643291
0.645313
0.647185
0.648907
0.650477
0.651898
0.65317
0.654292
0.655256
0.65604
0.656662
0.657235
0.658414
0.655815
0.659228
55.5828
-23.8136
6.22209
-0.378488
-0.0996711
0.0788296
0.0844118
0.0904452
0.102043
0.11414
0.126073
0.137927
0.149738
0.161505
0.173223
0.184888
0.196497
0.208047
0.219534
0.230954
0.242305
0.253583
0.264786
0.275909
0.28695
0.297906
0.308774
0.319551
0.330234
0.34082
0.351307
0.361691
0.37197
0.382142
0.392203
0.402152
0.411986
0.421703
0.4313
0.440775
0.450125
0.45935
0.468446
0.477412
0.486246
0.494946
0.50351
0.511936
0.520223
0.528369
0.536372
0.544232
0.551946
0.559514
0.566933
0.574203
0.581322
0.588289
0.595104
0.601765
0.60827
0.61462
0.620813
0.626849
0.632725
0.638443
0.644001
0.649398
0.654633
0.659707
0.664618
0.669366
0.67395
0.678371
0.682627
0.686718
0.690644
0.694404
0.697999
0.701427
0.704689
0.707784
0.710712
0.713473
0.716066
0.718492
0.72075
0.72284
0.724763
0.726517
0.728103
0.729521
0.730773
0.731858
0.732762
0.733447
0.733991
0.735619
0.731962
0.736452
55.5834
-23.8117
6.22526
-0.374053
-0.0939817
0.0857722
0.0926053
0.0998869
0.11273
0.12607
0.139241
0.15233
0.165372
0.178364
0.191302
0.204182
0.217
0.229753
0.242436
0.255046
0.267579
0.280032
0.292401
0.304683
0.316875
0.328972
0.340972
0.352871
0.364666
0.376355
0.387934
0.3994
0.41075
0.421981
0.43309
0.444075
0.454934
0.465662
0.476259
0.48672
0.497045
0.50723
0.517274
0.527174
0.536928
0.546534
0.555989
0.565293
0.574443
0.583438
0.592275
0.600953
0.609471
0.617826
0.626018
0.634045
0.641906
0.649599
0.657123
0.664478
0.671661
0.678672
0.68551
0.692174
0.698663
0.704976
0.711113
0.717072
0.722853
0.728455
0.733877
0.73912
0.744182
0.749063
0.753762
0.75828
0.762614
0.766766
0.770735
0.77452
0.778122
0.781539
0.784772
0.787821
0.790684
0.793363
0.795856
0.798164
0.800287
0.802224
0.803975
0.80554
0.806921
0.808119
0.809127
0.809886
0.810415
0.81254
0.807874
0.813346
55.5841
-23.8098
6.2284
-0.369666
-0.0883444
0.0926586
0.100739
0.109265
0.123349
0.137928
0.152333
0.166653
0.180921
0.195135
0.20929
0.223381
0.237405
0.251356
0.265232
0.279028
0.292739
0.306363
0.319895
0.333332
0.34667
0.359904
0.373033
0.386051
0.398956
0.411743
0.424411
0.436955
0.449372
0.461659
0.473813
0.485831
0.49771
0.509448
0.521041
0.532486
0.543781
0.554924
0.565913
0.576743
0.587414
0.597923
0.608268
0.618447
0.628457
0.638297
0.647965
0.65746
0.666778
0.675919
0.684882
0.693663
0.702263
0.71068
0.718912
0.726958
0.734816
0.742487
0.749968
0.757258
0.764357
0.771264
0.777977
0.784497
0.790821
0.79695
0.802883
0.808618
0.814156
0.819496
0.824637
0.829579
0.834322
0.838864
0.843206
0.847347
0.851288
0.855026
0.858563
0.861898
0.865031
0.867962
0.87069
0.873215
0.875537
0.877656
0.879572
0.881284
0.882794
0.884104
0.885211
0.886042
0.886554
0.889135
0.883605
0.889921
55.5847
-23.8079
6.23152
-0.365296
-0.0827283
0.0995195
0.108842
0.118608
0.13393
0.149743
0.165379
0.180925
0.196415
0.211846
0.227214
0.242512
0.257736
0.272883
0.287947
0.302924
0.31781
0.332601
0.347292
0.36188
0.37636
0.390728
0.404981
0.419114
0.433124
0.447007
0.460759
0.474377
0.487858
0.501198
0.514393
0.52744
0.540337
0.553079
0.565665
0.578091
0.590354
0.602451
0.61438
0.626138
0.637723
0.649132
0.660363
0.671414
0.682281
0.692964
0.703461
0.713768
0.723884
0.733809
0.743538
0.753072
0.762409
0.771546
0.780483
0.789218
0.79775
0.806077
0.814199
0.822114
0.829821
0.837319
0.844608
0.851685
0.858551
0.865205
0.871646
0.877873
0.883885
0.889682
0.895264
0.900629
0.905778
0.910709
0.915423
0.919919
0.924197
0.928256
0.932096
0.935716
0.939118
0.942299
0.945261
0.948002
0.950523
0.952824
0.954904
0.956763
0.958402
0.959824
0.961028
0.961933
0.962435
0.965391
0.959181
0.96618
55.5854
-23.8061
6.23463
-0.360942
-0.0771323
0.106355
0.116916
0.127918
0.144472
0.161514
0.178376
0.195144
0.211852
0.228496
0.24507
0.261571
0.277992
0.294329
0.310577
0.326731
0.342787
0.35874
0.374586
0.39032
0.405938
0.421436
0.436809
0.452052
0.467163
0.482138
0.496971
0.511659
0.526199
0.540587
0.554819
0.568892
0.582802
0.596547
0.610121
0.623524
0.63675
0.649798
0.662665
0.675347
0.687843
0.700148
0.712262
0.724181
0.735903
0.747425
0.758746
0.769864
0.780775
0.791479
0.801974
0.812257
0.822327
0.832183
0.841822
0.851243
0.860446
0.869427
0.878187
0.886724
0.895037
0.903125
0.910986
0.91862
0.926026
0.933202
0.940149
0.946865
0.95335
0.959603
0.965623
0.97141
0.976964
0.982283
0.987367
0.992217
0.99683
1.00121
1.00535
1.00926
1.01292
1.01636
1.01955
1.02251
1.02523
1.02771
1.02995
1.03196
1.03372
1.03526
1.03656
1.03754
1.03805
1.04129
1.03459
1.04211
55.586
-23.8042
6.23773
-0.356606
-0.0715591
0.113164
0.124957
0.137189
0.154971
0.173237
0.19132
0.209305
0.227225
0.245077
0.262854
0.280552
0.298165
0.315687
0.333114
0.350441
0.367662
0.384773
0.401769
0.418645
0.435396
0.452018
0.468506
0.484856
0.501064
0.517125
0.533034
0.548789
0.564384
0.579816
0.595081
0.610175
0.625094
0.639836
0.654396
0.66877
0.682957
0.696952
0.710752
0.724355
0.737757
0.750956
0.763948
0.776732
0.789304
0.801663
0.813805
0.82573
0.837433
0.848914
0.86017
0.871199
0.882
0.892571
0.902909
0.913015
0.922885
0.932518
0.941914
0.95107
0.959986
0.968661
0.977092
0.98528
0.993224
1.00092
1.00837
1.01558
1.02253
1.02924
1.03569
1.0419
1.04786
1.05356
1.05902
1.06422
1.06917
1.07386
1.0783
1.08249
1.08643
1.09011
1.09354
1.09671
1.09962
1.10229
1.10469
1.10684
1.10874
1.11038
1.11178
1.11284
1.11336
1.1168
1.10979
1.11768
55.5866
-23.8023
6.24082
-0.352289
-0.0660103
0.119942
0.132963
0.14642
0.165424
0.184909
0.204207
0.223404
0.242531
0.261585
0.28056
0.29945
0.318249
0.336952
0.355552
0.374046
0.392427
0.410691
0.428831
0.446844
0.464724
0.482465
0.500064
0.517516
0.534815
0.551958
0.568939
0.585754
0.6024
0.618872
0.635165
0.651275
0.6672
0.682934
0.698475
0.713818
0.72896
0.743897
0.758627
0.773146
0.787451
0.801539
0.815406
0.829051
0.84247
0.855662
0.868622
0.881349
0.893841
0.906095
0.918109
0.929881
0.94141
0.952692
0.963728
0.974513
0.985048
0.995331
1.00536
1.01513
1.02465
1.03391
1.04291
1.05165
1.06012
1.06834
1.07629
1.08398
1.09141
1.09856
1.10546
1.11208
1.11844
1.12453
1.13035
1.1359
1.14118
1.1462
1.15094
1.15541
1.15961
1.16354
1.16719
1.17058
1.17369
1.17653
1.1791
1.1814
1.18342
1.18518
1.18667
1.1878
1.18837
1.19193
1.18475
1.19288
55.5872
-23.8005
6.24389
-0.347992
-0.0604878
0.126688
0.14093
0.155607
0.175827
0.196526
0.217033
0.237436
0.257764
0.278015
0.298182
0.318258
0.338238
0.358115
0.377885
0.39754
0.417076
0.436486
0.455766
0.47491
0.493913
0.512769
0.531473
0.550021
0.568407
0.586626
0.604674
0.622546
0.640237
0.657743
0.675059
0.692182
0.709107
0.725829
0.742346
0.758652
0.774746
0.790621
0.806276
0.821707
0.83691
0.851883
0.866622
0.881123
0.895386
0.909405
0.92318
0.936706
0.949982
0.963006
0.975775
0.988287
1.00054
1.01253
1.02426
1.03572
1.04692
1.05785
1.06851
1.07889
1.08901
1.09885
1.10841
1.1177
1.12671
1.13544
1.14389
1.15207
1.15996
1.16757
1.17489
1.18193
1.18869
1.19516
1.20135
1.20725
1.21286
1.21819
1.22323
1.22798
1.23244
1.23662
1.24051
1.2441
1.24741
1.25043
1.25316
1.2556
1.25775
1.25962
1.2612
1.26242
1.26303
1.26665
1.25943
1.2677
55.5878
-23.7987
6.24695
-0.343718
-0.054993
0.1334
0.148858
0.164748
0.186179
0.208084
0.229795
0.251397
0.272921
0.294363
0.315715
0.336972
0.358127
0.379173
0.400105
0.420916
0.4416
0.462152
0.482566
0.502835
0.522955
0.54292
0.562724
0.582362
0.601829
0.62112
0.640229
0.659152
0.677883
0.696419
0.714753
0.732883
0.750802
0.768508
0.785996
0.803262
0.820301
0.83711
0.853686
0.870024
0.886121
0.901974
0.917579
0.932934
0.948034
0.962878
0.977463
0.991785
1.00584
1.01963
1.03315
1.0464
1.05937
1.07207
1.08448
1.09662
1.10848
1.12005
1.13133
1.14233
1.15304
1.16346
1.17359
1.18342
1.19296
1.20221
1.21116
1.21981
1.22816
1.23622
1.24397
1.25143
1.25858
1.26544
1.27199
1.27823
1.28418
1.28982
1.29515
1.30019
1.30491
1.30933
1.31345
1.31726
1.32076
1.32396
1.32685
1.32943
1.33171
1.33368
1.33536
1.33665
1.33732
1.34095
1.33381
1.34212
55.5885
-23.7969
6.24999
-0.339466
-0.0495277
0.140077
0.156743
0.173839
0.196474
0.21958
0.242488
0.265284
0.287997
0.310623
0.333155
0.355586
0.377909
0.400118
0.422206
0.444166
0.465993
0.48768
0.509222
0.530611
0.551842
0.57291
0.593808
0.614531
0.635074
0.65543
0.675594
0.695562
0.715328
0.734888
0.754235
0.773366
0.792275
0.810959
0.829413
0.847632
0.865613
0.883351
0.900842
0.918082
0.935069
0.951797
0.968264
0.984467
1.0004
1.01607
1.03146
1.04657
1.0614
1.07595
1.09022
1.1042
1.11789
1.13129
1.14439
1.1572
1.16971
1.18192
1.19383
1.20543
1.21673
1.22773
1.23841
1.24879
1.25886
1.26861
1.27806
1.28719
1.296
1.3045
1.31269
1.32056
1.3281
1.33534
1.34225
1.34884
1.35511
1.36106
1.3667
1.372
1.37699
1.38166
1.386
1.39002
1.39372
1.39709
1.40014
1.40287
1.40527
1.40736
1.40912
1.4105
1.41123
1.41483
1.40784
1.41612
55.5891
-23.795
6.25301
-0.335238
-0.0440934
0.146715
0.164584
0.18288
0.206712
0.231011
0.25511
0.279092
0.302987
0.326791
0.350496
0.374094
0.397579
0.420944
0.444182
0.467285
0.490248
0.513064
0.535727
0.55823
0.580566
0.60273
0.624716
0.646518
0.66813
0.689545
0.710759
0.731767
0.752562
0.773139
0.793493
0.81362
0.833514
0.85317
0.872584
0.891752
0.910668
0.929329
0.947731
0.965869
0.983739
1.00134
1.01866
1.03571
1.05247
1.06895
1.08514
1.10104
1.11665
1.13196
1.14697
1.16167
1.17607
1.19017
1.20395
1.21743
1.23059
1.24344
1.25596
1.26817
1.28006
1.29163
1.30287
1.31379
1.32438
1.33464
1.34458
1.35419
1.36346
1.3724
1.38101
1.38929
1.39723
1.40484
1.41211
1.41905
1.42565
1.43191
1.43783
1.44342
1.44867
1.45357
1.45814
1.46237
1.46626
1.46981
1.47302
1.47589
1.47842
1.48061
1.48247
1.48392
1.48473
1.48826
1.48149
1.48968
55.5897
-23.7932
6.25601
-0.331035
-0.0386915
0.153314
0.172378
0.191866
0.216888
0.242374
0.267656
0.292817
0.317888
0.342862
0.367733
0.392492
0.417132
0.441646
0.466026
0.490266
0.514359
0.538297
0.562074
0.585683
0.609118
0.632372
0.65544
0.678314
0.700988
0.723457
0.745714
0.767755
0.789572
0.811162
0.832517
0.853634
0.874506
0.895129
0.915498
0.935608
0.955455
0.975033
0.99434
1.01337
1.03212
1.05058
1.06876
1.08664
1.10423
1.12152
1.13851
1.15519
1.17156
1.18763
1.20337
1.2188
1.23391
1.2487
1.26316
1.2773
1.29111
1.30459
1.31773
1.33054
1.34301
1.35515
1.36695
1.3784
1.38951
1.40028
1.41071
1.42078
1.43051
1.4399
1.44893
1.45761
1.46595
1.47393
1.48156
1.48884
1.49576
1.50233
1.50854
1.51441
1.51991
1.52506
1.52985
1.53429
1.53837
1.5421
1.54547
1.54848
1.55113
1.55343
1.55538
1.5569
1.55779
1.56124
1.55473
1.5628
55.5903
-23.7915
6.259
-0.326859
-0.0333237
0.159871
0.180122
0.200796
0.227
0.253666
0.280123
0.306457
0.332695
0.358833
0.384862
0.410774
0.436562
0.462218
0.487734
0.513102
0.538317
0.56337
0.588255
0.612964
0.637491
0.661828
0.68597
0.709909
0.73364
0.757155
0.78045
0.803517
0.82635
0.848945
0.871295
0.893395
0.91524
0.936823
0.958141
0.979188
0.999959
1.02045
1.04066
1.06057
1.08019
1.09952
1.11854
1.13726
1.15567
1.17376
1.19154
1.209
1.22613
1.24294
1.25942
1.27557
1.29139
1.30686
1.322
1.3368
1.35125
1.36535
1.37911
1.39252
1.40557
1.41827
1.43062
1.4426
1.45423
1.4655
1.47641
1.48696
1.49715
1.50697
1.51642
1.52551
1.53423
1.54258
1.55057
1.55818
1.56543
1.57231
1.57881
1.58495
1.59071
1.5961
1.60111
1.60576
1.61003
1.61393
1.61745
1.6206
1.62338
1.62579
1.62783
1.62943
1.6304
1.63374
1.62753
1.63545
55.5909
-23.7897
6.26196
-0.322711
-0.0279914
0.166385
0.187816
0.209667
0.237045
0.264882
0.292508
0.320006
0.347404
0.374697
0.401877
0.428935
0.455863
0.482653
0.509297
0.535788
0.562117
0.588278
0.614263
0.640064
0.665676
0.691089
0.716298
0.741296
0.766076
0.790631
0.814955
0.839042
0.862885
0.886479
0.909817
0.932894
0.955704
0.978242
1.0005
1.02248
1.04417
1.06557
1.08666
1.10746
1.12795
1.14813
1.16799
1.18754
1.20676
1.22566
1.24422
1.26245
1.28034
1.2979
1.3151
1.33197
1.34848
1.36464
1.38045
1.3959
1.41099
1.42572
1.44008
1.45408
1.46771
1.48097
1.49387
1.50638
1.51853
1.5303
1.54169
1.5527
1.56334
1.57359
1.58346
1.59295
1.60206
1.61078
1.61912
1.62707
1.63464
1.64182
1.64861
1.65502
1.66104
1.66666
1.6719
1.67675
1.68121
1.68528
1.68897
1.69226
1.69516
1.69767
1.6998
1.70147
1.70253
1.70576
1.69986
1.70761
55.5914
-23.7879
6.26491
-0.318591
-0.0226961
0.172854
0.195456
0.218476
0.247021
0.276021
0.304807
0.333461
0.362011
0.390452
0.418775
0.446971
0.475031
0.502947
0.530711
0.558316
0.585752
0.613013
0.640091
0.666977
0.693665
0.720147
0.746416
0.772465
0.798287
0.823874
0.849221
0.874321
0.899167
0.923752
0.948072
0.972119
0.995889
1.01937
1.04257
1.06547
1.08807
1.11037
1.13235
1.15403
1.17538
1.19641
1.2171
1.23747
1.2575
1.27719
1.29653
1.31553
1.33418
1.35247
1.3704
1.38797
1.40518
1.42202
1.43849
1.45459
1.47031
1.48566
1.50063
1.51522
1.52942
1.54324
1.55668
1.56972
1.58238
1.59464
1.60651
1.61799
1.62907
1.63975
1.65004
1.65993
1.66942
1.67851
1.6872
1.69549
1.70337
1.71085
1.71793
1.72461
1.73088
1.73674
1.7422
1.74726
1.7519
1.75615
1.75998
1.76341
1.76643
1.76905
1.77127
1.77302
1.77416
1.77728
1.77169
1.77928
55.592
-23.7862
6.26783
-0.314501
-0.0174392
0.179275
0.203041
0.227221
0.256924
0.287079
0.317017
0.346818
0.376512
0.406093
0.43555
0.464875
0.494059
0.523094
0.55197
0.580681
0.609216
0.637569
0.665731
0.693694
0.721451
0.748994
0.776316
0.803408
0.830264
0.856876
0.883239
0.909344
0.935185
0.960755
0.986049
1.01106
1.03578
1.06021
1.08433
1.10815
1.13166
1.15485
1.17771
1.20025
1.22246
1.24433
1.26586
1.28704
1.30787
1.32835
1.34847
1.36823
1.38762
1.40664
1.42529
1.44357
1.46147
1.47898
1.49611
1.51286
1.52921
1.54517
1.56074
1.57591
1.59069
1.60506
1.61903
1.6326
1.64576
1.65852
1.67086
1.6828
1.69432
1.70544
1.71614
1.72642
1.73629
1.74575
1.75478
1.7634
1.7716
1.77939
1.78675
1.79369
1.80021
1.80631
1.81199
1.81725
1.82208
1.82649
1.83048
1.83405
1.83719
1.83991
1.84222
1.84405
1.84527
1.84828
1.843
1.85042
55.5926
-23.7844
6.27073
-0.310442
-0.0122222
0.185648
0.210568
0.2359
0.266752
0.298054
0.329134
0.360074
0.390903
0.421614
0.452198
0.482644
0.512943
0.543088
0.573068
0.602876
0.632502
0.661939
0.691177
0.720209
0.749027
0.777623
0.805988
0.834116
0.861999
0.889629
0.916998
0.944101
0.97093
0.997478
1.02374
1.0497
1.07537
1.10073
1.12578
1.15051
1.17491
1.19899
1.22273
1.24613
1.26918
1.29189
1.31424
1.33623
1.35786
1.37912
1.40001
1.42052
1.44066
1.46041
1.47977
1.49874
1.51732
1.53551
1.5533
1.57068
1.58766
1.60423
1.62039
1.63615
1.65148
1.66641
1.68091
1.695
1.70866
1.72191
1.73472
1.74712
1.75908
1.77062
1.78173
1.79241
1.80266
1.81247
1.82185
1.8308
1.83932
1.8474
1.85504
1.86225
1.86902
1.87535
1.88125
1.88671
1.89173
1.89631
1.90045
1.90415
1.90742
1.91024
1.91263
1.91454
1.91584
1.91875
1.91376
1.92103
55.5932
-23.7827
6.27361
-0.306415
-0.00704646
0.191971
0.218035
0.24451
0.276502
0.308941
0.341155
0.373225
0.405181
0.437013
0.468714
0.500272
0.531678
0.562924
0.593999
0.624895
0.655604
0.686115
0.716422
0.746514
0.776385
0.806025
0.835426
0.864582
0.893482
0.922121
0.950491
0.978584
1.00639
1.03391
1.06113
1.08804
1.11465
1.14093
1.1669
1.19253
1.21782
1.24278
1.26739
1.29164
1.31554
1.33907
1.36224
1.38504
1.40745
1.42949
1.45114
1.47241
1.49327
1.51375
1.53382
1.55348
1.57274
1.59159
1.61003
1.62804
1.64564
1.66282
1.67958
1.6959
1.7118
1.72727
1.74231
1.75691
1.77107
1.7848
1.79808
1.81093
1.82333
1.83529
1.84681
1.85787
1.8685
1.87867
1.8884
1.89767
1.9065
1.91487
1.92279
1.93027
1.93728
1.94385
1.94996
1.95562
1.96082
1.96557
1.96986
1.9737
1.97708
1.98001
1.98249
1.98447
1.98585
1.98867
1.98395
1.99108
55.5938
-23.781
6.27646
-0.302422
-0.00191337
0.198241
0.225442
0.25305
0.286172
0.319739
0.353077
0.386268
0.41934
0.452286
0.485094
0.517755
0.550259
0.582596
0.614757
0.646733
0.678515
0.710093
0.741458
0.772603
0.803517
0.834193
0.864622
0.894796
0.924707
0.954346
0.983707
1.01278
1.04156
1.07004
1.09821
1.12607
1.1536
1.18081
1.20767
1.2342
1.26038
1.28621
1.31168
1.33678
1.36151
1.38587
1.40985
1.43344
1.45664
1.47945
1.50185
1.52386
1.54546
1.56664
1.58742
1.60777
1.6277
1.64721
1.66629
1.68494
1.70315
1.72093
1.73827
1.75517
1.77162
1.78763
1.80319
1.8183
1.83296
1.84717
1.86092
1.87421
1.88705
1.89943
1.91134
1.9228
1.93379
1.94432
1.95439
1.96399
1.97312
1.98179
1.98999
1.99772
2.00498
2.01178
2.0181
2.02396
2.02935
2.03426
2.0387
2.04268
2.04618
2.04921
2.05177
2.05383
2.05528
2.05801
2.05356
2.06055
55.5943
-23.7793
6.27929
-0.298462
0.0031757
0.204458
0.232784
0.261516
0.29576
0.330444
0.364897
0.3992
0.433379
0.467427
0.501333
0.535088
0.56868
0.602099
0.635337
0.668384
0.701229
0.733865
0.76628
0.798467
0.830416
0.862119
0.893567
0.924751
0.955663
0.986295
1.01664
1.04669
1.07643
1.10586
1.13498
1.16376
1.19222
1.22033
1.2481
1.27552
1.30258
1.32927
1.35559
1.38153
1.40709
1.43226
1.45704
1.48142
1.5054
1.52897
1.55213
1.57487
1.59719
1.61909
1.64056
1.66159
1.68219
1.70235
1.72207
1.74134
1.76017
1.77854
1.79646
1.81392
1.83093
1.84747
1.86355
1.87917
1.89432
1.909
1.92321
1.93695
1.95022
1.96301
1.97533
1.98717
1.99853
2.00941
2.01981
2.02973
2.03917
2.04813
2.05661
2.0646
2.07211
2.07913
2.08566
2.09172
2.09728
2.10236
2.10695
2.11106
2.11468
2.11781
2.12046
2.12259
2.12412
2.12677
2.12256
2.12944
55.5949
-23.7776
6.2821
-0.294538
0.00821941
0.21062
0.240061
0.269907
0.305261
0.341054
0.376612
0.412015
0.447292
0.482433
0.517428
0.552266
0.586936
0.621429
0.655734
0.689842
0.723742
0.757425
0.790881
0.824101
0.857076
0.889797
0.922254
0.954439
0.986344
1.01796
1.04928
1.08029
1.11099
1.14137
1.17141
1.20113
1.23049
1.25951
1.28817
1.31647
1.34439
1.37194
1.39911
1.42588
1.45226
1.47824
1.50382
1.52898
1.55373
1.57806
1.60196
1.62543
1.64847
1.67107
1.69322
1.71493
1.73619
1.757
1.77735
1.79724
1.81667
1.83564
1.85413
1.87216
1.88971
1.90678
1.92338
1.9395
1.95513
1.97029
1.98495
1.99913
2.01283
2.02603
2.03874
2.05096
2.06269
2.07392
2.08466
2.0949
2.10464
2.11388
2.12263
2.13088
2.13863
2.14588
2.15262
2.15887
2.16461
2.16986
2.1746
2.17884
2.18257
2.18581
2.18854
2.19073
2.19234
2.19492
2.19093
2.19772
55.5954
-23.7759
6.28487
-0.29065
0.0132164
0.216724
0.247271
0.27822
0.314675
0.351565
0.388218
0.424713
0.461076
0.497301
0.533374
0.569285
0.605024
0.64058
0.675942
0.711101
0.746046
0.780766
0.815254
0.849498
0.883489
0.917218
0.950675
0.983852
1.01674
1.04933
1.08161
1.11358
1.14523
1.17654
1.20751
1.23814
1.26841
1.29833
1.32787
1.35704
1.38582
1.41422
1.44222
1.46982
1.49702
1.5238
1.55016
1.5761
1.60161
1.62669
1.65133
1.67552
1.69927
1.72256
1.7454
1.76778
1.7897
1.81115
1.83212
1.85263
1.87266
1.8922
1.91127
1.92985
1.94794
1.96554
1.98265
1.99926
2.01538
2.031
2.04612
2.06074
2.07485
2.08846
2.10157
2.11416
2.12625
2.13783
2.1489
2.15945
2.1695
2.17903
2.18804
2.19655
2.20453
2.212
2.21896
2.2254
2.23132
2.23673
2.24161
2.24598
2.24983
2.25317
2.25599
2.25825
2.25993
2.26245
2.25867
2.26537
55.596
-23.7743
6.28763
-0.286799
0.0181655
0.22277
0.254412
0.286453
0.323998
0.361976
0.399713
0.437288
0.474728
0.512025
0.549167
0.586142
0.622939
0.659547
0.695956
0.732156
0.768135
0.803884
0.839393
0.87465
0.909648
0.944376
0.978824
1.01298
1.04684
1.0804
1.11364
1.14655
1.17913
1.21137
1.24327
1.2748
1.30597
1.33677
1.36719
1.39722
1.42685
1.45609
1.48492
1.51334
1.54134
1.56892
1.59606
1.62277
1.64903
1.67485
1.70022
1.72513
1.74958
1.77356
1.79708
1.82012
1.84269
1.86477
1.88637
1.90748
1.9281
1.94823
1.96786
1.98699
2.00561
2.02374
2.04135
2.05846
2.07505
2.09114
2.1067
2.12175
2.13629
2.1503
2.16379
2.17676
2.18921
2.20113
2.21252
2.22339
2.23373
2.24354
2.25283
2.26158
2.26981
2.2775
2.28466
2.29129
2.29739
2.30295
2.30799
2.31249
2.31645
2.31989
2.32279
2.32512
2.32686
2.32934
2.32574
2.33237
55.5965
-23.7726
6.29035
-0.282987
0.0230654
0.228755
0.261481
0.294604
0.333229
0.372283
0.411093
0.449738
0.488244
0.526603
0.564802
0.60283
0.640675
0.678325
0.715771
0.753001
0.790005
0.826772
0.863291
0.899553
0.935547
0.971263
1.00669
1.04182
1.07665
1.11116
1.14534
1.1792
1.21271
1.24586
1.27866
1.3111
1.34315
1.37483
1.40611
1.437
1.46748
1.49755
1.5272
1.55643
1.58522
1.61358
1.6415
1.66897
1.69598
1.72253
1.74862
1.77424
1.79939
1.82406
1.84824
1.87194
1.89515
1.91786
1.94007
1.96179
1.98299
2.00369
2.02388
2.04356
2.06271
2.08135
2.09947
2.11706
2.13413
2.15067
2.16668
2.18216
2.19711
2.21152
2.22539
2.23873
2.25153
2.26379
2.27551
2.28669
2.29733
2.30742
2.31697
2.32597
2.33443
2.34234
2.34971
2.35653
2.3628
2.36852
2.3737
2.37833
2.38241
2.38594
2.38892
2.39133
2.39313
2.39557
2.39213
2.39871
55.5971
-23.771
6.29305
-0.279214
0.0279147
0.234679
0.268478
0.302672
0.342365
0.382484
0.422356
0.46206
0.501622
0.541031
0.580277
0.619346
0.658228
0.69691
0.735382
0.773632
0.81165
0.849424
0.886944
0.924199
0.961179
0.997874
1.03427
1.07037
1.10615
1.1416
1.17672
1.2115
1.24593
1.28
1.3137
1.34702
1.37995
1.41249
1.44463
1.47637
1.50768
1.53858
1.56904
1.59907
1.62865
1.65779
1.68647
1.71469
1.74244
1.76973
1.79653
1.82285
1.84869
1.87403
1.89888
1.92323
1.94707
1.9704
1.99323
2.01553
2.03732
2.05859
2.07933
2.09954
2.11922
2.13837
2.15699
2.17506
2.1926
2.20959
2.22604
2.24194
2.2573
2.27211
2.28636
2.30007
2.31322
2.32581
2.33786
2.34934
2.36027
2.37064
2.38045
2.3897
2.39839
2.40652
2.41409
2.42109
2.42754
2.43342
2.43874
2.44349
2.44768
2.45131
2.45437
2.45685
2.45872
2.46113
2.45783
2.46437
55.5976
-23.7694
6.29571
-0.275481
0.0327124
0.24054
0.2754
0.310653
0.351403
0.392576
0.433499
0.474251
0.514856
0.555306
0.595587
0.635687
0.675594
0.715297
0.754784
0.794043
0.833064
0.871834
0.910344
0.948582
0.986538
1.0242
1.06156
1.09861
1.13533
1.17172
1.20777
1.24347
1.2788
1.31377
1.34835
1.38255