/*--------------------------------*- C++ -*----------------------------------*\
  =========                 |
  \\      /  F ield         | OpenFOAM: The Open Source CFD Toolbox
   \\    /   O peration     | Website:  https://openfoam.org
    \\  /    A nd           | Version:  10
     \\/     M anipulation  |
\*---------------------------------------------------------------------------*/
FoamFile
{
    format      ascii;
    class       volScalarField;
    location    "44.5";
    object      T_0;
}
// * * * * * * * * * * * * * * * * * * * * * * * * * * * * * * * * * * * * * //

dimensions      [0 0 0 1 0 0 0];

internalField   nonuniform List<scalar> 
10000
(
374.989
361.306
356.637
354.597
353.496
352.806
352.328
351.975
351.701
351.481
351.299
351.146
351.014
350.899
350.797
350.705
350.622
350.547
350.478
350.413
350.354
350.298
350.245
350.195
350.148
350.103
350.061
350.02
349.981
349.943
349.907
349.872
349.838
349.806
349.774
349.743
349.714
349.685
349.657
349.63
349.603
349.577
349.552
349.527
349.503
349.48
349.457
349.435
349.413
349.392
349.371
349.351
349.332
349.312
349.294
349.276
349.258
349.24
349.224
349.207
349.191
349.176
349.16
349.146
349.131
349.118
349.104
349.091
349.079
349.066
349.055
349.043
349.032
349.022
349.011
349.002
348.992
348.983
348.975
348.967
348.959
348.951
348.944
348.938
348.932
348.926
348.92
348.916
348.911
348.907
348.903
348.9
348.897
348.894
348.892
348.89
348.889
348.887
348.887
348.887
388.63
374.905
367.284
362.854
360.078
358.205
356.86
355.845
355.049
354.405
353.87
353.417
353.026
352.684
352.38
352.107
351.861
351.635
351.428
351.236
351.058
350.89
350.733
350.584
350.443
350.309
350.181
350.059
349.942
349.829
349.72
349.616
349.515
349.417
349.322
349.23
349.141
349.055
348.971
348.889
348.809
348.732
348.656
348.582
348.51
348.44
348.372
348.305
348.24
348.177
348.115
348.055
347.996
347.938
347.882
347.827
347.774
347.722
347.671
347.622
347.574
347.527
347.482
347.438
347.395
347.354
347.313
347.274
347.236
347.2
347.164
347.13
347.097
347.065
347.035
347.006
346.977
346.951
346.925
346.9
346.877
346.855
346.834
346.814
346.796
346.778
346.762
346.747
346.734
346.721
346.71
346.699
346.69
346.683
346.676
346.671
346.666
346.663
346.661
346.661
393.257
382.401
374.737
369.458
365.757
363.075
361.061
359.497
358.246
357.22
356.36
355.626
354.99
354.43
353.932
353.484
353.078
352.706
352.364
352.047
351.751
351.473
351.212
350.966
350.732
350.509
350.297
350.093
349.898
349.711
349.531
349.357
349.188
349.026
348.868
348.716
348.567
348.423
348.283
348.147
348.014
347.885
347.759
347.637
347.517
347.4
347.286
347.175
347.067
346.961
346.858
346.758
346.659
346.564
346.47
346.379
346.29
346.204
346.119
346.037
345.957
345.88
345.804
345.73
345.659
345.59
345.523
345.457
345.394
345.333
345.274
345.217
345.163
345.11
345.059
345.01
344.963
344.918
344.876
344.835
344.796
344.759
344.724
344.691
344.66
344.632
344.605
344.58
344.557
344.536
344.517
344.5
344.485
344.472
344.461
344.452
344.445
344.44
344.437
344.435
395.255
386.704
379.806
374.485
370.417
367.278
364.812
362.835
361.218
359.869
358.725
357.739
356.877
356.115
355.435
354.82
354.261
353.749
353.276
352.836
352.426
352.041
351.679
351.336
351.01
350.7
350.404
350.121
349.849
349.588
349.336
349.093
348.859
348.631
348.411
348.198
347.991
347.79
347.594
347.403
347.218
347.037
346.862
346.69
346.523
346.36
346.2
346.045
345.894
345.746
345.601
345.461
345.323
345.189
345.059
344.931
344.807
344.686
344.568
344.453
344.341
344.232
344.127
344.024
343.924
343.827
343.733
343.642
343.553
343.468
343.386
343.306
343.229
343.155
343.084
343.016
342.95
342.887
342.827
342.77
342.716
342.664
342.616
342.57
342.526
342.486
342.448
342.414
342.381
342.352
342.326
342.302
342.281
342.263
342.247
342.235
342.225
342.218
342.213
342.212
396.314
389.354
383.297
378.259
374.149
370.808
368.075
365.815
363.922
362.315
360.932
359.727
358.666
357.721
356.872
356.102
355.4
354.753
354.155
353.598
353.078
352.589
352.127
351.69
351.275
350.879
350.501
350.139
349.792
349.457
349.135
348.824
348.523
348.232
347.95
347.677
347.411
347.153
346.902
346.658
346.42
346.188
345.962
345.742
345.527
345.318
345.114
344.914
344.72
344.53
344.344
344.164
343.987
343.815
343.647
343.484
343.324
343.168
343.017
342.869
342.726
342.586
342.45
342.318
342.19
342.065
341.944
341.827
341.714
341.604
341.498
341.396
341.297
341.202
341.111
341.023
340.939
340.858
340.781
340.707
340.638
340.571
340.509
340.45
340.394
340.342
340.294
340.249
340.208
340.17
340.136
340.106
340.079
340.055
340.035
340.019
340.006
339.997
339.992
339.99
396.963
391.102
385.769
381.105
377.113
373.73
370.865
368.429
366.341
364.537
362.961
361.573
360.339
359.232
358.231
357.319
356.483
355.711
354.995
354.326
353.7
353.11
352.553
352.025
351.523
351.043
350.585
350.146
349.724
349.317
348.926
348.547
348.182
347.827
347.484
347.151
346.827
346.513
346.207
345.909
345.619
345.337
345.061
344.793
344.531
344.275
344.026
343.783
343.545
343.314
343.087
342.867
342.651
342.441
342.237
342.037
341.842
341.652
341.467
341.287
341.111
340.941
340.775
340.614
340.457
340.305
340.157
340.014
339.876
339.742
339.612
339.487
339.367
339.251
339.139
339.032
338.929
338.831
338.737
338.647
338.562
338.481
338.404
338.332
338.264
338.201
338.142
338.087
338.037
337.991
337.949
337.912
337.879
337.85
337.826
337.806
337.791
337.779
337.773
337.77
397.399
392.322
387.574
383.278
379.47
376.135
373.228
370.695
368.479
366.53
364.805
363.268
361.887
360.639
359.503
358.463
357.504
356.616
355.789
355.015
354.288
353.602
352.953
352.337
351.75
351.19
350.653
350.138
349.643
349.166
348.706
348.262
347.832
347.415
347.012
346.62
346.239
345.868
345.508
345.157
344.816
344.483
344.158
343.841
343.533
343.231
342.937
342.65
342.37
342.097
341.83
341.57
341.316
341.068
340.826
340.591
340.361
340.137
339.918
339.706
339.499
339.297
339.101
338.911
338.726
338.546
338.372
338.203
338.04
337.882
337.729
337.581
337.439
337.302
337.17
337.043
336.922
336.806
336.695
336.589
336.488
336.393
336.302
336.217
336.137
336.062
335.992
335.928
335.868
335.814
335.765
335.721
335.682
335.648
335.62
335.596
335.578
335.565
335.557
335.554
397.71
393.211
388.93
384.962
381.354
378.112
375.219
372.644
370.35
368.301
366.463
364.806
363.304
361.936
360.681
359.526
358.457
357.461
356.532
355.659
354.837
354.06
353.324
352.623
351.954
351.315
350.703
350.114
349.548
349.002
348.476
347.966
347.473
346.995
346.532
346.082
345.644
345.219
344.805
344.401
344.009
343.626
343.252
342.888
342.533
342.186
341.848
341.517
341.195
340.88
340.573
340.273
339.981
339.695
339.417
339.145
338.88
338.622
338.371
338.126
337.887
337.655
337.429
337.21
336.997
336.79
336.589
336.395
336.206
336.024
335.848
335.678
335.514
335.356
335.204
335.058
334.918
334.784
334.656
334.534
334.418
334.308
334.204
334.105
334.013
333.927
333.846
333.772
333.703
333.641
333.584
333.533
333.489
333.45
333.417
333.39
333.369
333.353
333.344
333.341
397.942
393.881
389.972
386.287
382.871
379.741
376.894
374.314
371.978
369.863
367.942
366.191
364.59
363.12
361.763
360.507
359.337
358.245
357.22
356.256
355.345
354.482
353.662
352.88
352.133
351.418
350.732
350.073
349.437
348.824
348.232
347.659
347.104
346.566
346.044
345.537
345.043
344.564
344.096
343.641
343.198
342.765
342.344
341.932
341.531
341.139
340.757
340.383
340.019
339.663
339.316
338.977
338.646
338.323
338.008
337.701
337.401
337.109
336.825
336.548
336.278
336.015
335.76
335.511
335.27
335.036
334.809
334.589
334.376
334.169
333.97
333.777
333.592
333.413
333.241
333.076
332.917
332.766
332.621
332.483
332.351
332.227
332.109
331.997
331.893
331.795
331.704
331.62
331.542
331.472
331.407
331.35
331.299
331.255
331.218
331.187
331.163
331.146
331.135
331.132
398.121
394.4
390.789
387.345
384.104
381.089
378.302
375.74
373.388
371.232
369.251
367.429
365.748
364.193
362.748
361.403
360.144
358.964
357.852
356.803
355.809
354.864
353.965
353.107
352.285
351.497
350.74
350.011
349.309
348.631
347.975
347.34
346.724
346.127
345.547
344.984
344.436
343.902
343.382
342.876
342.383
341.901
341.432
340.974
340.527
340.09
339.664
339.248
338.842
338.446
338.059
337.681
337.312
336.952
336.6
336.258
335.924
335.598
335.281
334.971
334.67
334.377
334.092
333.815
333.546
333.285
333.032
332.786
332.548
332.318
332.095
331.88
331.673
331.474
331.282
331.097
330.92
330.751
330.589
330.435
330.289
330.15
330.018
329.894
329.777
329.668
329.567
329.472
329.386
329.307
329.235
329.171
329.114
329.065
329.024
328.989
328.963
328.943
328.932
328.927
398.261
394.811
391.442
388.199
385.114
382.207
379.488
376.956
374.606
372.426
370.404
368.528
366.783
365.157
363.638
362.214
360.877
359.617
358.426
357.298
356.227
355.206
354.233
353.301
352.408
351.55
350.725
349.93
349.162
348.42
347.702
347.007
346.332
345.677
345.041
344.422
343.82
343.234
342.663
342.106
341.563
341.034
340.517
340.013
339.521
339.04
338.571
338.112
337.665
337.228
336.801
336.385
335.978
335.581
335.194
334.816
334.448
334.088
333.738
333.397
333.065
332.742
332.428
332.122
331.825
331.537
331.258
330.986
330.724
330.47
330.224
329.987
329.759
329.538
329.327
329.123
328.928
328.741
328.563
328.393
328.231
328.077
327.932
327.795
327.666
327.546
327.434
327.33
327.234
327.147
327.068
326.997
326.935
326.88
326.834
326.797
326.767
326.746
326.733
326.728
398.373
395.14
391.968
388.895
385.946
383.14
380.488
377.994
375.654
373.464
371.415
369.498
367.702
366.017
364.434
362.943
361.536
360.204
358.942
357.741
356.598
355.507
354.463
353.462
352.501
351.576
350.686
349.826
348.996
348.193
347.414
346.66
345.928
345.216
344.525
343.852
343.197
342.559
341.937
341.33
340.739
340.162
339.599
339.049
338.512
337.987
337.475
336.975
336.487
336.01
335.544
335.089
334.645
334.212
333.789
333.376
332.973
332.581
332.198
331.826
331.463
331.11
330.766
330.432
330.108
329.793
329.487
329.191
328.904
328.626
328.358
328.099
327.849
327.608
327.376
327.154
326.94
326.736
326.541
326.355
326.178
326.01
325.851
325.701
325.561
325.429
325.306
325.193
325.088
324.993
324.906
324.829
324.76
324.701
324.651
324.61
324.577
324.554
324.54
324.535
398.463
395.407
392.399
389.467
386.636
383.921
381.333
378.878
376.555
374.363
372.297
370.349
368.513
366.78
365.142
363.592
362.123
360.727
359.399
358.133
356.923
355.765
354.655
353.589
352.563
351.575
350.622
349.701
348.81
347.947
347.11
346.298
345.51
344.743
343.998
343.272
342.565
341.876
341.204
340.549
339.91
339.286
338.676
338.081
337.5
336.933
336.379
335.837
335.308
334.792
334.287
333.794
333.313
332.843
332.385
331.937
331.501
331.076
330.661
330.257
329.863
329.481
329.108
328.746
328.394
328.052
327.721
327.399
327.088
326.787
326.496
326.214
325.943
325.682
325.431
325.189
324.958
324.736
324.524
324.322
324.13
323.948
323.776
323.613
323.461
323.318
323.185
323.061
322.948
322.844
322.751
322.667
322.592
322.528
322.473
322.429
322.394
322.368
322.353
322.347
398.537
395.626
392.752
389.941
387.21
384.576
382.047
379.63
377.328
375.14
373.063
371.093
369.224
367.451
365.767
364.165
362.641
361.187
359.8
358.472
357.201
355.981
354.809
353.681
352.594
351.546
350.532
349.552
348.603
347.682
346.789
345.922
345.078
344.258
343.46
342.682
341.924
341.185
340.465
339.762
339.075
338.405
337.75
337.111
336.487
335.876
335.28
334.698
334.129
333.573
333.03
332.5
331.982
331.476
330.983
330.501
330.031
329.573
329.126
328.691
328.267
327.855
327.453
327.063
326.684
326.316
325.959
325.612
325.277
324.952
324.638
324.335
324.043
323.762
323.491
323.23
322.981
322.742
322.514
322.296
322.089
321.893
321.707
321.532
321.367
321.213
321.07
320.937
320.814
320.703
320.602
320.511
320.431
320.362
320.303
320.254
320.217
320.19
320.173
320.167
398.598
395.806
393.045
390.335
387.691
385.126
382.651
380.271
377.989
375.808
373.725
371.738
369.843
368.036
366.312
364.666
363.093
361.587
360.145
358.762
357.434
356.156
354.926
353.74
352.595
351.488
350.417
349.38
348.374
347.399
346.451
345.529
344.633
343.76
342.911
342.082
341.275
340.487
339.718
338.968
338.235
337.52
336.821
336.138
335.47
334.818
334.181
333.558
332.949
332.355
331.774
331.206
330.652
330.111
329.582
329.067
328.564
328.073
327.595
327.129
326.675
326.233
325.803
325.385
324.979
324.584
324.201
323.83
323.471
323.123
322.787
322.462
322.149
321.847
321.557
321.278
321.01
320.754
320.509
320.276
320.054
319.844
319.645
319.457
319.28
319.115
318.961
318.819
318.688
318.568
318.46
318.363
318.277
318.202
318.139
318.088
318.047
318.018
318
317.994
398.649
395.956
393.289
390.663
388.093
385.589
383.161
380.815
378.554
376.38
374.295
372.295
370.379
368.543
366.784
365.098
363.481
361.929
360.437
359.003
357.621
356.29
355.005
353.764
352.564
351.402
350.277
349.185
348.125
347.096
346.095
345.121
344.174
343.25
342.35
341.472
340.616
339.781
338.965
338.168
337.39
336.63
335.887
335.161
334.451
333.758
333.08
332.417
331.769
331.136
330.518
329.913
329.323
328.747
328.184
327.635
327.099
326.576
326.066
325.57
325.086
324.615
324.156
323.711
323.278
322.857
322.449
322.054
321.67
321.299
320.941
320.594
320.26
319.938
319.629
319.331
319.046
318.773
318.512
318.263
318.027
317.802
317.589
317.389
317.201
317.025
316.861
316.709
316.569
316.441
316.326
316.222
316.13
316.051
315.984
315.929
315.885
315.854
315.835
315.828
398.691
396.081
393.492
390.938
388.43
385.978
383.592
381.275
379.034
376.869
374.782
372.772
370.838
368.978
367.188
365.467
363.811
362.216
360.679
359.197
357.766
356.384
355.048
353.755
352.503
351.289
350.111
348.967
347.855
346.774
345.722
344.698
343.7
342.727
341.778
340.852
339.949
339.066
338.204
337.362
336.54
335.736
334.95
334.181
333.43
332.695
331.977
331.275
330.589
329.918
329.263
328.622
327.996
327.385
326.788
326.205
325.637
325.082
324.541
324.014
323.501
323.001
322.515
322.042
321.582
321.136
320.703
320.282
319.876
319.482
319.101
318.733
318.379
318.037
317.708
317.392
317.089
316.799
316.522
316.258
316.006
315.768
315.542
315.329
315.129
314.942
314.768
314.607
314.458
314.322
314.199
314.089
313.992
313.908
313.836
313.778
313.732
313.699
313.679
313.671
398.726
396.185
393.661
391.167
388.712
386.305
383.954
381.664
379.439
377.283
375.195
373.177
371.228
369.346
367.53
365.777
364.085
362.451
360.872
359.346
357.87
356.44
355.056
353.714
352.412
351.148
349.92
348.726
347.564
346.433
345.332
344.259
343.212
342.191
341.195
340.222
339.272
338.344
337.437
336.55
335.684
334.837
334.008
333.198
332.406
331.631
330.874
330.133
329.409
328.7
328.008
327.332
326.671
326.025
325.394
324.779
324.178
323.592
323.02
322.463
321.921
321.392
320.878
320.378
319.892
319.42
318.962
318.518
318.087
317.671
317.268
316.879
316.504
316.142
315.794
315.46
315.14
314.833
314.539
314.26
313.994
313.742
313.503
313.278
313.066
312.868
312.684
312.513
312.356
312.212
312.082
311.966
311.863
311.774
311.698
311.636
311.587
311.553
311.531
311.523
398.755
396.271
393.802
391.358
388.947
386.579
384.258
381.991
379.781
377.631
375.543
373.517
371.554
369.653
367.813
366.031
364.307
362.637
361.019
359.452
357.933
356.46
355.03
353.641
352.292
350.981
349.705
348.462
347.253
346.074
344.925
343.804
342.71
341.643
340.6
339.581
338.586
337.613
336.662
335.732
334.823
333.933
333.064
332.213
331.38
330.566
329.769
328.99
328.228
327.483
326.755
326.043
325.347
324.668
324.004
323.356
322.723
322.106
321.504
320.917
320.345
319.788
319.247
318.72
318.207
317.71
317.227
316.759
316.305
315.866
315.442
315.032
314.636
314.255
313.888
313.536
313.198
312.875
312.565
312.271
311.99
311.724
311.472
311.235
311.012
310.803
310.608
310.428
310.263
310.111
309.974
309.851
309.743
309.649
309.569
309.503
309.452
309.415
309.393
309.385
398.779
396.342
393.919
391.516
389.143
386.806
384.511
382.263
380.065
377.921
375.832
373.8
371.825
369.906
368.043
366.235
364.48
362.777
361.124
359.518
357.959
356.444
354.971
353.538
352.144
350.787
349.465
348.177
346.921
345.696
344.501
343.334
342.195
341.082
339.994
338.931
337.891
336.875
335.881
334.908
333.957
333.026
332.115
331.224
330.352
329.499
328.664
327.847
327.048
326.267
325.503
324.756
324.026
323.313
322.616
321.936
321.272
320.624
319.991
319.375
318.775
318.19
317.621
317.067
316.529
316.007
315.499
315.007
314.531
314.069
313.623
313.192
312.777
312.376
311.991
311.62
311.265
310.925
310.6
310.29
309.995
309.715
309.451
309.201
308.967
308.747
308.543
308.353
308.179
308.02
307.876
307.747
307.632
307.534
307.45
307.381
307.327
307.288
307.265
307.256
398.799
396.401
394.015
391.647
389.305
386.994
384.72
382.487
380.3
378.16
376.069
374.03
372.043
370.108
368.224
366.392
364.609
362.875
361.188
359.547
357.949
356.395
354.881
353.407
351.97
350.569
349.203
347.871
346.57
345.301
344.061
342.85
341.666
340.509
339.377
338.27
337.188
336.129
335.093
334.078
333.086
332.114
331.164
330.233
329.322
328.43
327.558
326.704
325.869
325.052
324.253
323.471
322.708
321.961
321.232
320.52
319.824
319.146
318.484
317.839
317.21
316.597
316.001
315.421
314.858
314.31
313.779
313.263
312.764
312.28
311.813
311.361
310.925
310.505
310.101
309.713
309.341
308.984
308.644
308.319
308.01
307.716
307.439
307.177
306.931
306.701
306.487
306.288
306.106
305.939
305.787
305.652
305.533
305.429
305.341
305.269
305.212
305.172
305.147
305.138
398.815
396.45
394.094
391.754
389.437
387.148
384.891
382.67
380.49
378.353
376.26
374.214
372.215
370.265
368.361
366.505
364.696
362.933
361.214
359.539
357.906
356.314
354.761
353.247
351.769
350.327
348.919
347.544
346.201
344.888
343.605
342.351
341.124
339.924
338.75
337.601
336.476
335.375
334.298
333.243
332.21
331.199
330.209
329.239
328.29
327.361
326.452
325.561
324.69
323.838
323.004
322.189
321.392
320.613
319.851
319.108
318.382
317.673
316.982
316.308
315.651
315.011
314.388
313.782
313.193
312.621
312.065
311.526
311.004
310.499
310.01
309.538
309.083
308.644
308.221
307.815
307.426
307.053
306.697
306.357
306.034
305.727
305.437
305.163
304.906
304.666
304.441
304.234
304.043
303.868
303.71
303.569
303.443
303.335
303.243
303.167
303.109
303.066
303.04
303.031
398.828
396.489
394.158
391.841
389.544
387.271
385.027
382.816
380.641
378.505
376.409
374.356
372.346
370.379
368.457
366.58
364.745
362.954
361.206
359.498
357.831
356.203
354.614
353.061
351.544
350.062
348.614
347.198
345.813
344.459
343.134
341.838
340.569
339.328
338.112
336.922
335.756
334.615
333.497
332.402
331.33
330.28
329.251
328.244
327.257
326.291
325.345
324.419
323.513
322.626
321.758
320.909
320.079
319.268
318.475
317.7
316.944
316.205
315.485
314.782
314.098
313.431
312.781
312.15
311.536
310.939
310.36
309.798
309.254
308.726
308.217
307.724
307.249
306.791
306.351
305.927
305.521
305.132
304.76
304.406
304.069
303.749
303.446
303.16
302.892
302.641
302.407
302.191
301.991
301.809
301.644
301.496
301.366
301.253
301.157
301.078
301.016
300.972
300.945
300.935
398.839
396.52
394.208
391.909
389.628
387.369
385.135
382.93
380.758
378.621
376.521
374.46
372.438
370.457
368.516
366.617
364.759
362.942
361.164
359.426
357.727
356.065
354.44
352.851
351.296
349.776
348.288
346.833
345.408
344.014
342.648
341.312
340.003
338.72
337.465
336.234
335.029
333.848
332.691
331.557
330.446
329.358
328.291
327.246
326.223
325.221
324.239
323.278
322.336
321.415
320.514
319.632
318.77
317.926
317.102
316.297
315.511
314.743
313.994
313.263
312.551
311.858
311.182
310.525
309.886
309.265
308.663
308.078
307.511
306.963
306.432
305.92
305.425
304.949
304.49
304.049
303.626
303.222
302.835
302.466
302.114
301.781
301.466
301.169
300.889
300.628
300.384
300.159
299.951
299.761
299.59
299.436
299.3
299.182
299.082
299
298.936
298.89
298.862
298.851
398.847
396.544
394.247
391.962
389.693
387.443
385.216
383.016
380.845
378.705
376.6
374.529
372.496
370.499
368.541
366.622
364.74
362.898
361.093
359.325
357.594
355.9
354.241
352.617
351.026
349.469
347.944
346.45
344.987
343.553
342.149
340.773
339.425
338.103
336.808
335.538
334.294
333.074
331.879
330.707
329.558
328.432
327.329
326.248
325.188
324.15
323.133
322.137
321.162
320.207
319.273
318.358
317.464
316.589
315.734
314.899
314.083
313.287
312.509
311.751
311.012
310.292
309.59
308.908
308.245
307.6
306.974
306.367
305.778
305.209
304.658
304.125
303.611
303.116
302.64
302.182
301.742
301.322
300.92
300.536
300.172
299.825
299.498
299.189
298.898
298.627
298.374
298.139
297.923
297.726
297.548
297.388
297.247
297.124
297.02
296.935
296.868
296.82
296.791
296.78
398.853
396.562
394.276
392.001
389.74
387.497
385.274
383.075
380.903
378.76
376.648
374.568
372.522
370.511
368.536
366.596
364.692
362.824
360.993
359.197
357.436
355.71
354.019
352.361
350.736
349.143
347.581
346.05
344.55
343.079
341.636
340.222
338.836
337.476
336.142
334.835
333.552
332.295
331.062
329.853
328.667
327.504
326.365
325.247
324.152
323.079
322.028
320.998
319.989
319.001
318.034
317.088
316.162
315.257
314.372
313.507
312.661
311.836
311.031
310.245
309.479
308.733
308.006
307.299
306.612
305.943
305.294
304.665
304.055
303.464
302.893
302.341
301.808
301.294
300.8
300.325
299.87
299.434
299.017
298.619
298.24
297.881
297.541
297.221
296.92
296.638
296.375
296.132
295.908
295.704
295.518
295.353
295.206
295.079
294.971
294.883
294.814
294.764
294.734
294.722
398.857
396.574
394.297
392.028
389.773
387.533
385.312
383.113
380.938
378.79
376.67
374.58
372.521
370.495
368.501
366.542
364.616
362.725
360.867
359.044
357.254
355.498
353.775
352.084
350.425
348.798
347.201
345.635
344.098
342.591
341.112
339.66
338.236
336.839
335.469
334.124
332.805
331.51
330.24
328.995
327.773
326.574
325.399
324.247
323.117
322.009
320.924
319.861
318.819
317.799
316.8
315.822
314.865
313.929
313.014
312.12
311.246
310.393
309.56
308.747
307.955
307.183
306.431
305.699
304.988
304.296
303.625
302.973
302.342
301.73
301.139
300.567
300.016
299.484
298.972
298.481
298.009
297.557
297.125
296.713
296.322
295.95
295.598
295.266
294.954
294.662
294.39
294.138
293.906
293.694
293.503
293.331
293.179
293.047
292.936
292.844
292.773
292.721
292.69
292.678
398.86
396.582
394.309
392.045
389.791
387.553
385.332
383.13
380.951
378.796
376.667
374.566
372.494
370.453
368.442
366.463
364.515
362.601
360.718
358.868
357.05
355.265
353.511
351.789
350.097
348.437
346.806
345.205
343.633
342.09
340.575
339.088
337.628
336.194
334.787
333.406
332.051
330.72
329.415
328.133
326.876
325.642
324.432
323.246
322.082
320.94
319.822
318.725
317.651
316.599
315.569
314.56
313.573
312.607
311.662
310.739
309.837
308.956
308.096
307.257
306.438
305.641
304.864
304.108
303.373
302.658
301.964
301.291
300.639
300.007
299.395
298.805
298.234
297.685
297.156
296.648
296.16
295.693
295.246
294.821
294.415
294.031
293.667
293.324
293.001
292.699
292.418
292.158
291.918
291.699
291.5
291.323
291.166
291.03
290.914
290.82
290.746
290.692
290.66
290.648
398.861
396.586
394.315
392.051
389.798
387.559
385.335
383.129
380.944
378.782
376.643
374.531
372.445
370.387
368.359
366.36
364.392
362.454
360.547
358.671
356.826
355.012
353.228
351.475
349.752
348.059
346.396
344.761
343.155
341.578
340.028
338.505
337.01
335.541
334.099
332.683
331.292
329.926
328.585
327.269
325.977
324.709
323.465
322.244
321.047
319.873
318.721
317.593
316.487
315.403
314.342
313.302
312.285
311.29
310.317
309.365
308.435
307.526
306.639
305.774
304.93
304.108
303.306
302.527
301.768
301.031
300.315
299.62
298.947
298.294
297.663
297.054
296.465
295.898
295.352
294.827
294.324
293.842
293.381
292.941
292.523
292.126
291.75
291.396
291.062
290.751
290.46
290.191
289.944
289.718
289.513
289.329
289.167
289.027
288.907
288.81
288.733
288.678
288.645
288.632
398.861
396.586
394.314
392.05
389.795
387.552
385.324
383.113
380.92
378.749
376.6
374.475
372.375
370.301
368.255
366.237
364.247
362.287
360.356
358.455
356.583
354.741
352.928
351.146
349.392
347.667
345.972
344.304
342.665
341.054
339.47
337.914
336.384
334.881
333.404
331.953
330.528
329.128
327.753
326.402
325.077
323.775
322.497
321.244
320.013
318.807
317.623
316.463
315.326
314.211
313.119
312.05
311.003
309.979
308.977
307.998
307.04
306.105
305.191
304.3
303.431
302.584
301.758
300.955
300.173
299.414
298.676
297.96
297.266
296.594
295.943
295.315
294.708
294.124
293.561
293.02
292.501
292.004
291.528
291.075
290.644
290.234
289.847
289.481
289.138
288.817
288.517
288.24
287.984
287.751
287.54
287.351
287.184
287.038
286.916
286.815
286.736
286.679
286.645
286.632
398.86
396.583
394.308
392.041
389.782
387.535
385.3
383.082
380.881
378.699
376.539
374.4
372.286
370.196
368.132
366.094
364.084
362.101
360.146
358.22
356.322
354.453
352.613
350.801
349.017
347.262
345.535
343.836
342.165
340.521
338.904
337.314
335.751
334.215
332.704
331.219
329.76
328.326
326.918
325.534
324.175
322.84
321.53
320.244
318.981
317.743
316.528
315.337
314.168
313.024
311.902
310.803
309.728
308.675
307.645
306.637
305.653
304.691
303.752
302.835
301.941
301.069
300.22
299.393
298.589
297.807
297.048
296.311
295.597
294.905
294.236
293.589
292.964
292.362
291.783
291.226
290.691
290.179
289.69
289.223
288.779
288.357
287.958
287.582
287.228
286.897
286.589
286.303
286.04
285.8
285.582
285.387
285.215
285.066
284.939
284.835
284.754
284.696
284.66
284.647
398.858
396.576
394.298
392.025
389.761
387.507
385.265
383.038
380.828
378.635
376.462
374.31
372.18
370.074
367.991
365.934
363.903
361.898
359.92
357.969
356.046
354.15
352.282
350.442
348.629
346.844
345.087
343.357
341.654
339.978
338.329
336.707
335.111
333.542
331.998
330.481
328.989
327.522
326.081
324.664
323.273
321.906
320.563
319.245
317.951
316.682
315.436
314.214
313.016
311.841
310.69
309.562
308.458
307.377
306.32
305.285
304.274
303.286
302.321
301.379
300.46
299.565
298.692
297.843
297.016
296.212
295.432
294.674
293.94
293.229
292.54
291.875
291.233
290.614
290.018
289.445
288.895
288.369
287.866
287.386
286.929
286.495
286.085
285.697
285.334
284.993
284.676
284.382
284.111
283.864
283.64
283.44
283.263
283.109
282.979
282.872
282.788
282.728
282.692
282.678
398.855
396.568
394.283
392.004
389.732
387.47
385.22
382.983
380.762
378.557
376.371
374.205
372.059
369.936
367.835
365.759
363.707
361.68
359.679
357.704
355.755
353.833
351.938
350.07
348.229
346.415
344.628
342.868
341.134
339.427
337.747
336.093
334.465
332.864
331.288
329.739
328.214
326.715
325.242
323.794
322.37
320.972
319.598
318.249
316.924
315.623
314.347
313.095
311.867
310.663
309.483
308.327
307.195
306.087
305.002
303.941
302.904
301.89
300.9
299.933
298.99
298.071
297.175
296.303
295.454
294.629
293.828
293.05
292.296
291.565
290.858
290.175
289.515
288.88
288.267
287.679
287.114
286.573
286.056
285.563
285.094
284.648
284.226
283.829
283.455
283.105
282.779
282.477
282.199
281.945
281.715
281.509
281.327
281.169
281.035
280.925
280.839
280.778
280.74
280.726
398.852
396.556
394.264
391.977
389.697
387.426
385.166
382.918
380.685
378.467
376.267
374.086
371.924
369.784
367.665
365.569
363.496
361.448
359.424
357.425
355.452
353.504
351.583
349.687
347.818
345.976
344.159
342.37
340.606
338.869
337.158
335.473
333.814
332.182
330.575
328.993
327.438
325.907
324.402
322.923
321.468
320.039
318.634
317.254
315.899
314.569
313.263
311.981
310.724
309.492
308.283
307.099
305.939
304.804
303.692
302.605
301.542
300.503
299.488
298.497
297.53
296.588
295.669
294.775
293.904
293.058
292.236
291.438
290.665
289.915
289.19
288.489
287.812
287.16
286.531
285.928
285.348
284.793
284.262
283.756
283.274
282.817
282.384
281.976
281.592
281.233
280.898
280.588
280.303
280.042
279.806
279.595
279.408
279.246
279.108
278.995
278.907
278.844
278.805
278.791
398.847
396.543
394.242
391.945
389.656
387.374
385.103
382.844
380.598
378.367
376.152
373.956
371.777
369.619
367.482
365.366
363.273
361.202
359.156
357.134
355.136
353.163
351.216
349.294
347.398
345.527
343.682
341.864
340.071
338.304
336.563
334.848
333.159
331.495
329.858
328.246
326.659
325.098
323.562
322.052
320.567
319.107
317.672
316.262
314.878
313.518
312.183
310.872
309.587
308.326
307.09
305.878
304.691
303.529
302.391
301.278
300.19
299.126
298.087
297.072
296.082
295.116
294.175
293.259
292.367
291.5
290.658
289.84
289.047
288.279
287.535
286.817
286.123
285.454
284.81
284.191
283.597
283.028
282.484
281.965
281.471
281.002
280.558
280.14
279.746
279.378
279.035
278.717
278.424
278.157
277.915
277.698
277.506
277.34
277.199
277.083
276.993
276.928
276.888
276.874
398.842
396.528
394.217
391.91
389.609
387.316
385.033
382.761
380.502
378.257
376.027
373.814
371.619
369.443
367.287
365.152
363.038
360.946
358.877
356.832
354.81
352.812
350.839
348.891
346.968
345.07
343.198
341.351
339.529
337.733
335.963
334.218
332.499
330.806
329.138
327.496
325.879
324.288
322.723
321.182
319.667
318.178
316.713
315.274
313.86
312.471
311.107
309.769
308.455
307.167
305.903
304.665
303.451
302.263
301.099
299.961
298.847
297.759
296.696
295.657
294.644
293.656
292.693
291.755
290.842
289.955
289.092
288.255
287.443
286.657
285.895
285.16
284.449
283.764
283.105
282.471
281.862
281.279
280.722
280.19
279.684
279.204
278.749
278.32
277.917
277.54
277.188
276.863
276.563
276.289
276.041
275.819
275.622
275.452
275.308
275.189
275.097
275.03
274.989
274.974
398.837
396.512
394.189
391.87
389.558
387.253
384.957
382.672
380.398
378.138
375.893
373.664
371.452
369.257
367.082
364.927
362.792
360.679
358.588
356.52
354.474
352.452
350.454
348.48
346.531
344.606
342.706
340.831
338.982
337.157
335.358
333.585
331.837
330.114
328.417
326.745
325.099
323.479
321.883
320.314
318.769
317.251
315.757
314.289
312.847
311.43
310.038
308.671
307.33
306.015
304.724
303.459
302.22
301.005
299.817
298.653
297.515
296.403
295.316
294.254
293.218
292.208
291.223
290.264
289.33
288.423
287.541
286.684
285.854
285.049
284.27
283.518
282.791
282.09
281.415
280.766
280.144
279.547
278.977
278.432
277.915
277.423
276.958
276.519
276.106
275.72
275.36
275.027
274.72
274.439
274.185
273.958
273.757
273.582
273.435
273.313
273.219
273.151
273.109
273.094
398.831
396.494
394.159
391.828
389.503
387.184
384.875
382.575
380.287
378.012
375.751
373.505
371.275
369.063
366.868
364.693
362.538
360.403