/*--------------------------------*- C++ -*----------------------------------*\
| =========                 |                                                 |
| \\      /  F ield         | OpenFOAM: The Open Source CFD Toolbox           |
|  \\    /   O peration     | Version:  2406                                  |
|   \\  /    A nd           | Website:  www.openfoam.com                      |
|    \\/     M anipulation  |                                                 |
\*---------------------------------------------------------------------------*/
FoamFile
{
    version     2.0;
    format      ascii;
    arch        "LSB;label=32;scalar=64";
    class       surfaceScalarField;
    location    "15.75";
    object      phi;
}
// * * * * * * * * * * * * * * * * * * * * * * * * * * * * * * * * * * * * * //

dimensions      [0 3 -1 0 0 0 0];

oriented        oriented;

internalField   nonuniform List<scalar> 
101088
(
-2.9318157e-05
1.7369547e-05
-1.1160584e-05
-1.5205919e-05
-4.5990608e-05
7.3923109e-05
-4.5681983e-05
-6.5186487e-05
-3.5970342e-05
0.00017494455
-0.00010308009
-0.00015481049
1.0209571e-05
0.0003256759
-0.00017844925
-0.00028868616
8.3461239e-05
0.00051148964
-0.00024839166
-0.00045419747
0.00014830248
0.00069685674
-0.0002789924
-0.00061846409
0.00015984768
0.00084022858
-0.00025335268
-0.00074188833
0.00010064825
0.00090978025
-0.00019026219
-0.00079802218
0.00090167219
-0.00012737672
-0.00078060835
-1.2925903e-05
-3.5392419e-05
1.9214219e-05
-1.3453767e-05
-5.382569e-05
8.0969523e-05
-5.4300513e-05
-3.7247663e-05
0.00018986132
-0.0001207214
2.6339159e-05
0.00035084348
-0.00020523716
0.00012449099
0.00054872915
-0.000279536
0.0002130834
0.00074774968
-0.00030604302
0.00024078867
0.00090379604
-0.00026853957
0.00019790439
0.00098152879
-0.00020113335
0.00097506017
-0.00013281754
0.00010454745
-4.1344409e-05
2.0481732e-05
-1.5691157e-05
-6.1131872e-05
8.5503832e-05
-6.2555091e-05
-3.8422825e-05
0.00019882046
-0.00013715143
3.9421532e-05
0.00036474047
-0.00022917208
0.00015602814
0.00056748542
-0.00030517261
0.00026023748
0.00077205358
-0.00032467732
0.00030017945
0.00093235202
-0.00027768038
0.00027075952
0.0010118595
-0.00020519503
0.0010034397
-0.00013275445
0.00019243826
-4.7097697e-05
2.0990517e-05
-1.773634e-05
-6.8209049e-05
8.6935289e-05
-6.9912484e-05
-3.9983169e-05
0.00020072196
-0.00015132392
5.0019465e-05
0.00036594682
-0.00024872462
0.00018057662
0.00056672801
-0.00032395821
0.00029327345
0.00076908769
-0.00033360831
0.0003405011
0.00092593047
-0.00027937335
0.0003189851
0.0010033989
-0.00020328802
0.00099236235
-0.0001286781
0.00024943664
-5.250231e-05
2.0570678e-05
-1.9520522e-05
-7.4922456e-05
8.4795309e-05
-7.6173831e-05
-4.2111589e-05
0.00019489451
-0.00016296856
5.7460728e-05
0.00035384605
-0.00026376508
0.00019757013
0.00054619426
-0.00033628814
0.00031372634
0.00073907758
-0.00033539181
0.00036427217
0.00088702757
-0.00027674828
0.00034611046
0.00095974459
-0.00019721006
0.00094624763
-0.00012212131
0.00028176356
-5.7784774e-05
1.9436813e-05
-2.1048544e-05
-8.2346515e-05
7.971796e-05
-8.13899e-05
-4.7140679e-05
0.00018240687
-0.00017230894
5.8269359e-05
0.00032980099
-0.00027483738
0.00020288402
0.00050747289
-0.00034308312
0.00031963534
0.00068460856
-0.00033431283
0.00037100284
0.00081915474
-0.00027211703
0.00035363507
0.00088399816
-0.00018838901
0.00086861628
-0.00011414112
0.00029283847
-6.2425786e-05
1.7492322e-05
-2.2284352e-05
-8.8874004e-05
7.1490172e-05
-8.5481952e-05
-5.1907737e-05
0.00016311657
-0.00017928816
5.7396152e-05
0.00029408144
-0.0002821546
0.00020323713
0.00045154651
-0.00034497312
0.00031818602
0.00060729707
-0.00032937988
0.00036745063
0.00072485011
-0.00026371
0.00034866245
0.00078030758
-0.00017802354
0.00076427791
-0.00010554877
0.00028931059
-6.6481626e-05
1.483234e-05
-2.3255347e-05
-9.4839514e-05
6.0475203e-05
-8.860935e-05
-5.7004577e-05
0.00013774494
-0.00018435325
5.4485072e-05
0.00024791485
-0.00028675258
0.00019911842
0.00038018908
-0.00034346379
0.00031081314
0.00050989922
-0.00032260304
0.00035651276
0.00060762515
-0.00025397929
0.0003352861
0.00065287658
-0.00016748772
0.00063775115
-9.7189948e-05
0.00027620256
-6.987054e-05
1.1592549e-05
-2.3992508e-05
-0.0001000611
4.7212194e-05
-9.0928667e-05
-6.2074937e-05
0.00010742017
-0.00018793804
5.0369548e-05
0.00019308055
-0.00028950301
0.00019230649
0.0002955362
-0.00033973148
0.00030028165
0.00039583566
-0.00031555955
0.00034192508
0.00047168662
-0.00024459938
0.00031790918
0.00050626268
-0.00015790205
0.00049354663
-8.9766889e-05
0.00025845233
-7.2558755e-05
7.9695477e-06
-2.4518868e-05
-0.00010447115
3.2406134e-05
-9.2551241e-05
-6.6999329e-05
7.361936e-05
-0.00019033741
4.5122169e-05
0.00013211861
-0.0002910006
0.00018474018
0.00020190154
-0.00033771165
0.00028926756
0.00026987619
-0.00031026887
0.00032692287
0.00032182378
-0.00023671153
0.00030030707
0.00034525459
-0.00015010959
0.00033613207
-8.3827887e-05
0.00024029464
-7.4345353e-05
4.0485832e-06
-2.4848807e-05
-0.00010741282
1.6451616e-05
-9.3525381e-05
-7.0439052e-05
3.7364136e-05
-0.00019166535
4.099338e-05
6.7033012e-05
-0.00029150056
0.00017851749
0.00010237452
-0.00033591183
0.00028067263
0.00013673172
-0.00030739002
0.00031496474
0.00016300508
-0.00023102127
0.00028630277
0.00017480605
-0.00014467378
0.00017005404
-7.9758432e-05
0.00022576927
-7.5278937e-05
-4.213558e-11
-2.5006333e-05
-0.00010902273
-8.7638537e-11
-9.4005716e-05
-7.2414135e-05
-4.1939754e-12
-0.0001923516
3.8619297e-05
-4.9375421e-12
-0.00029183342
0.00017511635
-2.5661679e-10
-0.0003351527
0.00027606949
-3.573411e-10
-0.00030595888
0.00030856489
-5.2293095e-10
-0.00022836405
0.00027869803
-4.7984845e-10
-0.00014213923
7.3255519e-10
-7.7874904e-05
0.00021770337
-7.5278372e-05
-4.0485848e-06
-2.5006329e-05
-0.00010902156
-1.6451578e-05
-9.4005701e-05
-7.2413546e-05
-3.7363951e-05
-0.00019235158
3.8619406e-05
-6.7032993e-05
-0.00029183339
0.00017511666
-0.0001023751
-0.00033515266
0.00027606957
-0.00013673261
-0.00030595885
0.00030856496
-0.00016300645
-0.00022836404
0.00027869846
-0.00017480741
-0.00014213924
-0.00017005327
-7.7874931e-05
0.00021770346
-7.4344101e-05
-7.9693847e-06
-2.4848806e-05
-0.00010741047
-3.2405665e-05
-9.3525379e-05
-7.0438346e-05
-7.3618869e-05
-0.00019166536
4.0993316e-05
-0.00013211868
-0.00029150057
0.00017851828
-0.00020190232
-0.00033591184
0.00028067282
-0.0002698775
-0.00030739005
0.00031496494
-0.00032182587
-0.00023102131
0.00028630389
-0.00034525682
-0.00014467383
-0.00033613288
-7.9758503e-05
0.00022576937
-7.2558062e-05
-1.1592388e-05
-2.4518865e-05
-0.00010447041
-4.7211793e-05
-9.2551232e-05
-6.7000456e-05
-0.00010742007
-0.00019033741
4.5121362e-05
-0.00019308106
-0.00029100057
0.00018474106
-0.00029553715
-0.00033771162
0.00028926759
-0.00039583752
-0.00031026887
0.00032692306
-0.0004716895
-0.00023671156
0.00030030846
-0.00050626571
-0.00015010963
-0.000493549
-8.3827961e-05
0.0002402945
-6.9871215e-05
-1.4832466e-05
-2.3992509e-05
-0.00010006283
-6.0475635e-05
-9.0928667e-05
-6.2077185e-05
-0.00013774569
-0.00018793804
5.0368598e-05
-0.00024791536
-0.00028950299
0.00019230729
-0.00038018996
-0.0003397315
0.00030028154
-0.00050990181
-0.00031555958
0.00034192532
-0.00060762874
-0.0002445994
0.0003179105
-0.00065288008
-0.00015790207
-0.00063775443
-8.9766938e-05
0.00025845199
-6.6482002e-05
-1.7492398e-05
-2.3255349e-05
-9.4839777e-05
-7.1490454e-05
-8.8609356e-05
-5.7004365e-05
-0.00016311659
-0.00018435327
5.44846e-05
-0.00029408099
-0.00028675263
0.00019911874
-0.00045154749
-0.00034346387
0.00031081298
-0.0006073004
-0.00032260305
0.00035651304
-0.000724854
-0.00025397928
0.00033528714
-0.00078031122
-0.00016748771
-0.00076428128
-9.7189967e-05
0.00027620226
-6.2425562e-05
-1.9436923e-05
-2.2284357e-05
-8.8873473e-05
-7.971841e-05
-8.5481974e-05
-5.1907726e-05
-0.00018240755
-0.00017928822
5.7393744e-05
-0.00032980194
-0.00028215467
0.00020323631
-0.00050747456
-0.00034497318
0.00031818612
-0.00068461121
-0.00032937985
0.00036745096
-0.0008191576
-0.00026370996
0.00034866328
-0.0008840012
-0.00017802349
-0.00086861892
-0.00010554876
0.00028931039
-5.7785049e-05
-2.0570784e-05
-2.104855e-05
-8.2347266e-05
-8.4795794e-05
-8.1389926e-05
-4.7141836e-05
-0.00019489555
-0.00017230899
5.8266888e-05
-0.00035384669
-0.00027483741
0.00020288319
-0.00054619343
-0.00034308319
0.000319636
-0.00073907728
-0.00033431286
0.00037100278
-0.00088702821
-0.00027211704
0.00035363539
-0.0009597461
-0.00018838897
-0.00094624943
-0.0001141411
0.0002928377
-5.2501972e-05
-2.0990447e-05
-1.9520518e-05
-7.4920693e-05
-8.6935022e-05
-7.6173819e-05
-4.2108249e-05
-0.00020072157
-0.00016296854
5.7462528e-05
-0.00036594633
-0.00026376509
0.00019756943
-0.0005667278
-0.00033628821
0.00031372667
-0.00076908837
-0.00033539183
0.00036427072
-0.00092593168
-0.00027674827
0.00034610972
-0.0010033999
-0.00019721001
-0.00099236418
-0.00012212126
0.00028176215
-4.7096862e-05
-2.0481647e-05
-1.7736332e-05
-6.8206584e-05
-8.5503599e-05
-6.9912457e-05
-3.9980216e-05
-0.0001988204
-0.00015132387
5.0020285e-05
-0.00036474092
-0.00024872457
0.00018057504
-0.00056748578
-0.00032395813
0.00029327277
-0.00077205398
-0.00033360829
0.00034049896
-0.00093235544
-0.00027937332
0.00031898412
-0.0010118608
-0.00020328795
-0.0010034393
-0.00012867803
0.00024943555
-4.1344104e-05
-1.9214261e-05
-1.569115e-05
-6.113077e-05
-8.0969726e-05
-6.2555068e-05
-3.8421144e-05
-0.00018986196
-0.00013715139
3.9422792e-05
-0.0003508449
-0.00022917204
0.00015602776
-0.00054873133
-0.00030517256
0.00026023445
-0.0007477522
-0.00032467731
0.00030017858
-0.00090379774
-0.00027768034
0.00027076067
-0.00098152891
-0.00020519494
-0.00097505984
-0.00013275437
0.00019243661
-3.5392409e-05
-1.7369499e-05
-1.345376e-05
-5.3825086e-05
-7.3922936e-05
-5.4300491e-05
-3.7246117e-05
-0.00017494418
-0.00012072136
2.6341075e-05
-0.00032567534
-0.0002052371
0.00012449228
-0.00051148922
-0.00027953593
0.00021308186
-0.00069685695
-0.00030604297
0.00024078743
-0.00084022785
-0.00026853953
0.0001979056
-0.00090977769
-0.00020113326
-0.00090167447
-0.00013281746
0.00010454388
-2.9318004e-05
-1.1160582e-05
-1.5205953e-05
-4.5989907e-05
-4.5681976e-05
-6.5186613e-05
-3.5969335e-05
-0.00010308007
-0.00015481079
1.0209974e-05
-0.00017844923
-0.00028868682
8.3461313e-05
-0.00024839167
-0.00045419881
0.00014830261
-0.00027899245
-0.00061846696
0.00015984809
-0.0002533527
-0.00074189257
0.00010064868
-0.00019026217
-0.00079802409
-0.00012737668
-0.00078060716
-1.2926852e-05
2.1033907e-07
3.0705447e-06
-1.2008689e-05
-2.4327887e-06
2.3522019e-06
1.3465423e-05
-5.0516742e-05
-1.077252e-05
8.4826596e-06
3.2323074e-05
-0.00011549671
-2.6036862e-05
1.9779775e-05
5.9397072e-05
-0.00020094656
-4.8196838e-05
3.6239831e-05
8.7681333e-05
-0.00028073822
-7.179523e-05
5.5685795e-05
0.00010405478
-0.00031693437
-8.5559454e-05
7.4036127e-05
9.9704003e-05
-0.00029067946
-8.0726968e-05
8.4877342e-05
8.4709333e-05
-0.00022264896
-6.3163488e-05
6.6859682e-05
-0.00014932927
-4.5803918e-05
8.5773862e-05
2.744678e-07
3.6327938e-06
-1.4290491e-05
3.14689e-06
1.5808601e-05
-5.9516144e-05
1.1585362e-05
3.754887e-05
-0.00013438576
2.7533023e-05
6.8023223e-05
-0.00022981113
5.0763811e-05
9.881879e-05
-0.00031390449
7.7114609e-05
0.00011576383
-0.00034410284
0.00010122465
0.00011228529
-0.00030523217
0.00011064944
9.9970151e-05
-0.0002258211
8.3046914e-05
-0.00014651467
0.00010815862
3.9714387e-07
4.0261322e-06
-1.6481675e-05
4.2840405e-06
1.7429973e-05
-6.8063376e-05
1.5538065e-05
4.1120154e-05
-0.00015197682
3.6421673e-05
7.3688345e-05
-0.00025572128
6.6032419e-05
0.00010549232
-0.00034145733
9.8622093e-05
0.00012198012
-0.00036348218
0.00012541564
0.00011973667
-0.0003119256
0.00013024999
0.00010981915
-0.00021987813
9.5619678e-05
-0.00013700634
0.00012192912
5.2675564e-07
4.2169983e-06
-1.8454063e-05
5.4709529e-06
1.8196467e-05
-7.5623192e-05
1.9645669e-05
4.2743933e-05
-0.00016712198
4.5538337e-05
7.6056365e-05
-0.00027698439
8.1102278e-05
0.000107954
-0.00036198306
0.00011955709
0.0001243329
-0.0003744165
0.00014647362
0.00012530073
-0.00031185369
0.00014544449
0.00011588075
-0.00020832108
0.00010387301
-0.00012327167
0.00013178412
6.3968668e-07
4.1860895e-06
-2.0129314e-05
6.5508965e-06
1.8054469e-05
-8.1943355e-05
2.3419689e-05
4.2337382e-05
-0.00017943157
5.3993506e-05
7.5021704e-05
-0.00029330461
9.5205293e-05
0.00010612643
-0.00037567115
0.00013929247
0.00012281989
-0.0003779656
0.00016322679
0.00012625158
-0.00030163309
0.0001571454
0.00011752531
-0.00019277361
0.00010716559
-0.00010735237
0.00013908344
6.8728444e-07
3.9752331e-06
-2.1524773e-05
7.3203154e-06
1.7130403e-05
-8.7098478e-05
2.6370803e-05
4.0089099e-05
-0.00018911105
6.0925729e-05
7.0811567e-05
-0.0003051825
0.00010753745
9.9852723e-05
-0.00038342168
0.00015582542
0.00011597998
-0.00037576163
0.00017565895
0.00012079027
-0.00028648879
0.00016565004
0.0001139097
-0.00017476428
0.00010510015
-9.0555608e-05
0.00014412976
7.3287189e-07
3.5830989e-06
-2.2625071e-05
7.9883021e-06
1.5444365e-05
-9.1051306e-05
2.8835806e-05
3.6124799e-05
-0.00019617138
6.6708125e-05
6.3719744e-05
-0.00031293461
0.00011791495
8.9672596e-05
-0.00038599924
0.00016925261
0.00010493034
-0.00036966833
0.00018526098
0.00011044954
-0.00026937739
0.00017159236
0.00010520324
-0.00015564823
9.7798069e-05
-7.3859215e-05
0.00014720467
7.4181129e-07
3.0444742e-06
-2.3458334e-05
8.4133281e-06
1.313254e-05
-9.396896e-05
3.0551786e-05
3.0742812e-05
-0.00020111032
7.0716096e-05
5.4232389e-05
-0.00031743014
0.00012574052
7.6418885e-05
-0.00038523404
0.00017952308
9.0966356e-05
-0.00036242164
0.00019200245
9.5764218e-05
-0.00025177349
0.00017512076
9.1656976e-05
-0.00013705989
8.5563991e-05
-5.8264666e-05
0.00014842926
7.2448962e-07
2.3932507e-06
-2.4065577e-05
8.6392516e-06
1.0333249e-05
-9.6043801e-05
3.1650322e-05
2.4221269e-05
-0.00020442765
7.3279098e-05
4.2839439e-05
-0.00031973972
0.00013180888
6.090527e-05
-0.00038274783
0.00018615672
7.3214027e-05
-0.00035215504
0.00019596264
7.6824403e-05
-0.00023546588
0.00017650892
7.3630938e-05
-0.00012042274
6.8863133e-05
-4.4648738e-05
0.00014809133
7.0109612e-07
1.6555653e-06
-2.4482471e-05
8.7699987e-06
7.1482741e-06
-9.7435273e-05
3.2406342e-05
1.6765105e-05
-0.00020651739
7.5294685e-05
2.9717232e-05
-0.00032076719
0.00013567063
4.2562793e-05
-0.00037974549
0.00018963179
5.2040025e-05
-0.00034305606
0.00019759466
5.4041138e-05
-0.00022189146
0.00017630204
5.1700574e-05
-0.00010688719
4.8372631e-05
-3.3748504e-05
0.00014671293
7.0345651e-07
8.500119e-07
-2.4746936e-05
8.9254778e-06
3.6654165e-06
-9.8264765e-05
3.3044699e-05
8.595437e-06
-0.00020761471
7.6866368e-05
1.5252949e-05
-0.00032085809
0.00013846384
2.1931896e-05
-0.00037687863
0.00019076374
2.7006699e-05
-0.00033465671
0.00019782214
2.7990555e-05
-0.00021202921
0.00017538126
2.6758437e-05
-9.7291298e-05
2.5029012e-05
-2.6136272e-05
0.00014510258
7.036255e-07
-2.9622889e-12
-2.4859952e-05
8.997231e-06
1.039004e-11
-9.8633894e-05
3.335598e-05
6.5160757e-11
-0.00020811488
7.7652003e-05
2.9953321e-11
-0.00032087667
0.00013986026
-2.7355104e-10
-0.00037542883
0.00019106216
-6.4251259e-10
-0.00033015364
0.0001976892
-9.4635978e-10
-0.00020699954
0.00017468339
-7.939261e-10
-9.2374604e-05
6.3993959e-11
-2.2229306e-05
0.00014406666
7.0372901e-07
-8.4999645e-07
-2.4859948e-05
8.9974229e-06
-3.6653443e-06
-9.8633879e-05
3.3355992e-05
-8.5952719e-06
-0.00020811485
7.7651897e-05
-1.525292e-05
-0.00032087663
0.00013986031
-2.1932474e-05
-0.0003754288
0.00019106216
-2.7008017e-05
-0.00033015363
0.00019768923
-2.7992456e-05
-0.00020699954
0.00017468353
-2.6759993e-05
-9.2374618e-05
-2.5028917e-05
-2.2229326e-05
0.00014406677
7.0372603e-07
-1.6554988e-06
-2.4746935e-05
8.9259504e-06
-7.1480781e-06
-9.8264763e-05
3.3044711e-05
-1.6764852e-05
-0.00020761471
7.6866159e-05
-2.9717241e-05
-0.00032085809
0.00013846403
-4.2563395e-05
-0.00037687865
0.00019076378
-5.2041389e-05
-0.00033465676
0.00019782226
-5.4043034e-05
-0.00021202926
0.00017538164
-5.1702027e-05
-9.7291349e-05
-4.8372584e-05
-2.6136326e-05
0.00014510283
7.0129432e-07
-2.393161e-06
-2.4482466e-05
8.7702506e-06
-1.0333004e-05
-9.7435257e-05
3.240616e-05
-2.4221023e-05
-0.00020651736
7.5294591e-05
-4.2839459e-05
-0.00032076715
0.00013567098
-6.0905757e-05
-0.00037974547
0.00018963188
-7.3215367e-05
-0.00034305609
0.00019759487
-7.6826231e-05
-0.00022189152
0.00017630256
-7.3632243e-05
-0.00010688726
-6.8863076e-05
-3.3748571e-05
0.00014671316
7.2434383e-07
-3.0444399e-06
-2.4065576e-05
8.6388691e-06
-1.313244e-05
-9.6043798e-05
3.1649981e-05
-3.0742688e-05
-0.00020442765
7.3279317e-05
-5.4232307e-05
-0.00031973971
0.00013180928
-7.6419198e-05
-0.00038274786
0.00018615692
-9.0967734e-05
-0.00035215511
0.00019596297
-9.5766033e-05
-0.00023546597
0.00017650948
-9.1658242e-05
-0.00012042282
-8.5563927e-05
-4.4648803e-05
0.0001480916
7.4161387e-07
-3.5830717e-06
-2.3458336e-05
8.4130309e-06
-1.544427e-05
-9.3968967e-05
3.0551931e-05
-3.6124557e-05
-0.00020111034
7.0716574e-05
-6.3719469e-05
-0.00031743019
0.00012574073
-8.9673004e-05
-0.00038523413
0.0001795234
-0.00010493197
-0.00036242173
0.00019200282
-0.00011045156
-0.00025177359
0.00017512125
-0.00010520474
-0.00013705996
-9.7798041e-05
-5.8264722e-05
0.00014842982
7.328535e-07
-3.9752011e-06
-2.2625075e-05
7.9882832e-06
-1.7130349e-05
-9.1051327e-05
2.8835982e-05
-4.0089031e-05
-0.00019617144
6.6708203e-05
-7.0811718e-05
-0.0003129347
0.00011791486
-9.9853603e-05
-0.00038599936
0.00016925306
-0.00011598186
-0.00036966842
0.0001852613
-0.0001207926
-0.00026937748
0.00017159276
-0.00011391148
-0.00015564829
-0.00010509989
-7.3859264e-05
0.00014720551
6.8715191e-07
-4.1861061e-06
-2.152478e-05
7.3199452e-06
-1.805456e-05
-8.7098509e-05
2.6370546e-05
-4.2337544e-05
-0.00018911112
6.0925772e-05
-7.5021923e-05
-0.0003051826
0.00010753748
-0.00010612701
-0.00038342184
0.0001558259
-0.00012282157
-0.00037576178
0.00017565918
-0.000126254
-0.00028648892
0.00016565039
-0.00011752702
-0.00017476435
-0.0001071649
-9.0555641e-05
0.00014413046
6.3964716e-07
-4.2169493e-06
-2.0129313e-05
6.5509408e-06
-1.8196331e-05
-8.1943354e-05
2.3420123e-05
-4.2743745e-05
-0.00017943158
5.3994079e-05
-7.6056381e-05
-0.00029330465
9.5204998e-05
-0.00010795496
-0.00037567123
0.00013929248
-0.00012433494
-0.00037796569
0.00016322672
-0.00012530296
-0.0003016332
0.00015714553
-0.00011588209
-0.00019277365
-0.00010387252
-0.00010735237
0.00013908373
5.2689966e-07
-4.0261296e-06
-1.8454058e-05
5.4712148e-06
-1.7430013e-05
-7.5623173e-05
1.9645729e-05
-4.1120417e-05
-0.00016712196
4.5538001e-05
-7.3689134e-05
-0.00027698437
8.1101578e-05
-0.00010549382
-0.00036198305
0.00011955677
-0.00012198198
-0.00037441655
0.00014647318
-0.00011973899
-0.00031185375
0.00014544423
-0.00010982044
-0.00020832109
-9.561964e-05
-0.00012327164
0.00013178423
3.9719085e-07
-3.6327977e-06
-1.6481669e-05
4.2841203e-06
-1.5808654e-05
-6.8063355e-05
1.5538054e-05
-3.7549064e-05
-0.00015197679
3.6421716e-05
-6.8023758e-05
-0.00025572124
6.6032553e-05
-9.8820076e-05
-0.00034145732
9.8621303e-05
-0.00011576627
-0.00036348221
0.00012541547
-0.00011228798
-0.00031192562
0.00013025013
-9.9972054e-05
-0.0002198781
-8.3047041e-05
-0.00013700628
0.00012192933
2.7445004e-07
-3.0705496e-06
-1.4290487e-05
3.1468779e-06
-1.3465463e-05
-5.9516128e-05
1.1585296e-05
-3.2323205e-05
-0.00013438573
2.7532873e-05
-5.9397454e-05
-0.00022981109
5.0763724e-05
-8.7682341e-05
-0.00031390447
7.7114005e-05
-0.00010405679
-0.00034410284
0.00010122426
-9.9705606e-05
-0.00030523216
0.00011064886
-8.4709258e-05
-0.00022582104
-6.6859136e-05
-0.00014651459
0.00010815859
2.1036405e-07
-1.2008687e-05
-2.4328085e-06
2.3522778e-06
-5.0516734e-05
-1.0772616e-05
8.4826825e-06
-0.00011549669
-2.6037143e-05
1.9779594e-05
-0.00020094655
-4.8197558e-05
3.6239657e-05
-0.00028073823
-7.1796717e-05
5.5685912e-05
-0.00031693441
-8.5561835e-05
7.4036209e-05
-0.00029067947
-8.072947e-05
8.4875827e-05
-0.00022264895
-6.3165366e-05
-0.00014932923
-4.5804411e-05
8.577286e-05
1.6741271e-07
9.7910267e-07
-1.2083055e-05
-1.0721492e-06
6.8169316e-07
3.890664e-06
-5.0541705e-05
-4.3799212e-06
2.3643666e-06
8.2155493e-06
-0.00011573117
-9.6635926e-06
7.6267473e-06
1.1956949e-05
-0.00020263419
-1.5531507e-05
1.9584733e-05
9.4992014e-06
-0.00028495252
-1.7242956e-05
3.9800565e-05
-7.2579391e-06
-0.00032264369
-7.2490926e-06
6.5728783e-05
-4.1092018e-05
-0.00029429309
1.8777131e-05
9.0641128e-05
-8.052563e-05
-0.00022050783
5.3472189e-05
-0.0001048711
-0.00014298085
8.1366415e-05
0.00010779723
2.5761809e-07
8.9360317e-07
-1.4462586e-05
1.1720706e-06
3.3729829e-06
-5.9912831e-05
4.1134109e-06
6.5727038e-06
-0.00013568404
1.2445497e-05
7.8899371e-06
-0.00023407599
2.9610964e-05
1.1391074e-06
-0.00032270988
5.6016923e-05
-2.1547586e-05
-0.00035621933
8.577247e-05
-6.1048904e-05
-0.00031503118
0.00011008128
-0.00010272975
-0.00022792613
-0.00012411099
-0.00014220604
0.00012501251
3.7893385e-07
8.0266994e-07
-1.6769612e-05
1.7614816e-06
2.8487096e-06
-6.8921527e-05
5.9836131e-06
4.9663525e-06
-0.00015459267
1.7198114e-05
4.0543772e-06
-0.00026310102
3.9146658e-05
-6.3608616e-06
-0.00035590712
7.0714352e-05
-3.3587068e-05
-0.00038301043
0.00010192159
-7.6266513e-05
-0.00032791469
0.00012472907
-0.00011722655
-0.00022818898
-0.00013503072
-0.0001355014
0.00013414368
5.1598927e-07
6.9868688e-07
-1.8865971e-05
2.4246816e-06
2.3135129e-06
-7.6996462e-05
8.0210486e-06
3.4654092e-06
-0.00017121733
2.2142383e-05
7.5948772e-07
-0.00028781145
4.862657e-05
-1.2294766e-05
-0.00038253413
8.4734781e-05
-4.2324632e-05
-0.00040178719
0.00011602704
-8.6439864e-05
-0.00033297297
0.00013675942
-0.00012397341
-0.00022230694
-0.00013788184
-0.0001245218
0.00014086075
6.3942115e-07
5.9387808e-07
-2.0663827e-05
3.0260369e-06
1.8261235e-06
-8.384242e-05
9.8885497e-06
2.2230556e-06
-0.00018505188
2.6701329e-05
-1.6986217e-06
-0.00030765996
5.7274193e-05
-1.6157195e-05
-0.00040238174
9.6834987e-05
-4.6878289e-05
-0.00041297309
0.00012909568
-9.0034794e-05
-0.00033029938
0.00014735591
-0.00012312213
-0.00021188529
-0.00013370275
-0.00011100716
0.00014683173
7.4900725e-07
4.939563e-07
-2.2173801e-05
3.572803e-06
1.4035323e-06
-8.9499694e-05
1.1615634e-05
1.2690409e-06
-0.00019620053
3.0945589e-05
-3.3049039e-06
-0.00032290741
6.5290595e-05
-1.7927726e-05
-0.00041599594
0.00010731231
-4.7120384e-05
-0.00041754122
0.00014176947
-8.6414223e-05
-0.00032456597
0.0001574868
-0.00011540085
-0.00019820284
-0.00012356242
-9.6130499e-05
0.0001529212
8.5062186e-07
3.9241026e-07
-2.3374061e-05
4.0822794e-06
1.0232055e-06
-9.3902515e-05
1.3244181e-05
5.2781897e-07
-0.00020459235
3.4846403e-05
-4.2069543e-06
-0.00033363546
7.2688644e-05
-1.7916135e-05
-0.00042385272
0.00011641052
-4.4015967e-05
-0.00041649502
0.00015270966
-7.8110857e-05
-0.00031397939
0.00016663792
-0.00010246686
-0.00018251044
-0.00010879152
-8.0857157e-05
0.00015886465
9.3279972e-07
2.9198172e-07
-2.4290668e-05
4.5022788e-06
6.8796556e-07
-9.7203162e-05
1.4610189e-05
-9.7115182e-09
-0.0002106809
3.825909e-05
-4.4596838e-06
-0.00034082651
7.9276002e-05
-1.6560934e-05
-0.00042760577
0.00012398678
-3.9143722e-05
-0.00041200529
0.00016193436
-6.6506832e-05
-0.00030132507
0.00017467965
-8.5770678e-05
-0.00016650142
-9.0566512e-05
-6.6258548e-05
0.00016444819
9.8868238e-07
2.0122168e-07
-2.4963591e-05
4.7987687e-06
4.1922924e-07
-9.9585386e-05
1.5596315e-05
-3.0202819e-07
-0.00021493327
4.0852282e-05
-4.0478821e-06
-0.00034540764
8.4131533e-05
-1.3830168e-05
-0.00042875772
0.00013048151
-3.1636985e-05
-0.00040601227
0.00016945245
-5.2229731e-05
-0.00028871428
0.00018139812
-6.6425493e-05
-0.00015171378
-6.9847921e-05
-5.3307121e-05
0.0001693376
1.0245304e-06
1.2322726e-07
-2.5429049e-05
4.9930721e-06
2.2325892e-07
-0.00010120798
1.6274103e-05
-3.6713868e-07
-0.00021773361
4.2657466e-05
-3.0868482e-06
-0.00034811178
8.7577847e-05
-1.0018392e-05
-0.00042847792
0.00013551579
-2.256138e-05
-0.00040007
0.00017518383
-3.6027609e-05
-0.00027776222
0.00018657201
-4.5270951e-05
-0.00013943022
-4.744125e-05
-4.2828837e-05
0.00017324538
1.0465438e-06
5.626246e-08
-2.5726506e-05
5.1152862e-06
8.6854728e-08
-0.00010219714
1.6701418e-05
-2.4935133e-07
-0.00021931885
4.3774958e-05
-1.6872884e-06
-0.00034933149
8.9568092e-05
-5.2902807e-06
-0.00042740054
0.0001391691
-1.1757143e-05
-0.00039506235
0.00017906012
-1.8405726e-05
-0.00026954286
0.0001900348
-2.2941751e-05
-0.00013059557
-2.3979209e-05
-3.5469705e-05
0.00017590599
1.050455e-06
3.3893658e-11
-2.5854189e-05
5.1423898e-06
1.1262996e-10
-0.00010263918
1.6829942e-05
1.8720852e-10
-0.00022005224
4.417539e-05
1.2340149e-10
-0.00034990996
9.0314779e-05
-2.4213198e-10
-0.00042685913
0.00014093922
-7.6779303e-10
-0.00039253493
0.00018091359
-1.1219081e-09
-0.00026537924
0.00019170568
-7.4395572e-10
-0.0001261081
2.1834711e-10
-3.1728255e-05
0.00017722516
1.0504109e-06
-5.6201386e-08
-2.5854185e-05
5.1422638e-06
-8.6654196e-08
-0.00010263917
1.6829798e-05
2.49678e-07
-0.00022005221
4.4175269e-05
1.6874719e-06
-0.00034990992
9.0314733e-05
5.2897511e-06
-0.00042685909
0.00014093917
1.175557e-05
-0.0003925349
0.00018091364
1.8403523e-05
-0.00026537923
0.00019170576
2.2940337e-05
-0.00012610811
2.3979738e-05
-3.172827e-05
0.00017722529
1.0464642e-06
-1.2318078e-07
-2.5726505e-05
5.1150741e-06
-2.2311649e-07
-0.00010219714
1.6701218e-05
3.6736661e-07
-0.00021931884
4.3774787e-05
3.0869291e-06
-0.00034933148
8.9568041e-05
1.0017806e-05
-0.00042740054
0.00013916905
2.2559749e-05
-0.00039506237
0.00017906034
3.6025521e-05
-0.0002695429
0.00019003505
4.5269719e-05
-0.00013059562
4.7442021e-05
-3.5469753e-05
0.00017590632
1.0245068e-06
-2.011766e-07
-2.5429043e-05
4.9930477e-06
-4.191053e-07
-0.00010120796
1.6274202e-05
3.0224315e-07
-0.00021773357
4.2657531e-05
4.0479726e-06
-0.00034811171
8.7577853e-05
1.3829608e-05
-0.00042847787
0.00013551588
3.1635352e-05
-0.00040006999
0.00017518419
5.2227774e-05
-0.00027776226
0.00018657241
6.6424405e-05
-0.00013943028
6.9848905e-05
-4.2828909e-05
0.00017324588
9.8872285e-07
-2.9191398e-07
-2.4963588e-05
4.7989243e-06
-6.8777041e-07
-9.9585373e-05
1.5596695e-05
1.0038741e-08
-0.00021493325
4.0852662e-05
4.4598585e-06
-0.00034540761
8.4131628e-05
1.6560421e-05
-0.00042875772
0.00013048185
3.9142146e-05
-0.0004060123
0.00016945293
6.6504943e-05
-0.00028871436
0.00018139862
8.5769582e-05
-0.00015171387
9.0567562e-05
-5.3307208e-05
0.00016933827
9.3276877e-07
-3.9234485e-07
-2.4290668e-05
4.5022365e-06
-1.023009e-06
-9.7203163e-05
1.46104e-05
-5.275347e-07
-0.00021068091
3.825957e-05
4.2070036e-06
-0.00034082653
7.9276108e-05
1.7915495e-05
-0.00042760583
0.00012398733
4.4014346e-05
-0.00041200538
0.00016193484
7.8108778e-05
-0.00030132519
0.00017468014
0.00010246553
-0.00016650154
0.00010879253
-6.6258643e-05
0.00016444909
8.5055914e-07
-4.9389991e-07
-2.3374063e-05
4.0821411e-06
-1.4033713e-06
-9.3902526e-05
1.3244313e-05
-1.2688186e-06
-0.00020459238
3.4847064e-05
3.3048605e-06
-0.00033363551
7.268883e-05
1.7926856e-05
-0.00042385283
0.00011641109
4.7118392e-05
-0.00041649517
0.00015271001
8.6411531e-05
-0.00031397955
0.00016663835
0.00011539915
-0.00018251057
0.0001235635
-8.0857253e-05
0.00015886574
7.4894333e-07
-5.938131e-07
-2.2173807e-05
3.5726503e-06
-1.8259331e-06
-8.9499721e-05
1.161577e-05
-2.2227291e-06
-0.00019620059
3.0946401e-05
1.6986286e-06
-0.00032290753
6.5290898e-05
1.6155918e-05
-0.00041599612
0.0001073127
4.6875533e-05
-0.00041754142
0.00014176971
9.0031345e-05
-0.00032456617
0.00015748724
0.00012312018
-0.00019820298
0.00013370401
-9.6130586e-05
0.00015292235
6.3933083e-07
-6.9865129e-07
-2.0663828e-05
3.0257311e-06
-2.313423e-06
-8.3842424e-05
9.8882472e-06
-3.4653208e-06
-0.0001850519
2.6701486e-05
-7.5988604e-07
-0.00030766
5.7274238e-05
1.2293042e-05
-0.00040238181
9.6835058e-05
4.2321694e-05
-0.00041297321
0.00012909595
8.6436655e-05
-0.00033029952
0.00014735639
0.00012397168
-0.00021188539
0.00013788301
-0.00011100723
0.00014683251
5.1587157e-07
-8.0265862e-07
-1.8865967e-05
2.4242214e-06
-2.8487122e-06
-7.6996449e-05
8.0203191e-06
-4.9664582e-06
-0.00017121731
2.2142003e-05
-4.0549484e-06
-0.00028781143
4.8626692e-05
6.3592007e-06
-0.00038253415
8.4734765e-05
3.3584399e-05
-0.00040178725
0.00011602712
7.626399e-05
-0.00033297306
0.0001367595
0.00011722517
-0.00022230701
0.00013503118
-0.00012452183
0.00014086096
3.7884482e-07
-8.9359179e-07
-1.6769607e-05
1.7610978e-06
-3.3729842e-06
-6.8921505e-05
5.9829757e-06
-6.5727757e-06
-0.00015459262
1.7197796e-05
-7.8903099e-06
-0.00026310097
3.9146944e-05
-1.140323e-06
-0.00035590709
7.0714434e-05
2.1545154e-05
-0.00038301045
0.00010192143
6.1046111e-05
-0.00032791473
0.00012472842
0.00010272794
-0.00022818901
0.00012411147
-0.00013550139
0.00013414387
2.5761041e-07
-9.7909728e-07
-1.4462583e-05
1.1719671e-06
-3.8906767e-06
-5.9912823e-05
4.1131605e-06
-8.2156492e-06
-0.00013568403
1.2445209e-05
-1.1957372e-05
-0.00023407598
2.9610731e-05
-9.5004168e-06
-0.0003227099
5.6016645e-05
7.2556512e-06
-0.00035621938
8.5772047e-05
4.1089552e-05
-0.00031503122
0.0001100799
8.0524181e-05
-0.00022792613
0.00010487204
-0.000142206
0.00012501315
1.6741309e-07
-1.2083054e-05
-1.0721549e-06
6.8162771e-07
-5.0541703e-05
-4.3799751e-06
2.3641915e-06
-0.00011573117
-9.6637899e-06
7.6265048e-06
-0.00020263419
-1.5532081e-05
1.9584497e-05
-0.00028495255
-1.7244224e-05
3.9800479e-05
-0.00032264373
-7.2508584e-06
6.5728074e-05
-0.00029429311
1.8775812e-05
9.0638534e-05
-0.00022050783
5.347147e-05
-0.00014298082
8.1366132e-05
0.00010779588
-7.7117983e-09
5.9460043e-07
-1.2148544e-05
-5.2139881e-07
9.8683069e-08
2.3501897e-06
-5.0906295e-05
-2.0920051e-06
4.3362483e-07
4.7516234e-06
-0.00011644908
-4.3686912e-06
1.1960496e-06
5.9032984e-06
-0.0002032913
-6.0086614e-06
3.4716467e-06
1.0034088e-06
-0.00028491737
-3.3141665e-06
1.0190132e-05
-1.6613733e-05
-0.00032161464
8.866219e-06
2.431364e-05
-4.9398912e-05
-0.00029271956
3.3701657e-05
4.5610634e-05
-8.7840926e-05
-0.00021921852
6.5254517e-05
-0.00011503959
-0.00014225069
9.1452143e-05
6.8468079e-05
1.210289e-08
6.6620205e-07
-1.4546289e-05