/*--------------------------------*- C++ -*----------------------------------*\
| =========                 |                                                 |
| \\      /  F ield         | OpenFOAM: The Open Source CFD Toolbox           |
|  \\    /   O peration     | Version:  2406                                  |
|   \\  /    A nd           | Website:  www.openfoam.com                      |
|    \\/     M anipulation  |                                                 |
\*---------------------------------------------------------------------------*/
FoamFile
{
    version     2.0;
    format      ascii;
    arch        "LSB;label=32;scalar=64";
    class       volVectorField;
    location    "15.75";
    object      U;
}
// * * * * * * * * * * * * * * * * * * * * * * * * * * * * * * * * * * * * * //

dimensions      [0 1 -1 0 0 0 0];

internalField   nonuniform List<vector> 
34560
(
(-0.041880966 0.0092273784 0.011467625)
(-0.12369631 0.029055317 0.034194488)
(-0.20578911 0.054346832 0.05549573)
(-0.27143319 0.085455676 0.069401032)
(-0.30197369 0.12038562 0.071809566)
(-0.28714667 0.15622904 0.061818528)
(-0.23442665 0.18886767 0.044480017)
(-0.16661259 0.21457198 0.027348482)
(-0.10630341 0.23169585 0.017533523)
(-0.045382257 0.010367972 0.011879558)
(-0.13126742 0.031938025 0.034887403)
(-0.21295712 0.058578496 0.055033563)
(-0.27169435 0.090427637 0.06578997)
(-0.28918489 0.12517513 0.063762681)
(-0.25912012 0.15982532 0.049786305)
(-0.19469671 0.19021414 0.030795692)
(-0.12259347 0.21288306 0.014661321)
(-0.062049181 0.22775661 0.0073039266)
(-0.048686853 0.011000797 0.011631221)
(-0.13831245 0.03349275 0.033787608)
(-0.21939352 0.060708764 0.05190236)
(-0.27134834 0.092558658 0.059252644)
(-0.27654855 0.12641076 0.053369601)
(-0.23294259 0.15922246 0.036562168)
(-0.15948469 0.18675905 0.016876882)
(-0.085395039 0.2060907 0.0018985425)
(-0.02607576 0.21806633 -0.0036967593)
(-0.051497746 0.01142103 0.011245531)
(-0.14394201 0.03436438 0.032267963)
(-0.22369068 0.061523217 0.048092206)
(-0.2688033 0.092569105 0.051928355)
(-0.26277881 0.12473653 0.0423996)
(-0.2078419 0.15497293 0.02335743)
(-0.1284928 0.17904774 0.003547238)
(-0.053553034 0.19522985 -0.0099991213)
(0.0038548201 0.20445437 -0.013535728)
(-0.053785868 0.011357712 0.010628535)
(-0.14818157 0.033930347 0.030165157)
(-0.22603411 0.060254266 0.043555145)
(-0.26439688 0.089809377 0.044048803)
(-0.24820777 0.11972617 0.031345765)
(-0.18379385 0.14693973 0.010639313)
(-0.10054691 0.16749642 -0.0088557299)
(-0.025861732 0.18077772 -0.020785701)
(0.029080169 0.18758544 -0.02231498)
(-0.055618114 0.010939117 0.0098209357)
(-0.15125066 0.032496444 0.027568165)
(-0.22682645 0.057271935 0.03845391)
(-0.25868095 0.084592119 0.03587816)
(-0.23335884 0.11164947 0.02056525)
(-0.16113618 0.13548473 -0.0012497496)
(-0.075327001 0.1526572 -0.020132271)
(-0.0016290709 0.16327114 -0.030340918)
(0.050498687 0.16805187 -0.029958585)
(-0.056990276 0.010121211 0.0089741258)
(-0.15321398 0.029916645 0.024892596)
(-0.22629846 0.052407259 0.033349627)
(-0.25213255 0.076817911 0.027987539)
(-0.21892519 0.1005432 0.010510309)
(-0.14072646 0.12077944 -0.012005761)
(-0.053016542 0.134804 -0.03005582)
(0.019379837 0.14300513 -0.038535749)
(0.068626921 0.1461693 -0.036455778)
(-0.058008585 0.0088779365 0.008124933)
(-0.15444426 0.026157105 0.022269179)
(-0.22512859 0.045648396 0.028499484)
(-0.24570167 0.066544237 0.02072511)
(-0.20591871 0.086537083 0.0015277503)
(-0.12323982 0.10305614 -0.021357574)
(-0.03398326 0.11418194 -0.03848011)
(0.037116708 0.12031862 -0.045324046)
(0.083682173 0.12228927 -0.041799928)
(-0.058755719 0.007266178 0.0073474487)
(-0.15521658 0.021371103 0.019895454)
(-0.22381573 0.037198727 0.024211206)
(-0.24005167 0.054029237 0.014438406)
(-0.19498562 0.069913187 -0.0060723744)
(-0.10886949 0.082722493 -0.029087322)
(-0.018470048 0.091195951 -0.045311203)
(0.051478307 0.095618782 -0.05070231)
(0.095738143 0.096769493 -0.045999953)
(-0.059271632 0.0053913869 0.0067034343)
(-0.15565743 0.015836365 0.017947084)
(-0.2225904 0.02750013 0.020765414)
(-0.23549102 0.039809634 0.0094945158)
(-0.18643891 0.051291497 -0.011980451)
(-0.097818575 0.060408184 -0.035061242)
(-0.0066443417 0.066402984 -0.050508184)
(0.062363748 0.069380992 -0.054682165)
(0.10480007 0.069997897 -0.04906962)
(-0.059563981 0.0033332656 0.0062548667)
(-0.15578123 0.0097720858 0.016591666)
(-0.22149078 0.016922474 0.018377746)
(-0.2321108 0.024413998 0.0061066862)
(-0.1804253 0.031338245 -0.015974812)
(-0.090229106 0.036770898 -0.039086055)
(0.0013597071 0.040341305 -0.053982677)
(0.069667894 0.042050201 -0.057268585)
(0.11082927 0.042335878 -0.051026225)
(-0.059718375 0.0010997738 0.0060292132)
(-0.15588977 0.0032304212 0.015915792)
(-0.22103488 0.0056174775 0.01720282)
(-0.23054208 0.0081418415 0.0044482315)
(-0.17753213 0.01047886 -0.017928738)
(-0.086515608 0.012306321 -0.041060455)
(0.005308506 0.013506991 -0.055688649)
(0.073284992 0.014075119 -0.058521909)
(0.11381216 0.01416558 -0.051962677)
(-0.059718374 -0.0010998028 0.0060291767)
(-0.15588977 -0.0032304544 0.015915671)
(-0.22103489 -0.0056174458 0.017202681)
(-0.23054209 -0.008141832 0.0044481873)
(-0.17753214 -0.010478968 -0.017928753)
(-0.086515617 -0.012306469 -0.041060484)
(0.0053085 -0.013507197 -0.055688658)
(0.073284983 -0.014075314 -0.058521953)
(0.11381213 -0.014165432 -0.05196271)
(-0.059563981 -0.003333221 0.006254765)
(-0.15578124 -0.0097719914 0.016591356)
(-0.22149081 -0.016922369 0.018377467)
(-0.23211084 -0.024413983 0.0061066397)
(-0.18042531 -0.03133837 -0.01597483)
(-0.090229134 -0.036771096 -0.039086127)
(0.0013596838 -0.040341585 -0.053982686)
(0.069667865 -0.04205049 -0.057268691)
(0.11082921 -0.042335893 -0.0510263)
(-0.05927164 -0.0053912989 0.0067033484)
(-0.15565746 -0.015836225 0.017946883)
(-0.22259047 -0.027500048 0.020765392)
(-0.23549106 -0.039809664 0.0094946563)
(-0.18643893 -0.051291649 -0.011980435)
(-0.097818617 -0.060408459 -0.035061313)
(-0.0066443824 -0.066403361 -0.050508155)
(0.062363709 -0.06938139 -0.054682276)
(0.10480001 -0.069998127 -0.049069693)
(-0.058755723 -0.0072661736 0.0073474931)
(-0.15521659 -0.021371135 0.01989562)
(-0.22381574 -0.037198792 0.024211526)
(-0.24005167 -0.054029305 0.01443862)
(-0.19498565 -0.069913363 -0.0060723643)
(-0.10886953 -0.082722866 -0.029087338)
(-0.01847008 -0.09119641 -0.045311113)
(0.051478281 -0.095619251 -0.050702374)
(0.095738106 -0.096769891 -0.046)
(-0.058008587 -0.0088779868 0.0081249866)
(-0.15444427 -0.026157206 0.022269262)
(-0.22512862 -0.045648461 0.028499475)
(-0.24570174 -0.06654427 0.020725057)
(-0.20591877 -0.086537311 0.001527806)
(-0.12323981 -0.10305662 -0.021357462)
(-0.03398326 -0.11418246 -0.038479975)
(0.037116711 -0.12031913 -0.045324028)
(0.083682161 -0.12228974 -0.041799932)
(-0.05699028 -0.010121245 0.0089741206)
(-0.153214 -0.029916695 0.024892583)
(-0.2262985 -0.052407295 0.033349629)
(-0.25213259 -0.07681796 0.027987819)
(-0.21892519 -0.10054342 0.010510739)
(-0.14072641 -0.1207799 -0.012005516)
(-0.053016525 -0.13480452 -0.030055697)
(0.019379868 -0.14300567 -0.038535651)
(0.068626925 -0.14616972 -0.036455712)
(-0.055618114 -0.010939173 0.0098210045)
(-0.15125067 -0.032496566 0.027568395)
(-0.22682642 -0.057272104 0.038454217)
(-0.25868085 -0.084592187 0.035878574)
(-0.23335883 -0.11164948 0.020565568)
(-0.16113618 -0.13548493 -0.0012496326)
(-0.075327005 -0.15265755 -0.0201322)
(-0.0016290295 -0.16327158 -0.030340773)
(0.050498708 -0.16805211 -0.029958421)
(-0.053785855 -0.011357727 0.010628521)
(-0.14818154 -0.033930415 0.030165031)
(-0.22603408 -0.060254422 0.043554765)
(-0.26439691 -0.089809478 0.044048374)
(-0.24820792 -0.11972613 0.03134564)
(-0.18379392 -0.14693974 0.010639406)
(-0.10054694 -0.1674966 -0.0088555224)
(-0.025861703 -0.18077796 -0.020785446)
(0.029080216 -0.18758567 -0.022314666)
(-0.05149774 -0.011420983 0.011245444)
(-0.143942 -0.034364315 0.032267652)
(-0.22369069 -0.061523222 0.048091711)
(-0.26880331 -0.092569125 0.051928018)
(-0.26277879 -0.12473648 0.042399645)
(-0.20784196 -0.15497296 0.02335768)
(-0.12849284 -0.1790481 0.0035476903)
(-0.053553031 -0.19523013 -0.0099986725)
(0.003854897 -0.2044546 -0.013535371)
(-0.048686854 -0.011000803 0.011631205)
(-0.13831246 -0.033492831 0.033787524)
(-0.21939356 -0.060709006 0.051902242)
(-0.2713484 -0.09255907 0.059252594)
(-0.2765486 -0.12641113 0.05336978)
(-0.2329427 -0.15922264 0.036562699)
(-0.15948478 -0.18675941 0.016877529)
(-0.085395069 -0.20609113 0.0018988751)
(-0.026075705 -0.21806645 -0.0036964554)
(-0.045382249 -0.010367973 0.011879555)
(-0.1312674 -0.031938072 0.03488734)
(-0.2129571 -0.05857862 0.05503343)
(-0.27169434 -0.090427901 0.065789777)
(-0.28918487 -0.12517548 0.063762564)
(-0.25912012 -0.15982553 0.049786489)
(-0.19469679 -0.19021421 0.030796052)
(-0.12259347 -0.2128834 0.014661565)
(-0.062049127 -0.22775709 0.0073044758)
(-0.041880962 -0.0092273723 0.011467606)
(-0.12369631 -0.029055323 0.034194412)
(-0.2057891 -0.05434687 0.055495589)
(-0.27143319 -0.085455736 0.069400912)
(-0.3019737 -0.12038575 0.071809578)
(-0.28714675 -0.15622934 0.061818837)
(-0.23442674 -0.18886797 0.044480697)
(-0.16661265 -0.21457236 0.027349059)
(-0.1063034 -0.2316963 0.017533813)
(-0.079095022 0.0018204886 0.0016476511)
(-0.24101517 0.0058815886 0.0050378072)
(-0.41560973 0.01101291 0.0082572147)
(-0.57434107 0.016809166 0.010167614)
(-0.68006934 0.022345481 0.0094473233)
(-0.70593699 0.026544346 0.0052398738)
(-0.65580573 0.028974514 -0.0018768474)
(-0.56393548 0.030523813 -0.0094327913)
(-0.47108472 0.031772818 -0.01587059)
(-0.086408719 0.0022073829 0.0017735796)
(-0.25961755 0.0069993286 0.0053281784)
(-0.44008774 0.012816266 0.0084392157)
(-0.59438982 0.019048825 0.0097336786)
(-0.68319199 0.024579552 0.0078116358)
(-0.68412635 0.028374261 0.0020462923)
(-0.61084789 0.03036218 -0.0063302556)
(-0.50452522 0.031797111 -0.014009911)
(-0.40729832 0.03236124 -0.019548065)
(-0.093145955 0.0024547972 0.0017123319)
(-0.27663002 0.0077300638 0.0050799313)
(-0.46213172 0.014012949 0.0077503345)
(-0.6117283 0.020523318 0.0082319165)
(-0.68473492 0.025995245 0.0051525021)
(-0.66384245 0.029485168 -0.0018700449)
(-0.57220889 0.031278809 -0.010905117)
(-0.45595807 0.032533072 -0.017972469)
(-0.35735187 0.032617862 -0.021900402)
(-0.098943123 0.0026104585 0.0015787692)
(-0.29085421 0.0081699144 0.004606049)
(-0.47964034 0.014693964 0.006672697)
(-0.62358549 0.021276739 0.0062200245)
(-0.68161791 0.026569554 0.0019807919)
(-0.64172228 0.029809147 -0.0061738505)
(-0.53524735 0.031660108 -0.01546978)
(-0.41359455 0.032260338 -0.021663582)
(-0.31586305 0.03185229 -0.023905963)
(-0.10361918 0.0026308513 0.0013772946)
(-0.30195565 0.0082166938 0.0039421217)
(-0.49236597 0.014723425 0.0053170854)
(-0.63000212 0.021158964 0.0039385586)
(-0.67402584 0.026265143 -0.0014405262)
(-0.61774109 0.029353423 -0.010578972)
(-0.49948016 0.031195749 -0.019870781)
(-0.37571201 0.031116222 -0.024978246)
(-0.28060211 0.030376788 -0.025725097)
(-0.1073505 0.0025465569 0.0011260955)
(-0.31043132 0.007945217 0.0031353468)
(-0.5011274 0.014188773 0.0037673647)
(-0.63203792 0.02028657 0.0014774694)
(-0.66297796 0.025073473 -0.0049493536)
(-0.59260801 0.027985114 -0.014931209)
(-0.46536562 0.029674143 -0.024000782)
(-0.34153912 0.02915145 -0.027937688)
(-0.25015645 0.028241213 -0.027448261)
(-0.1102146 0.0023576611 0.00086946112)
(-0.31656084 0.0073501625 0.0023121738)
(-0.50649863 0.013086149 0.0022163277)
(-0.63061587 0.018637325 -0.00092075118)
(-0.64969811 0.022948666 -0.0082885509)
(-0.56719463 0.025648422 -0.018967732)
(-0.43358188 0.027090972 -0.02778649)
(-0.31096019 0.026386494 -0.030600524)
(-0.22379373 0.025428684 -0.029058326)
(-0.11231664 0.0020670284 0.00062101243)
(-0.32078468 0.0064451057 0.0015257629)
(-0.50940248 0.011466545 0.00077420281)
(-0.62721647 0.016288866 -0.0030740065)
(-0.63603447 0.020028129 -0.01121873)
(-0.54330239 0.022530034 -0.022469049)
(-0.40528728 0.02364791 -0.031049181)
(-0.28439686 0.02287158 -0.03287772)
(-0.2013588 0.02194813 -0.030463287)
(-0.11380481 0.0016970385 0.00040088537)
(-0.32358286 0.0052951067 0.00083358067)
(-0.51073142 0.0094193375 -0.00047433674)
(-0.62314375 0.013375096 -0.0049004223)
(-0.62353916 0.016492384 -0.013681199)
(-0.52261862 0.018680512 -0.025343383)
(-0.38152665 0.019414644 -0.033623506)
(-0.26238168 0.018652876 -0.034666054)
(-0.18298073 0.01784022 -0.03157516)
(-0.11479524 0.0012649013 0.00022060671)
(-0.32531429 0.0039495187 0.00026630881)
(-0.5111054 0.0070287759 -0.00149725)
(-0.61925974 0.0099956189 -0.0063966236)
(-0.61318935 0.012387874 -0.015640759)
(-0.50606476 0.014098267 -0.027504951)
(-0.36301804 0.014481122 -0.035461344)
(-0.24539259 0.013829503 -0.035933266)
(-0.16889869 0.01319195 -0.032353897)
(-0.11544448 0.0007884778 9.1409684e-05)
(-0.32631894 0.0024585087 -0.00014297562)
(-0.51096097 0.0043692994 -0.0022422739)
(-0.61603713 0.0062136209 -0.0075000853)
(-0.60555717 0.0077272464 -0.017081398)
(-0.49437669 0.0088307512 -0.028976379)
(-0.35026373 0.0089720578 -0.036595638)
(-0.23380652 0.0085260704 -0.036706679)
(-0.159357 0.0081154109 -0.032819837)
(-0.11569367 0.00026433252 2.7867909e-05)
(-0.32670315 0.00082410619 -0.00034413588)
(-0.51082111 0.0014672381 -0.0026094381)
(-0.6144439 0.0020900165 -0.0080492486)
(-0.60180179 0.00260571 -0.017811436)
(-0.48857868 0.0029869861 -0.02971047)
(-0.34390046 0.0030227726 -0.037131676)
(-0.22799778 0.0028709999 -0.037068734)
(-0.15456205 0.0027358862 -0.033033493)
(-0.11569367 -0.00026433099 2.786436e-05)
(-0.32670314 -0.00082408957 -0.00034415904)
(-0.5108211 -0.0014671959 -0.0026094573)
(-0.61444389 -0.0020900085 -0.0080492397)
(-0.60180179 -0.0026058196 -0.017811424)
(-0.48857869 -0.0029872018 -0.029710468)
(-0.34390048 -0.0030230579 -0.037131674)
(-0.2279978 -0.0028712338 -0.037068747)
(-0.15456209 -0.0027358775 -0.033033518)
(-0.11544447 -0.00078845446 9.1394399e-05)
(-0.32631893 -0.0024584599 -0.0001430379)
(-0.51096096 -0.0043692405 -0.0022423214)
(-0.61603712 -0.006213615 -0.0075000654)
(-0.60555717 -0.0077273581 -0.017081379)
(-0.49437673 -0.0088309732 -0.028976381)
(-0.35026378 -0.0089723429 -0.036595633)
(-0.23380659 -0.0085262959 -0.036706717)
(-0.15935708 -0.0081154092 -0.032819904)
(-0.11479524 -0.0012648567 0.0002205852)
(-0.32531431 -0.0039494392 0.00026625673)
(-0.51110544 -0.0070287053 -0.001497269)
(-0.61925976 -0.0099956144 -0.0063965999)
(-0.61318939 -0.01238798 -0.015640766)
(-0.50606485 -0.014098494 -0.027504968)
(-0.36301814 -0.014481402 -0.035461345)
(-0.24539268 -0.013829713 -0.035933321)
(-0.16889878 -0.013191955 -0.032353986)
(-0.11380482 -0.0016970019 0.00040088272)
(-0.3235829 -0.0052950388 0.00083359597)
(-0.51073148 -0.0094192695 -0.00047429725)
(-0.6231438 -0.013375076 -0.0049004306)
(-0.62353926 -0.016492471 -0.013681252)
(-0.52261873 -0.018680741 -0.025343407)
(-0.38152676 -0.019414917 -0.033623515)
(-0.26238175 -0.018653074 -0.03466611)
(-0.1829808 -0.017840236 -0.031575253)
(-0.11231664 -0.0020670044 0.0006210175)
(-0.3207847 -0.0064450509 0.0015257751)
(-0.50940255 -0.011466467 0.0007741782)
(-0.62721657 -0.016288825 -0.0030741027)
(-0.63603462 -0.020028216 -0.011218798)
(-0.54330246 -0.022530284 -0.02246905)
(-0.40528734 -0.0236482 -0.031049183)
(-0.28439688 -0.022871796 -0.032877739)
(-0.20135884 -0.021948161 -0.030463376)
(-0.11021462 -0.0023576411 0.00086945444)
(-0.3165609 -0.0073501145 0.0023121641)
(-0.50649876 -0.013086092 0.0022162834)
(-0.63061602 -0.018637324 -0.00092079017)
(-0.64969824 -0.022948802 -0.0082885258)
(-0.56719463 -0.025648714 -0.018967681)
(-0.43358189 -0.027091318 -0.027786457)
(-0.31096018 -0.026386755 -0.030600481)
(-0.22379376 -0.025428693 -0.029058413)
(-0.1073505 -0.0025465458 0.0011261051)
(-0.31043134 -0.0079451885 0.0031353915)
(-0.50112744 -0.014188751 0.0037674194)
(-0.63203793 -0.020286609 0.0014775102)
(-0.66297804 -0.025073629 -0.0049493104)
(-0.59260803 -0.027985429 -0.01493114)
(-0.46536566 -0.029674545 -0.024000693)
(-0.34153911 -0.029151735 -0.027937612)
(-0.25015644 -0.028241151 -0.02744835)
(-0.10361916 -0.002630832 0.0013772935)
(-0.30195564 -0.0082166558 0.0039421052)
(-0.49236597 -0.014723398 0.0053170324)
(-0.63000216 -0.021159007 0.0039384819)
(-0.67402598 -0.026265315 -0.0014404923)
(-0.61774117 -0.029353739 -0.010578807)
(-0.49948025 -0.031196152 -0.019870606)
(-0.37571199 -0.031116468 -0.024978178)
(-0.28060207 -0.030376715 -0.025725161)
(-0.098943105 -0.0026104425 0.0015787539)
(-0.29085417 -0.0081698988 0.0046060019)
(-0.47964032 -0.014693964 0.0066726725)
(-0.62358551 -0.021276816 0.0062200891)
(-0.68161794 -0.026569771 0.0019809986)
(-0.64172238 -0.029809477 -0.0061735922)
(-0.53524744 -0.031660519 -0.015469547)
(-0.41359452 -0.032260573 -0.021663454)
(-0.31586296 -0.031852304 -0.0239059)
(-0.09314595 -0.002454799 0.0017123288)
(-0.27663002 -0.0077300924 0.0050799265)
(-0.46213176 -0.014013023 0.0077503658)
(-0.61172839 -0.020523495 0.0082320113)
(-0.68473507 -0.02599556 0.0051526814)
(-0.66384264 -0.029485551 -0.001869741)
(-0.57220898 -0.031279237 -0.010904764)
(-0.45595797 -0.032533372 -0.017972183)
(-0.35735171 -0.032617856 -0.021900261)
(-0.086408696 -0.0022073873 0.0017735834)
(-0.25961749 -0.0069993573 0.0053281876)
(-0.44008766 -0.012816319 0.0084392588)
(-0.59438975 -0.019048942 0.0097337883)
(-0.68319196 -0.024579777 0.0078118677)
(-0.68412635 -0.028374557 0.002046684)
(-0.61084785 -0.030362441 -0.0063298686)
(-0.50452503 -0.031797235 -0.014009786)
(-0.40729806 -0.032361031 -0.019548259)
(-0.079095001 -0.0018204961 0.0016476573)
(-0.24101512 -0.0058816225 0.0050378302)
(-0.41560965 -0.011012978 0.0082572737)
(-0.574341 -0.016809287 0.010167762)
(-0.68006935 -0.022345699 0.009447603)
(-0.70593711 -0.02654468 0.0052402734)
(-0.65580575 -0.028974875 -0.0018765552)
(-0.5639354 -0.030524061 -0.0094328329)
(-0.47108456 -0.031772845 -0.015870851)
(-0.066898689 0.00069057564 0.00061110011)
(-0.20486854 0.0020221775 0.0017412491)
(-0.35492605 0.00339219 0.0025923767)
(-0.49218951 0.004460896 0.0025645627)
(-0.58238039 0.0047983304 0.00069897814)
(-0.59783039 0.0038911487 -0.0037619586)
(-0.53866135 0.0014826252 -0.010536368)
(-0.43724941 -0.0021511822 -0.017681543)
(-0.33639797 -0.0056511424 -0.023135672)
(-0.072817518 0.00061277176 0.0004684103)
(-0.22024598 0.001709293 0.0012677957)
(-0.3757164 0.0027142773 0.0016338808)
(-0.50988231 0.0032727044 0.00088396603)
(-0.58548895 0.0029800792 -0.0020286058)
(-0.5772049 0.0014036579 -0.0077885742)
(-0.49348205 -0.0015797055 -0.01570813)
(-0.37591648 -0.0054399235 -0.023363646)
(-0.26841499 -0.0086739677 -0.028414341)
(-0.078307637 0.00055200406 0.00035338309)
(-0.23455018 0.0014601412 0.00088698204)
(-0.3950851 0.002170132 0.00086079577)
(-0.52641938 0.0023303867 -0.00045500308)
(-0.58878697 0.0016132795 -0.0041732592)
(-0.5596095 -0.00028163361 -0.010893218)
(-0.45560251 -0.0033733091 -0.019495303)
(-0.32642815 -0.0069474467 -0.027239232)
(-0.21534323 -0.0096421259 -0.031676627)
(-0.083032416 0.00048311082 0.00025255128)
(-0.24664486 0.0012064415 0.00056093927)
(-0.41096935 0.0016562027 0.00020369976)
(-0.53892473 0.0014981315 -0.0015936193)
(-0.58892311 0.0004872709 -0.005999993)
(-0.54141619 -0.0015880066 -0.013528176)
(-0.42092504 -0.0046992333 -0.022599362)
(-0.28375314 -0.0078300524 -0.030164617)
(-0.17106167 -0.010095399 -0.034040766)
(-0.086788436 0.00041407906 0.00017108245)
(-0.25605676 0.00097253746 0.00030717489)
(-0.42276842 0.0012109556 -0.00029859914)
(-0.54679337 0.00082828903 -0.0024663703)
(-0.58528735 -0.00036976451 -0.007419042)
(-0.52180292 -0.002519788 -0.015566995)
(-0.38835852 -0.0055135664 -0.025023649)
(-0.24578006 -0.0080950263 -0.032413982)
(-0.13319112 -0.0099586096 -0.035719522)
(-0.089712431 0.0003511309 0.00010539109)
(-0.26311906 0.00077695019 0.00011222044)
(-0.43093382 0.000867594 -0.00067277633)
(-0.55051403 0.00034146738 -0.0031101122)
(-0.57824817 -0.00092540513 -0.0084773673)
(-0.50080801 -0.0029886935 -0.017025457)
(-0.35719961 -0.0056773374 -0.026782198)
(-0.21133794 -0.0077516512 -0.034120744)
(-0.10022405 -0.0093110897 -0.036923849)
(-0.091887427 0.00028666131 5.2180103e-05)
(-0.26808558 0.00059452156 -3.8750871e-05)
(-0.43592444 0.00058032524 -0.0009594692)
(-0.55076642 -1.0952277e-05 -0.0036039022)
(-0.56857839 -0.0012152892 -0.0092927128)
(-0.47911468 -0.0030534952 -0.018105757)
(-0.32761534 -0.0053165591 -0.028009141)
(-0.18011859 -0.0069788743 -0.035345606)
(-0.071392776 -0.008293066 -0.037770375)
(-0.093406677 0.0002217617 1.1336926e-05)
(-0.27133122 0.00043016919 -0.00014943397)
(-0.43853589 0.00033971489 -0.0011638747)
(-0.54879331 -0.0002495373 -0.0039610361)
(-0.5578479 -0.0013238765 -0.0099129582)
(-0.4582756 -0.0029131137 -0.018908916)
(-0.30066099 -0.0046839858 -0.028864625)
(-0.15257084 -0.0059448504 -0.036204931)
(-0.046594281 -0.0070257824 -0.038353642)
(-0.094417715 0.00015980553 -1.7736303e-05)
(-0.2733213 0.00028512091 -0.00022358511)
(-0.43959194 0.00015756431 -0.0012892037)
(-0.5457784 -0.000374748 -0.0041698885)
(-0.54751827 -0.0012849871 -0.010293565)
(-0.43981831 -0.0025972248 -0.019455783)
(-0.27749964 -0.0038603999 -0.029485923)
(-0.12937549 -0.004750882 -0.036798722)
(-0.026064264 -0.0055952897 -0.038738765)
(-0.095044822 0.00010575063 -3.6638164e-05)
(-0.27443107 0.0001720513 -0.00026715376)
(-0.43973497 4.5695994e-05 -0.0013547601)
(-0.54261445 -0.00037976541 -0.0042714446)
(-0.53868622 -0.0010812323 -0.010488452)
(-0.42495594 -0.002067007 -0.019776738)
(-0.25913378 -0.0028826784 -0.029903179)
(-0.11122804 -0.0034663692 -0.037166297)
(-0.010183526 -0.0040612973 -0.038970942)
(-0.095460775 5.8473432e-05 -4.7682695e-05)
(-0.27505335 8.6451439e-05 -0.00029020526)
(-0.43948252 -6.1216986e-06 -0.001385008)
(-0.53988675 -0.00028306378 -0.0043081212)
(-0.53200369 -0.00073279561 -0.010557756)
(-0.41427791 -0.0013537393 -0.019948507)
(-0.24626836 -0.0017867847 -0.030177377)
(-0.098709994 -0.0021102636 -0.037379011)
(0.00065942252 -0.0024632482 -0.039090944)
(-0.095586326 1.763662e-05 -5.1901481e-05)
(-0.27521614 2.2308956e-05 -0.00029676008)
(-0.43923429 -1.3860707e-05 -0.0013879527)
(-0.53848099 -0.00011239499 -0.0043029035)
(-0.52867845 -0.00026853739 -0.010553761)
(-0.40895293 -0.00048115316 -0.020002932)
(-0.23981192 -0.0006132992 -0.030304339)
(-0.092402666 -0.00071372309 -0.037471611)
(0.0061325277 -0.00082757281 -0.039135818)
(-0.095586324 -1.7596253e-05 -5.1899181e-05)
(-0.27521614 -2.2214309e-05 -0.00029675423)
(-0.43923429 1.3975709e-05 -0.0013879371)
(-0.53848099 0.00011245184 -0.0043028866)
(-0.52867845 0.00026844551 -0.010553747)
(-0.40895295 0.00048090645 -0.02000292)
(-0.23981193 0.00061297668 -0.030304336)
(-0.092402687 0.00071351607 -0.037471623)
(0.0061325001 0.0008276407 -0.039135845)
(-0.095460772 -5.843916e-05 -4.7678248e-05)
(-0.27505335 -8.6375136e-05 -0.00029018991)
(-0.43948252 6.2136018e-06 -0.0013849809)
(-0.53988675 0.00028310189 -0.0043080954)
(-0.53200371 0.00073269388 -0.010557732)
(-0.41427795 0.0013534828 -0.01994848)
(-0.24626842 0.0017864699 -0.030177375)
(-0.098710058 0.0021100707 -0.037379049)
(0.00065934529 0.0024633383 -0.039091024)
(-0.095044821 -0.0001057222 -3.6639648e-05)
(-0.27443107 -0.00017198998 -0.0002671525)
(-0.43973498 -4.5623545e-05 -0.0013547704)
(-0.54261446 0.00037978543 -0.004271463)
(-0.53868627 0.0010811189 -0.010488448)
(-0.42495601 0.0020667375 -0.019776715)
(-0.25913388 0.0028823724 -0.029903195)
(-0.11122814 0.0034661911 -0.037166362)
(-0.010183637 0.0040614132 -0.038971065)
(-0.094417717 -0.00015976908 -1.7749954e-05)
(-0.2733213 -0.00028504357 -0.00022362459)
(-0.43959196 -0.00015747622 -0.0012892673)
(-0.54577844 0.00037476968 -0.0041699624)
(-0.54751836 0.00128487 -0.010293591)
(-0.43981842 0.0025969495 -0.019455776)
(-0.27749978 0.0038600952 -0.029485961)
(-0.12937562 0.0047507029 -0.036798803)
(-0.02606439 0.0055954146 -0.038738915)
(-0.093406679 -0.00022171763 1.1323648e-05)
(-0.27133123 -0.00043008124 -0.00014947526)
(-0.43853592 -0.00033961681 -0.0011639231)
(-0.54879337 0.00024955344 -0.0039611095)
(-0.55784801 0.0013237511 -0.0099129953)
(-0.45827574 0.0029128339 -0.018908918)
(-0.30066115 0.0046836631 -0.028864663)
(-0.15257098 0.0059446488 -0.036204997)
(-0.046594409 0.0070259005 -0.038353808)
(-0.091887427 -0.00028662588 5.2175254e-05)
(-0.26808559 -0.00059445542 -3.8767731e-05)
(-0.43592448 -0.000580256 -0.0009595009)
(-0.55076649 1.0931589e-05 -0.0036039866)
(-0.56857851 0.0012151191 -0.0092927678)
(-0.47911482 0.0030531763 -0.018105744)
(-0.3276155 0.0053161796 -0.028009126)
(-0.18011873 0.0069786378 -0.035345623)
(-0.071392897 0.0082931932 -0.037770559)
(-0.089712428 -0.00035109415 0.00010537994)
(-0.26311906 -0.00077687975 0.00011218443)
(-0.43093384 -0.00086752005 -0.00067283195)
(-0.5505141 -0.00034151139 -0.0031102087)
(-0.57824828 0.00092515522 -0.0084774008)
(-0.50080816 0.0029882769 -0.017025377)
(-0.35719976 0.0056768607 -0.026782087)
(-0.21133808 0.007751387 -0.034120711)
(-0.10022415 0.0093112696 -0.036924055)
(-0.08678843 -0.00041404169 0.00017107069)
(-0.25605675 -0.00097245875 0.00030715778)
(-0.42276843 -0.0012108709 -0.00029858779)
(-0.54679341 -0.00082834451 -0.0024663382)
(-0.58528744 0.00036944933 -0.0074189367)
(-0.52180305 0.0025192946 -0.015566803)
(-0.38835868 0.0055130513 -0.025023463)
(-0.24578018 0.0080947925 -0.032413948)
(-0.13319119 0.0099588671 -0.035719708)
(-0.083032409 -0.00048309112 0.00025254911)
(-0.24664485 -0.001206403 0.00056096035)
(-0.41096935 -0.0016561676 0.00020378864)
(-0.53892476 -0.0014982272 -0.0015934742)
(-0.5889232 -0.00048761825 -0.0059998001)
(-0.54141632 0.0015875047 -0.013527944)
(-0.42092518 0.0046987953 -0.022599167)
(-0.28375323 0.0078299376 -0.030164572)
(-0.1710617 0.010095679 -0.034040792)
(-0.078307627 -0.00055199431 0.00035338316)
(-0.23455015 -0.0014601292 0.00088700709)
(-0.39508508 -0.0021701253 0.00086088521)
(-0.52641939 -0.0023304774 -0.00045485603)
(-0.58878705 -0.0016135867 -0.0041730766)
(-0.55960963 0.00028115641 -0.010892993)
(-0.45560262 0.0033729249 -0.019495079)
(-0.32642819 0.0069474559 -0.02723901)
(-0.2153432 0.0096424666 -0.031676437)
(-0.072817503 -0.00061276472 0.00046840568)
(-0.22024594 -0.0017092897 0.0012678032)
(-0.37571635 -0.0027142918 0.0016339272)
(-0.50988228 -0.0032727894 0.00088408492)
(-0.58548898 -0.0029803122 -0.0020283751)
(-0.57720498 -0.0014040334 -0.0077882401)
(-0.49348209 0.0015794121 -0.015707822)
(-0.37591646 0.0054400893 -0.023363326)
(-0.2684149 0.00867461 -0.028414268)
(-0.066898669 -0.00069057711 0.00061110238)
(-0.20486849 -0.0020221938 0.0017412712)
(-0.35492597 -0.0033922309 0.002592445)
(-0.49218943 -0.0044609945 0.0025647293)
(-0.58238036 -0.0047985315 0.00069929086)
(-0.59783041 -0.003891435 -0.0037615779)
(-0.53866134 -0.0014828526 -0.010536085)
(-0.43724936 0.0021512891 -0.017681242)
(-0.33639788 0.005651526 -0.023135492)
(-0.07268457 0.00037777388 0.00034177694)
(-0.22200463 0.001097152 0.00095978201)
(-0.38383301 0.0017301122 0.0013958466)
(-0.53164645 0.0018920623 0.0013029192)
(-0.6294526 0.00097852207 0.00027028715)
(-0.64863669 -0.0015696805 -0.0020941043)
(-0.58966712 -0.0058281084 -0.0058554367)
(-0.48560042 -0.011031964 -0.010363942)
(-0.38033826 -0.015981704 -0.014643729)
(-0.079373113 0.00041106787 0.00032678503)
(-0.23947787 0.0011531101 0.00088605074)
(-0.40788532 0.0017270703 0.0011763633)
(-0.55352179 0.0016608139 0.00078604745)
(-0.63752486 0.0002596615 -0.00075911346)
(-0.63369367 -0.0030480602 -0.0038527459)
(-0.55065843 -0.0081496708 -0.0084118277)
(-0.42965894 -0.013902558 -0.013500299)
(-0.31582645 -0.018815922 -0.018025527)
(-0.085622528 0.00044413794 0.00030145857)
(-0.25588496 0.0012091127 0.00077895098)
(-0.43061208 0.001734333 0.00089806579)
(-0.57454334 0.0014844523 0.0002139859)
(-0.64639474 -0.00027427298 -0.0017643421)
(-0.62273965 -0.004068718 -0.0054152798)
(-0.51993876 -0.0095773495 -0.010516164)
(-0.38573545 -0.015381035 -0.015845425)
(-0.26645787 -0.020022408 -0.020010769)
(-0.091046914 0.00044134032 0.0002521418)
(-0.269937 0.0011656083 0.00060488694)
(-0.44968381 0.0015908643 0.00051358085)
(-0.59145436 0.0011467987 -0.00048311892)
(-0.65219829 -0.0009042901 -0.0028638995)
(-0.61143659 -0.0050217346 -0.0069648091)
(-0.49247781 -0.010696912 -0.012428396)
(-0.34827992 -0.016335867 -0.017731222)
(-0.22556763 -0.020583449 -0.021316495)
(-0.095427615 0.00040833694 0.00019317303)
(-0.28112089 0.0010396464 0.00040924695)
(-0.46443271 0.0013248468 0.00011232832)
(-0.60353776 0.00069007972 -0.0011609593)
(-0.65410242 -0.0015722901 -0.0038725323)
(-0.59850909 -0.0058342865 -0.0082761191)
(-0.46632118 -0.011413519 -0.013885942)
(-0.31483685 -0.016738682 -0.018999051)
(-0.19053967 -0.02043641 -0.021940709)
(-0.098907999 0.00035463791 0.00013152771)
(-0.28977984 0.00086169732 0.00021446542)
(-0.47530458 0.00099241064 -0.00026000741)
(-0.61118147 0.00019447798 -0.0017453565)
(-0.652254 -0.0021725433 -0.004663262)
(-0.58371813 -0.0063637008 -0.0092183644)
(-0.44063006 -0.011633565 -0.014770755)
(-0.28414724 -0.016493465 -0.019537677)
(-0.15984659 -0.019557965 -0.021897498)
(-0.10156646 0.00028729396 7.71292e-05)
(-0.29615122 0.0006539897 4.8676383e-05)
(-0.48271777 0.00063278963 -0.00056033)
(-0.61499707 -0.00027523146 -0.0021788894)
(-0.64737721 -0.0026175947 -0.0051897513)
(-0.56766612 -0.0065518489 -0.009760592)
(-0.41569291 -0.011340297 -0.015138971)
(-0.25596742 -0.015561187 -0.019484543)
(-0.13281184 -0.017977717 -0.021348569)
(-0.10349367 0.00021823423 3.4339508e-05)
(-0.30060014 0.00045532216 -7.50613e-05)
(-0.48743315 0.00032012577 -0.00076767984)
(-0.61617011 -0.00061446173 -0.0024426099)
(-0.64091909 -0.0027952562 -0.0054528176)
(-0.55179455 -0.0062880481 -0.0099340666)
(-0.39265895 -0.010421261 -0.015076926)
(-0.23086707 -0.013920461 -0.019012143)
(-0.10944477 -0.015737715 -0.020499613)
(-0.10483418 0.00015482547 3.8697812e-06)
(-0.30357555 0.00028883447 -0.00015711058)
(-0.49023989 9.4556133e-05 -0.00089031956)
(-0.61580889 -0.00077064464 -0.0025663045)
(-0.63420477 -0.0026447268 -0.0055094702)