/*--------------------------------*- C++ -*----------------------------------*\
  =========                 |
  \\      /  F ield         | OpenFOAM: The Open Source CFD Toolbox
   \\    /   O peration     | Website:  https://openfoam.org
    \\  /    A nd           | Version:  10
     \\/     M anipulation  |
\*---------------------------------------------------------------------------*/
FoamFile
{
    format      ascii;
    class       volScalarField;
    location    "15.5";
    object      T;
}
// * * * * * * * * * * * * * * * * * * * * * * * * * * * * * * * * * * * * * //

dimensions      [0 0 -1 0 0 0 0];

internalField   nonuniform List<scalar> 
100
(
3.1759
9.49821
15.7362
21.8345
27.7391
33.3974
38.7592
43.7771
48.4064
52.606
56.3387
59.5713
62.2752
64.4263
66.0056
66.999
67.3977
67.1982
66.4022
65.0169
63.0545
60.5323
57.473
53.9034
49.8555
45.365
40.4718
35.2195
29.6545
23.8263
17.7866
11.5891
5.28864
-1.05871
-7.39666
-13.669
-19.8199
-25.795
-31.5411
-37.0072
-42.1448
-46.9084
-51.2556
-55.1478
-58.5506
-61.4336
-63.7714
-65.5431
-66.7331
-67.3307
-67.3307
-66.7331
-65.5431
-63.7714
-61.4336
-58.5506
-55.1478
-51.2555
-46.9083
-42.1448
-37.0071
-31.541
-25.7949
-19.8199
-13.6689
-7.39658
-1.05862
5.28873
11.5891
17.7867
23.8264
29.6546
35.2195
40.4719
45.3651
49.8555
53.9035
57.473
60.5324
63.0545
65.017
66.4023
67.1983
67.3978
66.999
66.0056
64.4264
62.2752
59.5714
56.3387
52.606
48.4064
43.7771
38.7593
33.3974
27.7391
21.8345
15.7362
9.49821
3.17591
)
;

boundaryField
{
    xmin
    {
        type            fixedValue;
        value           uniform 0;
    }
    xmax
    {
        type            fixedValue;
        value           uniform 0;
    }
    frontAndBack
    {
        type            empty;
    }
}


// ************************************************************************* //
