/*--------------------------------*- C++ -*----------------------------------*\
  =========                 |
  \\      /  F ield         | OpenFOAM: The Open Source CFD Toolbox
   \\    /   O peration     | Website:  https://openfoam.org
    \\  /    A nd           | Version:  10
     \\/     M anipulation  |
\*---------------------------------------------------------------------------*/
FoamFile
{
    format      ascii;
    class       volScalarField;
    location    "15.5";
    object      T_0;
}
// * * * * * * * * * * * * * * * * * * * * * * * * * * * * * * * * * * * * * //

dimensions      [0 0 -1 0 0 0 0];

internalField   nonuniform List<scalar> 
100
(
3.17896
9.50736
15.7514
21.8556
27.7658
33.4295
38.7966
43.8193
48.453
52.6567
56.393
59.6287
62.3352
64.4884
66.0692
67.0635
67.4626
67.2629
66.4662
65.0795
63.1152
60.5907
57.5283
53.9554
49.9035
45.4087
40.5108
35.2534
29.683
23.8492
17.8037
11.6002
5.29374
-1.05973
-7.40379
-13.6821
-19.839
-25.8198
-31.5714
-37.0428
-42.1854
-46.9536
-51.305
-55.201
-58.607
-61.4928
-63.8329
-65.6063
-66.7974
-67.3956
-67.3956
-66.7974
-65.6063
-63.8328
-61.4928
-58.607
-55.2009
-51.3049
-46.9535
-42.1854
-37.0428
-31.5714
-25.8198
-19.8389
-13.682
-7.4037
-1.05964
5.29383
11.6003
17.8038
23.8493
29.6831
35.2535
40.5109
45.4088
49.9036
53.9555
57.5284
60.5907
63.1153
65.0796
66.4663
67.263
67.4627
67.0636
66.0692
64.4884
62.3352
59.6288
56.393
52.6567
48.453
43.8193
38.7966
33.4296
27.7658
21.8556
15.7514
9.50737
3.17897
)
;

boundaryField
{
    xmin
    {
        type            fixedValue;
        value           uniform 0;
    }
    xmax
    {
        type            fixedValue;
        value           uniform 0;
    }
    frontAndBack
    {
        type            empty;
    }
}


// ************************************************************************* //
