/*--------------------------------*- C++ -*----------------------------------*\
| =========                 |                                                 |
| \\      /  F ield         | OpenFOAM: The Open Source CFD Toolbox           |
|  \\    /   O peration     | Version:  2406                                  |
|   \\  /    A nd           | Website:  www.openfoam.com                      |
|    \\/     M anipulation  |                                                 |
\*---------------------------------------------------------------------------*/
FoamFile
{
    version     2.0;
    format      ascii;
    arch        "LSB;label=32;scalar=64";
    class       volScalarField;
    location    "4.75";
    object      p;
}
// * * * * * * * * * * * * * * * * * * * * * * * * * * * * * * * * * * * * * //

dimensions      [0 2 -2 0 0 0 0];

internalField   nonuniform List<scalar> 
34560
(
-2.4998462
-2.4939956
-2.4876232
-2.4802644
-2.4694022
-2.4519483
-2.4281035
-2.4014276
-2.3787676
-2.5373281
-2.5310954
-2.5243924
-2.5156256
-2.501182
-2.4780282
-2.4482011
-2.4191576
-2.3977158
-2.5497005
-2.5438382
-2.5384475
-2.5317014
-2.5185915
-2.4949833
-2.464092
-2.4345137
-2.4127422
-2.5553287
-2.5502101
-2.5463735
-2.5416991
-2.5305101
-2.507897
-2.4770842
-2.4468622
-2.4245485
-2.5530532
-2.5489299
-2.5473009
-2.5455706
-2.5370135
-2.5161086
-2.4858934
-2.4557482
-2.4330886
-2.5395363
-2.5370074
-2.538375
-2.5408885
-2.5366797
-2.5189034
-2.4902931
-2.4607683
-2.4378299
-2.519542
-2.5187494
-2.5232711
-2.5302251
-2.5308524
-2.5168987
-2.4903792
-2.4618365
-2.4382976
-2.4939636
-2.4951083
-2.5030254
-2.5147559
-2.5206019
-2.5108186
-2.4865173
-2.4590897
-2.4345138
-2.4653957
-2.4686204
-2.4799581
-2.4963997
-2.507508
-2.5019768
-2.4795305
-2.4532183
-2.427329
-2.4371777
-2.4424635
-2.4570109
-2.4777349
-2.4935506
-2.491507
-2.4717261
-2.4459293
-2.4184097
-2.4138197
-2.4209297
-2.4381139
-2.4621203
-2.481375
-2.4821211
-2.4652758
-2.4388806
-2.4098386
-2.4008633
-2.408906
-2.4274373
-2.4531265
-2.4741949
-2.4765586
-2.4610469
-2.4340998
-2.4040779
-2.4008627
-2.4089055
-2.427437
-2.4531263
-2.4741948
-2.4765586
-2.4610469
-2.4340998
-2.4040781
-2.4138186
-2.4209288
-2.4381132
-2.4621198
-2.4813746
-2.4821208
-2.4652756
-2.4388807
-2.4098391
-2.4371763
-2.4424621
-2.4570094
-2.4777335
-2.4935495
-2.4915062
-2.4717257
-2.4459293
-2.4184099
-2.4653924
-2.4686173
-2.4799551
-2.4963971
-2.5075059
-2.5019755
-2.4795298
-2.4532179
-2.4273284
-2.4939586
-2.4951036
-2.5030211
-2.5147522
-2.5205989
-2.5108166
-2.4865162
-2.4590888
-2.4345126
-2.5195366
-2.5187442
-2.5232663
-2.5302208
-2.5308486
-2.5168959
-2.4903773
-2.461835
-2.4382962
-2.5395301
-2.5370015
-2.5383696
-2.5408837
-2.5366755
-2.5188998
-2.4902902
-2.460766
-2.4378282
-2.5530462
-2.5489235
-2.5472953
-2.5455656
-2.5370089
-2.5161043
-2.4858895
-2.4557451
-2.4330862
-2.5553222
-2.5502041
-2.546368
-2.541694
-2.5305051
-2.5078922
-2.4770798
-2.4468584
-2.4245452
-2.549694
-2.543832
-2.5384418
-2.5316961
-2.5185863
-2.4949781
-2.4640874
-2.43451
-2.4127399
-2.537322
-2.5310894
-2.5243866
-2.5156202
-2.5011767
-2.4780232
-2.4481971
-2.4191556
-2.3977157
-2.4998413
-2.4939906
-2.4876181
-2.4802595
-2.4693979
-2.4519448
-2.4281009
-2.4014268
-2.3787697
-2.4105234
-2.4099722
-2.4098177
-2.4100864
-2.4101592
-2.409274
-2.4074576
-2.4056711
-2.4041234
-2.41682
-2.416037
-2.4157718
-2.4160393
-2.4159536
-2.4144532
-2.4114881
-2.4080236
-2.4045689
-2.4180235
-2.4170652
-2.4168662
-2.4174345
-2.4175431
-2.4157757
-2.4120778
-2.4076419
-2.4031306
-2.4130759
-2.4119401
-2.4118829
-2.4129568
-2.4135831
-2.41194
-2.407955
-2.4028421
-2.3973705
-2.4020175
-2.4007032
-2.4008282
-2.4025201
-2.4038349
-2.4024949
-2.3982826
-2.3925893
-2.3862633
-2.3858268
-2.3841989
-2.3843687
-2.3865885
-2.3885367
-2.3874233
-2.3829336
-2.3766922
-2.3696417
-2.3647241
-2.3627504
-2.3628975
-2.3655589
-2.3680464
-2.367052
-2.3621602
-2.3553729
-2.3477529
-2.3403172
-2.3379409
-2.3379308
-2.3408336
-2.3436313
-2.3425363
-2.3370532
-2.3296235
-2.321591
-2.3147965
-2.3119816
-2.3116752
-2.3145851
-2.3174062
-2.3159451
-2.3096935
-2.3014949
-2.2931806
-2.2912156
-2.2879423
-2.2872191
-2.2899
-2.2924568
-2.290396
-2.2832944
-2.2742326
-2.2657468
-2.2728537
-2.269187
-2.268047
-2.2703934
-2.2725509
-2.2698391
-2.2620035
-2.252113
-2.2435352
-2.262467
-2.2586343
-2.2572946
-2.2594551
-2.2613673
-2.2582613
-2.2499984
-2.2396098
-2.2309884
-2.2624669
-2.2586342
-2.2572945
-2.259455
-2.2613672
-2.2582612
-2.2499984
-2.2396098
-2.2309886
-2.2728533
-2.2691866
-2.2680465
-2.270393
-2.2725505
-2.2698387
-2.2620033
-2.2521131
-2.2435357
-2.2912148
-2.2879415
-2.2872182
-2.2898991
-2.2924559
-2.2903953
-2.2832939
-2.2742326
-2.2657473
-2.314795
-2.3119801
-2.3116737
-2.3145836
-2.3174047
-2.3159438
-2.3096927
-2.3014946
-2.293181
-2.3403149
-2.3379387
-2.3379285
-2.3408314
-2.3436292
-2.3425345
-2.3370519
-2.329623
-2.3215913
-2.3647213
-2.3627477
-2.3628947
-2.3655562
-2.3680438
-2.3670496
-2.3621584
-2.355372
-2.3477532
-2.3858237
-2.3841958
-2.3843655
-2.3865854
-2.3885336
-2.3874204
-2.3829313
-2.3766909
-2.3696418
-2.4020144
-2.4007
-2.4008248
-2.4025166
-2.4038314
-2.4024916
-2.3982798
-2.3925875
-2.386263
-2.4130726
-2.4119367
-2.4118793
-2.4129532
-2.4135794
-2.4119363
-2.4079518
-2.4028398
-2.3973695
-2.4180201
-2.4170617
-2.4168626
-2.4174308
-2.4175393
-2.4157718
-2.412074
-2.4076388
-2.4031289
-2.4168166
-2.4160335
-2.4157682
-2.4160356
-2.4159497
-2.4144491
-2.4114838
-2.4080197
-2.4045671
-2.4105199
-2.4099685
-2.4098139
-2.4100825
-2.4101553
-2.4092701
-2.4074534
-2.4056675
-2.4041217
-2.3490325
-2.3490518
-2.3490837
-2.3491069
-2.3491058
-2.3490357
-2.3488432
-2.3484843
-2.3477767
-2.3518947
-2.3519352
-2.3519576
-2.3518929
-2.3517008
-2.3513243
-2.3507014
-2.3498308
-2.3487225
-2.353932
-2.3539955
-2.3540515
-2.3540208
-2.3538342
-2.3533879
-2.3525797
-2.3514242
-2.3500643
-2.3555937
-2.3556749
-2.3557539
-2.3557491
-2.3555872
-2.3551362
-2.354245
-2.3529028
-2.3513055
-2.3567669
-2.3568607
-2.3569635
-2.3569966
-2.3568879
-2.3564802
-2.3555733
-2.3541176
-2.3523369
-2.3574086
-2.3575169
-2.3576474
-2.3577305
-2.3577013
-2.3573824
-2.356523
-2.3550297
-2.3531312
-2.3576306
-2.3577416
-2.3578871
-2.3580107
-2.3580624
-2.3578525
-2.3570826
-2.3556133
-2.3536586
-2.3574917
-2.3575985
-2.3577506
-2.3579068
-2.3580353
-2.3579409
-2.3572824
-2.355877
-2.3539156
-2.3571083
-2.3572056
-2.3573562
-2.3575339
-2.3577265
-2.3577378
-2.3571919
-2.3558663
-2.3539203
-2.3566201
-2.3567059
-2.3568496
-2.3570386
-2.3572774
-2.357374
-2.356923
-2.3556698
-2.3537484
-2.3561797
-2.3562555
-2.3563911
-2.3565832
-2.3568469
-2.3569991
-2.3566148
-2.3554116
-2.3535228
-2.3559079
-2.3559789
-2.3561101
-2.3563023
-2.3565805
-2.3567605
-2.3564097
-2.3552314
-2.3533646
-2.3559078
-2.3559788
-2.3561099
-2.3563022
-2.3565804
-2.3567604
-2.3564095
-2.3552313
-2.3533646
-2.3561793
-2.3562551
-2.3563907
-2.3565827
-2.3568465
-2.3569986
-2.3566145
-2.3554115
-2.353523
-2.3566195
-2.3567052
-2.3568489
-2.3570378
-2.3572766
-2.3573731
-2.3569224
-2.3556695
-2.3537486
-2.3571072
-2.3572045
-2.357355
-2.3575327
-2.3577252
-2.3577365
-2.3571909
-2.3558658
-2.3539206
-2.3574901
-2.3575968
-2.3577489
-2.357905
-2.3580334
-2.3579391
-2.3572809
-2.3558762
-2.3539158
-2.3576285
-2.3577394
-2.3578849
-2.3580083
-2.3580598
-2.3578501
-2.3570806
-2.3556122
-2.3536587
-2.3574058
-2.357514
-2.3576444
-2.3577273
-2.357698
-2.3573792
-2.3565203
-2.3550279
-2.353131
-2.3567633
-2.356857
-2.3569596
-2.3569925
-2.3568837
-2.3564761
-2.3555697
-2.3541152
-2.3523363
-2.3555892
-2.3556701
-2.3557491
-2.355744
-2.3555821
-2.3551311
-2.3542404
-2.3528996
-2.3513046
-2.3539264
-2.3539898
-2.3540457
-2.3540149
-2.353828
-2.3533817
-2.3525741
-2.3514203
-2.3500631
-2.3518883
-2.3519287
-2.3519509
-2.3518861
-2.3516939
-2.3513175
-2.3506952
-2.3498264
-2.3487209
-2.3490255
-2.3490448
-2.3490766
-2.3490998
-2.3490987
-2.3490288
-2.3488368
-2.3484793
-2.3477741
-2.122172
-2.1222515
-2.1223476
-2.1224644
-2.1225745
-2.1226005
-2.1224618
-2.1221464
-2.1216881
-2.1219468
-2.122027
-2.1221199
-2.1222298
-2.1223199
-2.1222976
-2.1220685
-2.1215937
-2.1209161
-2.1216885
-2.1217657
-2.1218529
-2.1219552
-2.1220319
-2.121984
-2.121714
-2.1211808
-2.1204643
-2.1211984
-2.1212704
-2.1213522
-2.1214529
-2.1215289
-2.1214758
-2.1211921
-2.1206356
-2.1198809
-2.1205029
-2.1205687
-2.1206433
-2.12074
-2.1208141
-2.120758
-2.1204659
-2.1198977
-2.1191234
-2.1196684
-2.1197203
-2.1197795
-2.1198655
-2.1199341
-2.1198762
-2.1195823
-2.1190153
-2.1182454
-2.1187034
-2.1187402
-2.1187832
-2.1188593
-2.1189246
-2.1188701
-2.1185849
-2.1180377
-2.1173054
-2.1176908
-2.1177102
-2.117734
-2.1177995
-2.1178614
-2.1178112
-2.1175401
-2.1170262
-2.1163588
-2.1167169
-2.1167182
-2.1167226
-2.1167724
-2.1168331
-2.1167866
-2.1165282
-2.1160339
-2.1153509
-2.1158802
-2.1158637
-2.1158489
-2.1158853
-2.1159366
-2.1158935
-2.1156431
-2.1151511
-2.1143821
-2.1152616
-2.1152308
-2.1152005
-2.1152258
-2.1152698
-2.115229
-2.1149767
-2.1144574
-2.1136729
-2.1149244
-2.1148878
-2.1148512
-2.1148719
-2.1149137
-2.1148704
-2.1146107
-2.114054
-2.1133007
-2.1149243
-2.1148877
-2.1148511
-2.1148718
-2.1149136
-2.1148703
-2.1146106
-2.1140539
-2.1133007
-2.1152613
-2.1152305
-2.1152002
-2.1152254
-2.1152694
-2.1152285
-2.1149763
-2.1144571
-2.1136729
-2.1158797
-2.1158632
-2.1158483
-2.1158846
-2.1159358
-2.1158927
-2.1156424
-2.1151506
-2.1143821
-2.1167161
-2.1167174
-2.1167217
-2.1167714
-2.116832
-2.1167854
-2.1165271
-2.1160331
-2.1153508
-2.1176896
-2.1177089
-2.1177326
-2.117798
-2.1178598
-2.1178095
-2.1175385
-2.1170251
-2.1163584
-2.1187016
-2.1187383
-2.1187813
-2.1188571
-2.1189223
-2.1188678
-2.1185828
-2.1180361
-2.1173045
-2.119666
-2.1197177
-2.1197768
-2.1198626
-2.1199311
-2.1198731
-2.1195794
-2.119013
-2.1182439
-2.1204997
-2.1205654
-2.1206398
-2.1207364
-2.1208104
-2.1207542
-2.1204623
-2.1198947
-2.1191211
-2.1211944
-2.1212662
-2.1213479
-2.1214485
-2.1215244
-2.1214713
-2.1211877
-2.1206317
-2.1198778
-2.1216838
-2.1217609
-2.121848
-2.1219502
-2.1220267
-2.1219788
-2.1217089
-2.121176
-2.1204601
-2.1219414
-2.1220215
-2.1221143
-2.1222242
-2.1223142
-2.1222919
-2.1220628
-2.1215879
-2.1209105
-2.1221662
-2.1222456
-2.1223417
-2.1224585
-2.1225686
-2.1225944
-2.1224555
-2.1221396
-2.1216813
-2.1031072
-2.103143
-2.1031885
-2.1032277
-2.1032657
-2.1033186
-2.103399
-2.1035023
-2.1034945
-2.1032463
-2.103288
-2.1033327
-2.1033537
-2.1033513
-2.10334
-2.1033338
-2.1033363
-2.1032908
-2.1034102
-2.1034531
-2.1034964
-2.1035074
-2.1034843
-2.1034427
-2.1034018
-2.1033766
-2.1033569
-2.1035496
-2.10359
-2.103629
-2.1036308
-2.1035939
-2.1035366
-2.1034827
-2.1034492
-2.1034387
-2.1036606
-2.1036977
-2.1037313
-2.1037231
-2.1036727
-2.1036013
-2.1035396
-2.103503
-2.103499
-2.1037481
-2.1037807
-2.1038081
-2.1037897
-2.1037262
-2.1036458
-2.1035806
-2.1035467
-2.1035484
-2.1038064
-2.1038345
-2.1038564
-2.103829
-2.1037546
-2.1036687
-2.1036062
-2.1035777
-2.1035725
-2.1038413
-2.1038652
-2.103882
-2.1038454
-2.1037646
-2.1036767
-2.1036209
-2.1035958
-2.1035703
-2.1038581
-2.1038781
-2.1038892
-2.1038472
-2.1037621
-2.1036766
-2.1036328
-2.10363
-2.1036887
-2.103865
-2.1038812
-2.1038876
-2.1038416
-2.1037544
-2.1036746
-2.1036473
-2.10369
-2.1039129
-2.1038687
-2.1038819
-2.1038847
-2.1038355
-2.1037478
-2.1036744
-2.1036678
-2.1037837
-2.1040761
-2.103867
-2.1038788
-2.1038804
-2.1038303
-2.1037435
-2.1036754
-2.1036888
-2.1038704
-2.1041584
-2.1038669
-2.1038788
-2.1038803
-2.1038302
-2.1037433
-2.1036753
-2.1036886
-2.1038703
-2.1041584
-2.1038685
-2.1038816
-2.1038844
-2.1038351
-2.1037473
-2.1036739
-2.1036673
-2.1037834
-2.1040762
-2.1038646
-2.1038807
-2.103887
-2.1038408
-2.1037536
-2.1036738
-2.1036465
-2.1036894
-2.1039128
-2.1038574
-2.1038773
-2.1038882
-2.1038461
-2.1037608
-2.1036752
-2.1036316
-2.1036292
-2.1036884
-2.1038401
-2.1038639
-2.1038805
-2.1038438
-2.1037628
-2.1036748
-2.1036192
-2.1035945
-2.1035696
-2.1038047
-2.1038327
-2.1038544
-2.1038269
-2.1037522
-2.1036663
-2.1036039
-2.1035758
-2.1035711
-2.1037458
-2.1037783
-2.1038055
-2.1037869
-2.1037232
-2.1036427
-2.1035777
-2.1035441
-2.1035462
-2.1036575
-2.1036945
-2.103728
-2.1037195
-2.103669
-2.1035976
-2.1035359
-2.1034996
-2.1034956
-2.1035456
-2.103586
-2.1036248
-2.1036265
-2.1035894
-2.1035322
-2.1034784
-2.1034447
-2.1034336
-2.1034053
-2.1034482
-2.1034913
-2.1035023
-2.1034792
-2.1034376
-2.1033965
-2.1033705
-2.1033495
-2.1032406
-2.1032823
-2.1033269
-2.1033479
-2.1033454
-2.103334
-2.1033271
-2.103328
-2.1032807
-2.1031009
-2.1031366
-2.1031821
-2.1032212
-2.103259
-2.1033111
-2.1033901
-2.1034915
-2.1034825
-1.9400151
-1.9400234
-1.9400419
-1.9400851
-1.9401485
-1.9402078
-1.9402326
-1.940212
-1.940152
-1.9400429
-1.9400503
-1.9400671
-1.9401084
-1.9401659
-1.9402083
-1.9401983
-1.9401167
-1.9399822
-1.9401134
-1.9401177
-1.9401311
-1.9401701
-1.940225
-1.940261
-1.9402377
-1.9401356
-1.9399864
-1.9401722
-1.9401728
-1.9401824
-1.9402191
-1.9402723
-1.9403049
-1.9402736
-1.9401591
-1.9399885
-1.9402196
-1.9402168
-1.9402222
-1.9402552
-1.9403045
-1.9403314
-1.940291
-1.9401651
-1.9399784
-1.9402566
-1.9402504
-1.9402514
-1.9402803
-1.9403249
-1.9403455
-1.9402972
-1.9401639
-1.9399704
-1.9402769
-1.9402677
-1.9402648
-1.9402906
-1.9403307
-1.9403456
-1.9402915
-1.9401548
-1.9399594
-1.9402842
-1.9402728
-1.9402668
-1.9402886
-1.9403246
-1.9403335
-1.9402729
-1.9401272
-1.9398734
-1.94028
-1.9402672
-1.9402589
-1.940277
-1.9403089
-1.9403101
-1.9402381
-1.9400446
-1.9397178
-1.9402694
-1.9402556
-1.9402455
-1.9402609
-1.9402867
-1.9402769
-1.9401765
-1.9399311
-1.9395829
-1.9402569
-1.9402424
-1.940231
-1.9402442
-1.9402647
-1.9402425
-1.9401123
-1.9398478
-1.9394897
-1.9402484
-1.9402337
-1.9402218
-1.9402338
-1.9402514
-1.9402226
-1.9400785
-1.9398051
-1.9394424
-1.9402484
-1.9402336
-1.9402217
-1.9402337
-1.9402512
-1.9402225
-1.9400784
-1.9398051
-1.9394425
-1.9402568
-1.9402422
-1.9402308
-1.9402439
-1.9402643
-1.9402421
-1.940112
-1.9398477
-1.9394899
-1.9402691
-1.9402552
-1.940245
-1.9402603
-1.940286
-1.9402762
-1.9401759
-1.9399308
-1.9395833
-1.9402794
-1.9402666
-1.9402581
-1.940276
-1.9403078
-1.9403089
-1.9402372
-1.9400442
-1.9397181
-1.9402832
-1.9402717
-1.9402656
-1.940287
-1.9403229
-1.9403317
-1.9402714
-1.9401264
-1.9398736
-1.9402753
-1.940266
-1.9402629
-1.9402884
-1.9403282
-1.9403432
-1.9402895
-1.9401536
-1.9399593
-1.9402542
-1.9402478
-1.9402486
-1.9402772
-1.9403215
-1.9403422
-1.9402944
-1.9401621
-1.9399697
-1.9402161
-1.9402131
-1.9402183
-1.9402509
-1.9403
-1.9403271
-1.9402873
-1.9401624
-1.9399769
-1.9401672
-1.9401677
-1.940177
-1.9402135
-1.9402666
-1.9402994
-1.9402688
-1.9401553
-1.9399859
-1.9401068
-1.9401109
-1.9401242
-1.940163
-1.9402178
-1.9402541
-1.9402314
-1.9401302
-1.9399823
-1.9400347
-1.940042
-1.9400587
-1.9400999
-1.9401573
-1.9401998
-1.94019
-1.9401092
-1.9399761
-1.9400057
-1.9400141
-1.9400325
-1.9400756
-1.9401388
-1.9401978
-1.9402225
-1.9402021
-1.9401438
-1.8674946
-1.8675084
-1.8675241
-1.8675347
-1.8675421
-1.8675532
-1.867575
-1.8676061
-1.8676048
-1.8674404
-1.8674559
-1.8674719
-1.867479
-1.8674783
-1.8674763
-1.8674785
-1.8674848
-1.8674741
-1.8674156
-1.8674307
-1.8674452
-1.8674479
-1.8674403
-1.8674306
-1.8674271
-1.8674328
-1.8674396
-1.8673899
-1.8674034
-1.8674155
-1.8674143
-1.8674019
-1.8673884
-1.8673848
-1.8673959
-1.8674146
-1.8673673
-1.8673789
-1.867388
-1.867382
-1.8673641
-1.8673466
-1.8673433
-1.8673591
-1.8673866
-1.867353
-1.8673619
-1.8673672
-1.8673562
-1.8673318
-1.8673106
-1.8673071
-1.8673252
-1.8673557
-1.8673441
-1.8673502
-1.8673521
-1.8673355
-1.8673066
-1.8672819
-1.8672779
-1.8672971
-1.8673306
-1.867343
-1.8673462
-1.867344
-1.8673232
-1.86729
-1.8672633
-1.867261
-1.867291
-1.8673885
-1.8673491
-1.8673493
-1.8673434
-1.8673189
-1.8672831
-1.8672572
-1.867264
-1.8673482
-1.8675202
-1.8673601
-1.8673576
-1.8673487
-1.8673216
-1.8672853
-1.8672656
-1.8673007
-1.8674403
-1.8676296
-1.8673716
-1.8673672
-1.8673562
-1.8673277
-1.8672923
-1.867282
-1.867348
-1.8675053
-1.8677022
-1.8673777
-1.8673724
-1.8673606
-1.8673315
-1.867297
-1.867292
-1.8673726
-1.8675369
-1.8677388
-1.8673777
-1.8673725
-1.8673606
-1.8673315
-1.867297
-1.8672919
-1.8673726
-1.867537
-1.867739
-1.8673716
-1.8673672
-1.8673562
-1.8673275
-1.8672921
-1.8672817
-1.8673479
-1.8675054
-1.8677027
-1.8673601
-1.8673575
-1.8673485
-1.8673212
-1.8672848
-1.8672651
-1.8673004
-1.8674405
-1.8676305
-1.8673489
-1.867349
-1.8673429
-1.8673182
-1.8672823
-1.8672564
-1.8672634
-1.8673483
-1.8675213
-1.8673424
-1.8673454
-1.867343
-1.8673219
-1.8672886
-1.8672619
-1.8672601
-1.8672909
-1.8673898
-1.8673428
-1.8673487
-1.8673503
-1.8673334
-1.8673043
-1.8672797
-1.8672763
-1.8672967
-1.8673318
-1.8673507
-1.8673593
-1.8673643
-1.8673529
-1.8673284
-1.8673074
-1.8673047
-1.8673243
-1.8673566
-1.8673636
-1.8673749
-1.8673836
-1.8673774
-1.8673592
-1.8673421
-1.8673398
-1.8673574
-1.8673871
-1.8673843
-1.8673976
-1.8674093
-1.8674078
-1.8673953
-1.8673822
-1.8673797
-1.8673929
-1.8674143
-1.8674078
-1.8674227
-1.8674369
-1.8674394
-1.8674318
-1.8674224
-1.86742
-1.867428
-1.867438
-1.8674306
-1.867446
-1.8674618
-1.8674687
-1.867468
-1.8674662
-1.8674693
-1.8674776
-1.8674705
-1.8674834
-1.8674971
-1.8675128
-1.8675234
-1.8675307
-1.8675419
-1.867564
-1.8675963
-1.8675984
-1.7429987
-1.7429982
-1.7430008
-1.7430118
-1.7430303
-1.7430488
-1.7430583
-1.7430555
-1.7430408
-1.743029
-1.743028
-1.74303
-1.7430404
-1.7430568
-1.7430697
-1.7430678
-1.7430448
-1.7430066
-1.74307
-1.7430681
-1.7430691
-1.7430789
-1.7430946
-1.7431056
-1.7430992
-1.7430695
-1.7430248
-1.7431085
-1.7431055
-1.7431053
-1.7431144
-1.7431295
-1.7431391
-1.74313
-1.7430959
-1.7430434
-1.7431434
-1.7431394
-1.7431379
-1.7431458
-1.7431596
-1.7431672
-1.7431551
-1.7431173
-1.7430596
-1.743173
-1.7431681
-1.7431656
-1.7431723
-1.7431845
-1.74319
-1.7431755
-1.7431355
-1.743075
-1.7431951
-1.7431896
-1.7431863
-1.7431918
-1.7432023
-1.7432057
-1.7431888
-1.7431452
-1.7430683
-1.7432099
-1.7432041
-1.7432001
-1.7432045
-1.743213
-1.7432132
-1.7431917
-1.7431308
-1.7430307
-1.743218
-1.7432121
-1.7432078
-1.7432109
-1.7432168
-1.7432117
-1.7431791
-1.7430982
-1.7429873
-1.7432217
-1.7432159
-1.7432111
-1.7432132
-1.7432163
-1.7432053
-1.7431601
-1.74307
-1.7429529
-1.7432231
-1.7432173
-1.7432122
-1.7432134
-1.7432146
-1.7431993
-1.7431463
-1.7430502
-1.7429291
-1.7432234
-1.7432175
-1.7432124
-1.7432131
-1.7432133
-1.7431959
-1.7431391
-1.74304
-1.742917
-1.7432235
-1.7432176
-1.7432124
-1.7432131
-1.7432133
-1.7431959
-1.7431391
-1.7430401
-1.7429173
-1.7432233
-1.7432174
-1.7432123
-1.7432134
-1.7432145
-1.7431992
-1.7431463
-1.7430506
-1.7429299
-1.743222
-1.743216
-1.7432111
-1.743213
-1.743216
-1.7432049
-1.74316
-1.7430704
-1.7429542
-1.7432181
-1.7432121
-1.7432075
-1.7432104
-1.7432161
-1.743211
-1.7431788
-1.7430986
-1.7429889
-1.7432096
-1.7432036
-1.7431994
-1.7432035
-1.7432117
-1.743212
-1.743191
-1.7431311
-1.7430325
-1.7431941
-1.7431884
-1.7431848
-1.74319
-1.7432002
-1.7432037
-1.7431875
-1.7431452
-1.74307
-1.7431709
-1.7431658
-1.743163
-1.7431692
-1.7431812
-1.743187
-1.7431733
-1.7431348
-1.7430764
-1.7431398
-1.7431355
-1.7431337
-1.7431412
-1.7431548
-1.7431627
-1.7431516
-1.7431156
-1.7430601
-1.743103
-1.7430997
-1.7430992
-1.7431079
-1.7431228
-1.7431328
-1.7431248
-1.7430927
-1.7430425
-1.7430622
-1.7430601
-1.7430608
-1.7430704
-1.743086
-1.7430973
-1.7430919
-1.743064
-1.7430217
-1.7430191
-1.743018
-1.7430198
-1.74303
-1.7430463
-1.7430593
-1.7430578
-1.7430361
-1.7430006
-1.7429873
-1.7429868
-1.7429893
-1.7430003
-1.7430185
-1.7430367
-1.743046
-1.7430433
-1.7430311
-1.6466779
-1.6466818
-1.6466859
-1.646688
-1.6466889
-1.6466909
-1.6466967
-1.6467071
-1.6467102
-1.64666
-1.6466643
-1.6466684
-1.6466695
-1.6466683
-1.6466672
-1.6466687
-1.6466733
-1.6466739
-1.646649
-1.6466531
-1.6466566
-1.6466564
-1.6466532
-1.6466504
-1.6466513
-1.6466571
-1.6466638
-1.6466379
-1.6466415
-1.6466442
-1.6466427
-1.6466382
-1.6466344
-1.646636
-1.6466442
-1.646655
-1.6466284
-1.6466314
-1.6466332
-1.6466302
-1.6466241
-1.6466195
-1.6466214
-1.6466309
-1.6466439
-1.6466226
-1.6466247
-1.6466253
-1.6466208
-1.6466131
-1.6466075
-1.6466094
-1.6466191
-1.6466331
-1.6466199
-1.6466212
-1.6466208
-1.6466149
-1.6466059
-1.6465998
-1.6466022
-1.6466146
-1.6466444
-1.6466211
-1.6466215
-1.64662
-1.646613
-1.6466033
-1.6465979
-1.6466035
-1.6466332
-1.6466855
-1.6466253
-1.6466249
-1.6466223
-1.6466146
-1.6466052
-1.6466032
-1.6466191
-1.6466679
-1.6467311
-1.6466308
-1.6466295
-1.6466262
-1.6466181
-1.6466096
-1.646612
-1.6466401
-1.6466969
-1.6467666
-1.6466353
-1.6466336
-1.6466298
-1.6466215
-1.6466136
-1.6466191
-1.6466543
-1.6467164
-1.6467906
-1.6466378
-1.6466359
-1.6466318
-1.6466234
-1.6466158
-1.6466228
-1.6466613
-1.6467264
-1.6468028
-1.6466379
-1.6466359
-1.6466319
-1.6466234
-1.6466157
-1.6466227
-1.6466613
-1.6467265
-1.6468031
-1.6466356
-1.6466338
-1.6466299
-1.6466214
-1.6466135
-1.6466189
-1.6466543
-1.6467168
-1.6467915
-1.6466311
-1.6466297
-1.6466263
-1.646618
-1.6466093
-1.6466117
-1.64664
-1.6466973
-1.6467679
-1.6466255
-1.6466249
-1.6466221
-1.6466142
-1.6466046
-1.6466025
-1.6466188
-1.6466684
-1.6467328
-1.6466209
-1.6466211
-1.6466193
-1.646612
-1.646602
-1.6465967
-1.6466028
-1.6466335
-1.6466873
-1.646619
-1.6466201
-1.6466193
-1.6466131
-1.6466038
-1.6465977
-1.6466007
-1.6466145
-1.6466461
-1.6466206
-1.6466225
-1.6466228
-1.6466179
-1.6466099
-1.6466044
-1.6466071
-1.6466183
-1.6466343
-1.6466251
-1.6466278
-1.6466291
-1.6466258
-1.6466194
-1.646615
-1.6466179
-1.646629
-1.6466442
-1.6466328
-1.646636
-1.6466384
-1.6466366
-1.6466319
-1.6466284
-1.646631
-1.6466408
-1.6466538
-1.6466418
-1.6466457
-1.6466489
-1.6466484
-1.6466452
-1.6466426
-1.6466444
-1.6466516
-1.6466605
-1.6466509
-1.6466551
-1.646659
-1.64666
-1.6466587
-1.6466577
-1.6466596
-1.6466653
-1.6466679
-1.6466675
-1.6466714
-1.6466754
-1.6466775
-1.6466782
-1.6466801
-1.6466856
-1.6466962
-1.6467012
-1.5359082
-1.5359077
-1.535908
-1.5359106
-1.5359151
-1.5359197
-1.5359219
-1.5359208
-1.5359133
-1.535917
-1.5359164
-1.5359166
-1.5359189
-1.5359227
-1.5359253
-1.5359236
-1.5359155
-1.5359005
-1.5359285
-1.5359276
-1.5359275
-1.5359296
-1.5359329
-1.5359344
-1.5359307
-1.5359195
-1.5359015
-1.5359391
-1.5359379
-1.5359374
-1.5359392
-1.5359422
-1.535943
-1.5359379
-1.5359242
-1.5359027
-1.5359486
-1.535947
-1.5359462
-1.5359476
-1.5359501
-1.5359502
-1.5359438
-1.535928
-1.535903
-1.5359565
-1.5359547
-1.5359536
-1.5359546
-1.5359565
-1.535956
-1.5359488
-1.5359307
-1.5359016
-1.5359624
-1.5359604
-1.5359589
-1.5359596
-1.5359609
-1.5359597
-1.5359511
-1.5359297
-1.5358966
-1.5359662
-1.5359641
-1.5359624
-1.5359625
-1.5359631
-1.5359606
-1.5359494
-1.5359246
-1.5358889
-1.5359684
-1.5359662
-1.5359642
-1.5359639
-1.5359635
-1.5359595
-1.5359458
-1.535919
-1.5358817
-1.5359696
-1.5359673
-1.5359651
-1.5359644
-1.5359634
-1.535958
-1.5359428
-1.5359145
-1.5358759
-1.5359701
-1.5359677
-1.5359654
-1.5359643
-1.535963
-1.5359571
-1.5359408
-1.5359114
-1.535872
-1.5359703
-1.5359679
-1.5359654
-1.5359642
-1.5359626
-1.5359566
-1.5359399
-1.5359098
-1.5358701
-1.5359704
-1.5359679
-1.5359655
-1.5359642
-1.5359626
-1.5359566
-1.5359399
-1.5359099
-1.5358704
-1.5359703
-1.5359679
-1.5359655
-1.5359643
-1.5359629
-1.535957
-1.5359408
-1.5359117
-1.5358728
-1.5359699
-1.5359675
-1.5359652
-1.5359643
-1.5359631
-1.5359577
-1.5359427
-1.5359149
-1.5358772
-1.5359686
-1.5359662
-1.535964
-1.5359634
-1.5359629
-1.5359588
-1.5359455
-1.5359194
-1.5358832
-1.535966
-1.5359637
-1.5359617
-1.5359616
-1.5359619
-1.5359594
-1.5359486
-1.5359248
-1.5358906
-1.5359615
-1.5359593
-1.5359575
-1.5359578
-1.5359589
-1.5359577
-1.5359497
-1.5359295
-1.5358981
-1.5359546
-1.5359525
-1.535951
-1.5359517
-1.5359534
-1.535953
-1.5359465
-1.5359299
-1.5359028
-1.5359452
-1.5359434
-1.5359422
-1.5359433
-1.5359455
-1.5359458
-1.5359403
-1.5359261
-1.5359034
-1.535934
-1.5359325
-1.5359317
-1.5359332
-1.535936
-1.5359371
-1.5359329
-1.535921
-1.5359018
-1.5359214
-1.5359203
-1.5359199
-1.5359218
-1.535925
-1.5359268
-1.5359239
-1.5359143
-1.5358988
-1.5359081
-1.5359073
-1.5359073
-1.5359095
-1.5359132
-1.535916
-1.5359149
-1.5359079
-1.5358954
-1.5358981
-1.5358975
-1.5358978
-1.5359003
-1.5359047
-1.5359092
-1.5359115
-1.5359105
-1.5359052
-1.4321236
-1.4321246
-1.4321256
-1.4321261
-1.4321263
-1.4321268
-1.4321284
-1.4321315
-1.4321326
-1.4321151
-1.4321162
-1.4321173
-1.4321177
-1.4321175
-1.4321174
-1.4321179
-1.4321191
-1.4321189
-1.4321077
-1.4321088
-1.4321098
-1.4321099
-1.4321094
-1.4321088
-1.4321093
-1.4321108
-1.4321122
-1.4321004
-1.4321014
-1.4321022
-1.432102
-1.432101
-1.4321003
-1.4321009
-1.4321031
-1.4321059
-1.4320937
-1.4320945
-1.4320951
-1.4320945
-1.4320931
-1.432092
-1.4320925
-1.4320953
-1.4320996
-1.4320884
-1.432089
-1.4320892
-1.4320881
-1.4320862
-1.4320847
-1.4320847
-1.4320882
-1.4320947
-1.4320844
-1.4320848
-1.4320847
-1.4320833
-1.432081
-1.4320791
-1.4320795
-1.4320846
-1.4320929
-1.432082
-1.4320822
-1.4320818
-1.4320801
-1.4320777
-1.4320762
-1.432078
-1.4320842
-1.4320929
-1.4320808
-1.4320808
-1.4320803
-1.4320784
-1.4320762
-1.4320753
-1.4320781
-1.4320841
-1.4320928
-1.4320802
-1.4320802
-1.4320794
-1.4320775
-1.4320753
-1.4320749
-1.4320776
-1.4320834
-1.4320921
-1.4320803
-1.4320801
-1.4320793
-1.4320773
-1.4320749
-1.4320742
-1.4320767
-1.4320825
-1.4320915
-1.4320803
-1.4320801
-1.4320792
-1.4320772
-1.4320748
-1.4320739
-1.4320761
-1.432082
-1.4320912
-1.4320804
-1.4320801
-1.4320793
-1.4320772
-1.4320748
-1.4320739
-1.4320761
-1.4320821
-1.4320915
-1.4320805
-1.4320802
-1.4320794
-1.4320772
-1.4320748
-1.4320741
-1.4320767
-1.4320828
-1.4320923
-1.4320805
-1.4320803
-1.4320795
-1.4320774
-1.432075
-1.4320746
-1.4320775
-1.4320838
-1.4320934
-1.4320809
-1.4320808
-1.4320801
-1.432078
-1.4320756
-1.4320747
-1.4320778
-1.4320845
-1.4320943
-1.4320818
-1.4320818
-1.4320812
-1.4320793
-1.4320766
-1.4320751
-1.4320773
-1.4320845
-1.4320945
-1.4320836
-1.4320838
-1.4320834
-1.4320816
-1.4320791
-1.4320773
-1.4320782
-1.4320845
-1.4320944
-1.4320866
-1.432087
-1.4320869
-1.4320854
-1.4320833
-1.4320819
-1.4320826
-1.4320875
-1.4320958
-1.4320906
-1.4320912
-1.4320914
-1.4320904
-1.4320888
-1.4320879
-1.4320893
-1.4320937
-1.4321
-1.4320955
-1.4320963
-1.4320967
-1.4320962
-1.4320952
-1.4320947
-1.4320962
-1.4321002
-1.4321051
-1.4321009
-1.4321018
-1.4321026
-1.4321024
-1.4321018
-1.4321015
-1.4321028
-1.4321058
-1.4321095
-1.4321064
-1.4321074
-1.4321084
-1.4321086
-1.4321083
-1.4321083
-1.4321092
-1.4321115
-1.4321137
-1.4321137
-1.4321146
-1.4321156
-1.432116
-1.4321161
-1.4321163
-1.4321177
-1.4321209
-1.4321243
-1.3253272
-1.3253271
-1.3253272
-1.3253278
-1.3253287
-1.3253295
-1.3253295
-1.3253285
-1.3253261
-1.325327
-1.3253269
-1.3253271
-1.3253277
-1.3253285
-1.325329
-1.3253283
-1.3253259
-1.3253219
-1.3253276
-1.3253275
-1.3253276
-1.3253282
-1.325329
-1.3253294
-1.3253286
-1.325326
-1.3253216
-1.3253283
-1.3253281
-1.3253281
-1.3253286
-1.3253294
-1.3253298
-1.325329
-1.3253263
-1.3253217
-1.3253289
-1.3253286
-1.3253285
-1.325329
-1.3253296
-1.32533
-1.325329
-1.3253263
-1.3253216
-1.3253294
-1.3253291
-1.3253289
-1.3253292
-1.3253298
-1.32533
-1.3253289
-1.3253261
-1.3253214
-1.3253299
-1.3253294
-1.3253291
-1.3253293
-1.3253298
-1.3253298
-1.3253286
-1.3253257
-1.3253212
-1.3253302
-1.3253297
-1.3253293
-1.3253294
-1.3253297
-1.3253295
-1.3253281
-1.3253254
-1.3253211
-1.3253304
-1.3253298
-1.3253294
-1.3253293
-1.3253295
-1.3253291
-1.3253277
-1.3253251
-1.3253211
-1.3253305
-1.3253299
-1.3253294
-1.3253292
-1.3253293
-1.3253288
-1.3253273
-1.325325
-1.3253212
-1.3253305
-1.3253299
-1.3253293
-1.3253291
-1.3253291
-1.3253285
-1.3253271
-1.3253249
-1.3253214
-1.3253306
-1.3253299
-1.3253293
-1.3253291
-1.3253289
-1.3253283
-1.3253271
-1.325325
-1.3253217
-1.3253306
-1.32533
-1.3253293
-1.3253291
-1.3253289
-1.3253283
-1.325327
-1.325325
-1.3253219
-1.3253307
-1.32533
-1.3253294
-1.3253291
-1.3253289
-1.3253283
-1.3253271
-1.3253251
-1.325322
-1.3253306
-1.3253299
-1.3253293
-1.3253291
-1.325329
-1.3253284
-1.3253272
-1.3253252
-1.3253222
-1.3253304
-1.3253297
-1.3253291
-1.3253289
-1.3253289
-1.3253285
-1.3253273
-1.3253253
-1.3253222
-1.3253299
-1.3253292
-1.3253287
-1.3253285
-1.3253286
-1.3253285
-1.3253274
-1.3253255
-1.3253223
-1.325329
-1.3253284
-1.3253279
-1.3253278
-1.3253281
-1.3253281
-1.3253274
-1.3253256
-1.3253223
-1.3253278
-1.3253272
-1.3253268
-1.3253268
-1.3253272
-1.3253275
-1.3253271
-1.3253254
-1.3253222
-1.3253262
-1.3253257
-1.3253253
-1.3253254
-1.3253259
-1.3253264
-1.3253262
-1.3253248
-1.3253218
-1.3253241
-1.3253237
-1.3253234
-1.3253237
-1.3253243
-1.325325
-1.3253249
-1.3253236
-1.3253208
-1.3253218
-1.3253215
-1.3253213
-1.3253217
-1.3253225
-1.3253231
-1.325323
-1.3253215
-1.3253191
-1.3253195
-1.3253194
-1.3253194
-1.3253199
-1.3253207
-1.3253212
-1.3253208
-1.3253192
-1.3253171
-1.3253186
-1.3253186
-1.3253186
-1.3253191
-1.3253199
-1.3253205
-1.3253202
-1.3253192
-1.3253188
-1.2196928
-1.219693
-1.2196932
-1.2196933
-1.2196934
-1.2196935
-1.2196937
-1.2196941
-1.2196934
-1.2196912
-1.2196915
-1.2196917
-1.2196918
-1.2196918
-1.2196917
-1.2196915
-1.2196913
-1.2196903
-1.2196896
-1.2196899
-1.2196901
-1.2196902
-1.2196901
-1.2196899
-1.2196897
-1.2196893
-1.2196886
-1.2196879
-1.2196881
-1.2196883
-1.2196883
-1.2196882
-1.2196881
-1.2196879
-1.2196876
-1.2196872
-1.2196862
-1.2196864
-1.2196865
-1.2196864
-1.2196863
-1.2196862
-1.2196861
-1.2196861
-1.2196859
-1.2196846
-1.2196847
-1.2196848
-1.2196847
-1.2196844
-1.2196843
-1.2196843
-1.2196846
-1.2196848
-1.2196832
-1.2196833
-1.2196833
-1.2196831
-1.2196827
-1.2196825
-1.2196827
-1.2196832
-1.2196838
-1.2196821
-1.2196821
-1.219682
-1.2196817
-1.2196813
-1.2196811
-1.2196814
-1.2196822
-1.2196831
-1.2196812
-1.2196812
-1.219681
-1.2196807
-1.2196802
-1.21968
-1.2196803