/*--------------------------------*- C++ -*----------------------------------*\
| =========                 |                                                 |
| \\      /  F ield         | OpenFOAM: The Open Source CFD Toolbox           |
|  \\    /   O peration     | Version:  2406                                  |
|   \\  /    A nd           | Website:  www.openfoam.com                      |
|    \\/     M anipulation  |                                                 |
\*---------------------------------------------------------------------------*/
FoamFile
{
    version     2.0;
    format      ascii;
    arch        "LSB;label=32;scalar=64";
    class       surfaceScalarField;
    location    "4.75";
    object      phi;
}
// * * * * * * * * * * * * * * * * * * * * * * * * * * * * * * * * * * * * * //

dimensions      [0 3 -1 0 0 0 0];

oriented        oriented;

internalField   nonuniform List<scalar> 
101088
(
-0.00017385123
3.6931726e-05
-1.2606328e-05
-3.0878959e-05
-0.00039365451
0.00016978715
-5.9680018e-05
-0.00014276097
-0.00064770775
0.00042920832
-0.00015598529
-0.00036253853
-0.00090152744
0.00083902602
-0.00031919185
-0.00071463671
-0.001101536
0.0013504587
-0.00053998671
-0.0011653461
-0.0012124421
0.0018504468
-0.00076221669
-0.0016165406
-0.0012585352
0.0022322766
-0.00090189079
-0.0019598159
-0.0013057464
0.0024325392
-0.00090596128
-0.0021277371
0.0024142272
-0.00078804748
-0.0021098835
-0.0013865185
-0.00021088973
4.1005948e-05
-1.4487917e-05
-0.00047080386
0.00018989404
-6.947441e-05
-0.00075847838
0.00048031121
-0.00018353701
-0.0010227386
0.00093301705
-0.0003781692
-0.0011977856
0.001487862
-0.00064104267
-0.0012531696
0.002025389
-0.00090378631
-0.0012286714
0.002442088
-0.0010689523
-0.0012004799
0.0026721089
-0.0010788677
0.0026615536
-0.00095202971
-0.0012151597
-0.00024906555
4.3258891e-05
-1.5768239e-05
-0.00055054956
0.0002019116
-7.6890605e-05
-0.0008733742
0.00051234506
-0.00020587538
-0.0011519747
0.00099221698
-0.00042769423
-0.0013088547
0.0015712268
-0.00072604265
-0.0013159259
0.0021289514
-0.0010201382
-0.0012277477
0.0025705355
-0.0012015359
-0.0011341063
0.002828858
-0.0012122574
0.0028352374
-0.0010758835
-0.0010921249
-0.0002867082
4.3560822e-05
-1.6462877e-05
-0.00062986756
0.00020509365
-8.1858912e-05
-0.00098818603
0.00052259466
-0.00022258191
-0.001281341
0.0010104316
-0.00046673274
-0.0014237888
0.0015932031
-0.00079373049
-0.0013935249
0.0021555403
-0.001110961
-0.0012591245
0.0026148169
-0.0013019755
-0.0011169455
0.0028969321
-0.0013085618
0.0029255794
-0.0011627529
-0.0010300239
-0.00032239201
4.1326072e-05
-1.6464513e-05
-0.0007051967
0.00019752898
-8.3923854e-05
-0.0010981801
0.00050802496
-0.00023271759
-0.001408843
0.00098507588
-0.00049406145
-0.0015461549
0.0015534376
-0.00084332701
-0.0014934072
0.0021063817
-0.0011771602
-0.0013273565
0.0025715677
-0.0013710527
-0.0011511669
0.002872041
-0.0013709032
0.0029249629
-0.0012163349
-0.0010293126
-0.00035683644
3.7464069e-05
-1.5824948e-05
-0.0007807821
0.00018190755
-8.3211495e-05
-0.0012135753
0.00047287014
-0.00023640052
-0.001550821
0.00092115048
-0.00050979504
-0.0016942305
0.0014551132
-0.00087504999
-0.0016313294
0.0019812739
-0.0012186226
-0.0014468684
0.0024388497
-0.0014107049
-0.0012463056
0.00274817
-0.0014021329
0.0028235232
-0.0012397762
-0.0010942962
-0.00038794314
3.2024328e-05
-1.4625511e-05
-0.00085048129
0.00015859075
-7.9902459e-05
-0.0013229651
0.00041808684
-0.00023368306
-0.0016911095
0.00082070975
-0.00051347836
-0.0018516132
0.0013027081
-0.00088802202
-0.0017937895
0.0017850739
-0.0012352743
-0.0016046407
0.0022176839
-0.0014217102
-0.0013912802
0.0025239911
-0.0014040806
0.0026158733
-0.0012355334
-0.0012157958
-0.00041555441
2.546951e-05
-1.2938978e-05
-0.00091463519
0.00012934862
-7.4272716e-05
-0.0014279633
0.00034720098
-0.00022511385
-0.001832983
0.00068918965
-0.00050604739
-0.0020212736
0.0011026621
-0.00088382927
-0.0019821959
0.0015239793
-0.0012296324
-0.0017988822
0.0019093555
-0.001407603
-0.0015805472
0.0021976806
-0.001380576
0.0022967977
-0.0012076374
-0.0013853858
-0.00043924006
1.8460228e-05
-1.0959895e-05
-0.00097221927
9.6677789e-05
-6.7090284e-05
-0.0015267456
0.0002651049
-0.00021220387
-0.0019732156
0.00053372491
-0.00048991006
-0.0021975166
0.00086289667
-0.00086581698
-0.002187863
0.0012058664
-0.0012060091
-0.0020182385
0.0015177515
-0.0013736872
-0.0018003436
0.0017699803
-0.0013370658
0.0018636915
-0.0011614781
-0.0015873539
-0.00045841732
1.1713101e-05
-8.9781207e-06
-0.0010213266
6.339669e-05
-5.9555641e-05
-0.0016151559
0.00017760643
-0.00019758915
-0.0021040116
0.0003625811
-0.00046927516
-0.0023672956
0.00059230546
-0.00083970949
-0.0023900494
0.00083824763
-0.0011714282
-0.0022430013
0.0010563829
-0.0013285511
-0.0020269051
0.0012462399
-0.0012825542
0.0013207936
-0.001105712
-0.001796744
-0.00047208644
5.682555e-06
-7.3917521e-06
-0.0010579291
3.1376935e-05
-5.3311414e-05
-0.0016835873
8.9042041e-05
-0.00018484706
-0.0022086422
0.00018326999
-0.00044992907
-0.0025069149
0.00030139749
-0.00081354016
-0.0025555886
0.00042991125
-0.0011362357
-0.0024319629
0.00054288992
-0.0012842213
-0.0022195727
0.00064525582
-0.0012300979
0.0006869865
-0.0010529253
-0.0019753745
-0.00047913638
-1.0026135e-10
-6.4314162e-06
-0.0010772412
-3.7278051e-10
-4.9482432e-05
-0.0017205755
-7.5498537e-10
-0.00017686302
-0.0022667209
-1.2441541e-09
-0.00043749551
-0.0025862373
-1.7279402e-09
-0.00079648042
-0.0026519387
-1.9353433e-09
-0.001113444
-0.0025428783
-1.5877952e-09
-0.0012559226
-0.0023336481
-3.7098233e-11
-0.0011969272
1.626282e-09
-0.0010197524
-0.0020814633
-0.00047913636
-5.682707e-06
-6.4314162e-06
-0.0010772413
-3.1377559e-05
-4.9482432e-05
-0.0017205755
-8.9043357e-05
-0.00017686302
-0.0022667209
-0.00018327238
-0.0004374955
-0.0025862371
-0.00030140103
-0.00079648039
-0.0026519384
-0.00042991531
-0.0011134439
-0.0025428778
-0.00054289313
-0.0012559225
-0.0023336474
-0.00064525592
-0.0011969271
-0.00068698329
-0.0010197524
-0.0020814625
-0.00047208639
-1.1713197e-05
-7.3917558e-06
-0.0010579294
-6.339716e-05
-5.3311435e-05
-0.0016835876
-0.00017760753
-0.00018484712
-0.0022086425
-0.00036258343
-0.00044992917
-0.0025069149
-0.00059230916
-0.00081354028
-0.0025555882
-0.00083825208
-0.0011362357
-0.002431962
-0.0010563866
-0.0012842213
-0.0022195712
-0.0012462406
-0.0012300978
-0.0013207909
-0.0010529253
-0.0019753724
-0.00045841713
-1.8460327e-05
-8.9781244e-06
-0.0010213264
-9.6678133e-05
-5.9555658e-05
-0.0016151556
-0.00026510585
-0.00019758919
-0.0021040111
-0.0005337271
-0.00046927521
-0.002367295
-0.00086290019
-0.00083970954
-0.0023900486
-0.0012058709
-0.0011714282
-0.002243
-0.0015177556
-0.0013285511
-0.0020269031
-0.0017699817
-0.0012825541
-0.0018636895
-0.0011057119
-0.0017967414
-0.00043923994
-2.5469596e-05
-1.09599e-05
-0.00097221911
-0.0001293489
-6.7090309e-05
-0.0015267452
-0.00034720192
-0.00021220393
-0.0019732152
-0.00068919185
-0.00048991014
-0.002197516
-0.0011026656
-0.00086581711
-0.0021878622
-0.0015239837
-0.0012060092
-0.0020182372
-0.0019093597
-0.0013736874
-0.0018003416
-0.0021976826
-0.0013370658
-0.0022967963
-0.0011614779
-0.0015873515
-0.00041555442
-3.2024388e-05
-1.2938983e-05
-0.00091463514
-0.000158591
-7.4272742e-05
-0.0014279629
-0.00041808778
-0.00022511392
-0.0018329826
-0.00082071189
-0.0005060475
-0.0020212732
-0.0013027115
-0.00088382943
-0.0019821953
-0.0017850783
-0.0012296326
-0.0017988815
-0.0022176883
-0.0014076031
-0.0015805459
-0.0025239937
-0.0013805761
-0.0026158719
-0.0012076373
-0.0013853846
-0.00038794321
-3.7464157e-05
-1.4625516e-05
-0.00085048129
-0.00018190785
-7.9902491e-05
-0.0013229649
-0.00047287114
-0.00023368316
-0.0016911095
-0.00092115254
-0.00051347851
-0.0018516132
-0.0014551164
-0.00088802221
-0.0017937896
-0.0019812781
-0.0012352745
-0.0016046409
-0.0024388542
-0.0014217103
-0.0013912799
-0.002748173
-0.0014040806
-0.0028235217
-0.0012355333
-0.0012157955
-0.00035683656
-4.1326169e-05
-1.5824955e-05
-0.00078078228
-0.0001975293
-8.3211535e-05
-0.0012135757
-0.00050802582
-0.00023640063
-0.0015508218
-0.00098507757
-0.00050979524
-0.0016942316
-0.0015534404
-0.00087505024
-0.0016313306
-0.0021063857
-0.0012186229
-0.0014468697
-0.0025715722
-0.0014107051
-0.0012463065
-0.0028720445
-0.001402133
-0.0029249621
-0.0012397762
-0.0010942964
-0.00032239208
-4.3560849e-05
-1.6464514e-05
-0.00070519689
-0.00020509384
-8.3923864e-05
-0.0010981807
-0.00052259507
-0.00023271762
-0.0014088439
-0.0010104327
-0.00049406151
-0.0015461562
-0.0015932055
-0.00084332705
-0.0014934089
-0.002155544
-0.0011771602
-0.0013273584
-0.0026148212
-0.0013710527
-0.0011511687
-0.0028969356
-0.0013709032
-0.0029255805
-0.0012163348
-0.0010293127
-0.00028670821
-4.3258865e-05
-1.6462874e-05
-0.00062986772
-0.00020191152
-8.1858902e-05
-0.00098818658
-0.00051234494
-0.00022258189
-0.0012813421
-0.00099221747
-0.0004667327
-0.0014237904
-0.0015712287
-0.00079373039
-0.0013935268
-0.0021289547
-0.0011109608
-0.0012591272
-0.0025705392
-0.0013019753
-0.0011169485
-0.0028288612
-0.0013085616
-0.0028352406
-0.0011627529
-0.0010300247
-0.00024906556
-4.1005844e-05
-1.5768233e-05
-0.00055054973
-0.00018989371
-7.6890579e-05
-0.00087337455
-0.00048031074
-0.00020587531
-0.0011519753
-0.00093301712
-0.0004276941
-0.0013088557
-0.0014878636
-0.00072604242
-0.0013159275
-0.0020253918
-0.0010201379
-0.0012277506
-0.0024420905
-0.0012015356
-0.0011341099
-0.0026721114
-0.0012122572
-0.0026615585
-0.0010758835
-0.0010921269
-0.00021088972
-3.6931611e-05
-1.4487914e-05
-0.00047080389
-0.0001697868
-6.9474397e-05
-0.0007584785
-0.00042920781
-0.00018353698
-0.001022739
-0.00083902586
-0.00037816914
-0.0011977866
-0.0013504598
-0.00064104259
-0.0012531714
-0.0018504488
-0.00090378623
-0.0012286741
-0.0022322783
-0.0010689522
-0.0012004829
-0.0024325416
-0.0010788676
-0.0024142327
-0.00095202984
-0.0012151619
-0.00017385117
-1.2606328e-05
-3.0878921e-05
-0.00039365428
-5.9680019e-05
-0.00014276087
-0.00064770733
-0.00015598529
-0.0003625384
-0.00090152701
-0.00031919186
-0.00071463669
-0.0011015363
-0.00053998674
-0.0011653464
-0.0012124438
-0.00076221677
-0.0016165414
-0.0012585379
-0.0009018909
-0.0019598166
-0.0013057504
-0.00090596136
-0.0021277383
-0.00078804765
-0.0021098878
-0.0013865237
1.5345582e-06
-1.1530231e-06
-1.2651696e-05
-3.3616598e-07
6.4774109e-06
-6.1859933e-06
-5.8182202e-05
-2.5465286e-07
1.4440732e-05
-1.8659398e-05
-0.00014816198
2.8728404e-06
2.2740987e-05
-4.5978857e-05
-0.00029641737
1.4904197e-05
2.9295653e-05
-9.6811386e-05
-0.00049436182
4.463188e-05
3.7118919e-05
-0.0001724948
-0.00069441752
9.6872436e-05
5.3279038e-05
-0.00025993364
-0.00082219776
0.00016408054
8.2548004e-05
-0.00033580839
-0.00082750509
0.00022808317
-0.00037632217
-0.00072008653
0.00027105999
0.00011984922
2.4911487e-06
-3.1683989e-06
-1.4963684e-05
1.062373e-05
-1.4879527e-05
-6.891344e-05
2.3608748e-05
-3.9466896e-05
-0.00017571454
3.62824e-05
-8.5311086e-05
-0.00035151068
4.3475323e-05
-0.00015968212
-0.00058536489
4.7222271e-05
-0.00025937884
-0.00082064924
5.5608069e-05
-0.00036571627
-0.00097155559
7.4982103e-05
-0.00045119178
-0.00098285841
-0.0004913367
-0.00086833179
0.00010629873
3.7132556e-06
-5.6357213e-06
-1.701415e-05
1.5678324e-05
-2.52635e-05
-7.8471654e-05
3.4265705e-05
-6.367119e-05
-0.00020025841
5.1071506e-05
-0.00012961083
-0.00040020023
5.757792e-05
-0.00022789021
-0.00066434089
5.5358837e-05
-0.0003503038
-0.00092699411
5.4197784e-05
-0.00047335934
-0.0010927317
6.2311368e-05
-0.00056681853
-0.0011047443
-0.00060505984
-0.00098288291
8.3033888e-05
5.0868109e-06
-8.3459456e-06
-1.8839462e-05
2.1339808e-05
-3.6421998e-05
-8.6953447e-05
4.5995471e-05
-8.8995388e-05
-0.00022191344
6.6796296e-05
-0.00017446786
-0.00044267658
7.1725145e-05
-0.00029458224
-0.00073196731
6.2618521e-05
-0.00043658586
-0.0010155723
5.127266e-05
-0.00057378746
-0.0011902015
4.8347365e-05
-0.00067290399
-0.0011995511
-0.00070695091
-0.0010701499
5.7635477e-05
6.4651348e-06
-1.0936326e-05
-2.0339261e-05
2.7058143e-05
-4.6934621e-05
-9.4004216e-05
5.7740743e-05
-0.0001123577
-0.00024003784
8.2146718e-05
-0.00021470246
-0.00047823282
8.491967e-05
-0.00035257868
-0.00078810346
6.8557375e-05
-0.00050965444
-0.0010877293
4.7945939e-05
-0.00065682761
-0.0012674011
3.5351682e-05
-0.00075884934
-0.0012723636
-0.00078709394
-0.0011356052
3.4765081e-05
7.946793e-06
-1.3153534e-05
-2.1554534e-05
3.3232417e-05
-5.5665315e-05
-9.9766442e-05
7.0483162e-05
-0.00013108995
-0.00025491903
9.8950404e-05
-0.00024556588
-0.00050739886
9.9888633e-05
-0.00039479015
-0.00083377673
7.7072222e-05
-0.000560019
-0.0011454416
4.8421584e-05
-0.00071134422
-0.0013275376
2.7497042e-05
-0.00081272001
-0.0013273376
-0.00083421093
-0.001183667
1.8504871e-05
9.2600295e-06
-1.4527369e-05
-2.251169e-05
3.8820183e-05
-6.0816254e-05
-0.00010431168
8.2107263e-05
-0.00014141236
-0.00026664777
0.00011426793
-0.00026092886
-0.00053027605
0.00011361047
-0.00041291975
-0.00086923504
8.548672e-05
-0.00057772003
-0.0011894495
5.087508e-05
-0.00072622138
-0.0013722213
2.4023257e-05
-0.00082295703
-0.0013669917
-0.00083758297
-0.0012174134
9.2752694e-06
1.0360556e-05
-1.4637181e-05
-2.3189724e-05
4.3642589e-05
-6.0765072e-05
-0.00010760592
9.2344816e-05
-0.0001399455
-0.00027528303
0.00012798855
-0.00025535594
-0.00054726404
0.00012634049
-0.00039953677
-0.0008955642
9.4467601e-05
-0.00055370567
-0.0012217738
5.5901459e-05
-0.00069093683
-0.0014043213
2.542839e-05
-0.00077838653
-0.0013946735
-0.00078693631
-0.0012402917
7.435986e-06
1.1186883e-05
-1.3161075e-05
-2.3622925e-05
4.7440738e-05
-5.4311637e-05
-0.00010979755
0.00010073161
-0.0001242451
-0.00028119519
0.00013956536
-0.00022498294
-0.00055911688
0.00013766466
-0.00034937416
-0.00091407887
0.00010355087
-0.00048123582
-0.0012443651
6.2647311e-05
-0.00059742133
-0.0014262992
3.0725079e-05
-0.00067047972
-0.0014130505
-0.00067443152
-0.0012549949
1.1737086e-05
1.1765529e-05
-1.0031261e-05
-2.3873473e-05
5.0259235e-05
-4.1215311e-05
-0.00011114567
0.0001072492
-9.385131e-05
-0.0002849729
0.00014894366
-0.00016908999
-0.00056686255
0.00014745714
-0.00026132133
-0.00092627577
0.00011247003
-0.00035853882
-0.0012591381
7.0390014e-05
-0.00044358735
-0.001440305
3.848869e-05
-0.00049682255
-0.0014243101
-0.00049798475
-0.0012636353
1.9965192e-05
1.2117199e-05
-5.4797982e-06
-2.4060435e-05
5.2064082e-05
-2.2412493e-05
-0.00011206108
0.00011157577
-5.0829012e-05
-0.00028738107
0.00015536836
-9.1236671e-05
-0.00057157495
0.00015447679
-0.00014054888
-0.00093342101
0.00011951209
-0.00019236192
-0.0012674479
7.7020073e-05
-0.00023755351
-0.0014477631
4.5733541e-05
-0.00026574297
-0.0014298909
-0.00026582186
-0.0012676327
2.8278026e-05
1.2174841e-05
1.5199781e-11
-2.408607e-05
5.2570192e-05
5.8571407e-11
-0.00011229028
0.00011305272
1.1145166e-10
-0.00028817467
0.0001577165
1.5134953e-10
-0.00057339611
0.00015712982
1.4971551e-10
-0.00093644274
0.00012243656
9.2629247e-11
-0.0012711127
8.0033051e-05
6.6693315e-11
-0.0014510727
4.9669016e-05
2.6172181e-10
-0.0014323065
6.3615654e-10
-0.001269302
3.3396075e-05
1.2174853e-05
5.4798166e-06
-2.4086067e-05
5.2570176e-05
2.241258e-05
-0.00011229027
0.00011305272
5.0829209e-05
-0.00028817464
0.00015771649
9.1236925e-05
-0.00057339606
0.00015712978
0.0001405491
-0.00093644265
0.00012243654
0.00019236204
-0.0012711126
8.0033078e-05
0.00023755361
-0.0014510726
4.9669118e-05
0.00026574343
-0.0014323064
0.00026582299
-0.001269302
3.339636e-05
1.2117228e-05
1.0031272e-05
-2.4060436e-05
5.2064067e-05
4.121538e-05
-0.00011206108
0.00011157577
9.3851482e-05
-0.00028738108
0.00015536835
0.00016909016
-0.00057157497
0.00015447676
0.00026132145
-0.00093342103
0.00011951209
0.00035853886
-0.0012674479
7.702011e-05
0.00044358737
-0.0014477631
4.5733748e-05
0.00049682285
-0.0014298909
0.00049798557
-0.0012676327
2.8278616e-05
1.1765546e-05
1.3161071e-05
-2.3873469e-05
5.0259249e-05
5.4311674e-05
-0.00011114565
0.00010724922
0.00012424517
-0.00028497286
0.00014894374
0.0002249829
-0.00056686246
0.00014745724
0.00034937405
-0.00092627564
0.00011247013
0.00048123563
-0.0012591379
7.0390118e-05
0.00059742113
-0.0014403049
3.848892e-05
0.00067047993
-0.00142431
0.00067443228
-0.0012636353
1.9965645e-05
1.1186921e-05
1.4637171e-05
-2.3622924e-05
4.7440768e-05
6.0765098e-05
-0.00010979755
0.0001007317
0.0001399455
-0.00028119518
0.00013956556
0.00025535575
-0.00055911684
0.00013766487
0.00039953645
-0.00091407882
0.00010355104
0.00055370522
-0.001244365
6.264749e-05
0.00069093644
-0.0014262991
3.0725298e-05
0.00077838678
-0.0014130505
0.00078693745
-0.0012549949
1.1737157e-05
1.0360549e-05
1.4527361e-05
-2.3189726e-05
4.3642561e-05
6.0816282e-05
-0.00010760592
9.2344879e-05
0.00014141234
-0.00027528305
0.00012798864
0.00026092857
-0.00054726407
0.00012634066
0.00041291925
-0.00089556423
9.4467838e-05
0.00057771934
-0.0012217739
5.590176e-05
0.00072622075
-0.0014043213
2.5428771e-05
0.00082295725
-0.0013946735
0.00083758463
-0.0012402917
7.4360854e-06
9.2600243e-06
1.3153517e-05
-2.2511694e-05
3.8820204e-05
5.5665309e-05
-0.0001043117
8.2107325e-05
0.00013108988
-0.00026664781
0.00011426795
0.00024556557
-0.00053027612
0.00011361062
0.00039478955
-0.00086923513
8.5486959e-05
0.00056001814
-0.0011894496
5.0875447e-05
0.00071134337
-0.0013722214
2.4023792e-05
0.00081272008
-0.0013669918
0.0008342128
-0.0012174134
9.2757333e-06
7.9467913e-06
1.0936321e-05
-2.1554542e-05
3.3232428e-05
4.6934624e-05
-9.9766477e-05
7.0483175e-05
0.00011235765
-0.00025491912
9.8950368e-05
0.00021470218
-0.00050739901
9.9888668e-05
0.00035257799
-0.00083377695
7.7072353e-05
0.00050965341
-0.0011454419
4.8421893e-05
0.00065682654
-0.0013275378
2.7497545e-05
0.00075884909
-0.0013273377
0.00078709557
-0.0011836671
1.8505655e-05
6.4651341e-06
8.3459387e-06
-2.0339264e-05
2.7058143e-05
3.6421988e-05
-9.4004224e-05
5.7740714e-05
8.8995352e-05
-0.00024003785
8.2146675e-05
0.00017446762
-0.00047823286
8.4919591e-05
0.00029458156
-0.00078810349
6.8557388e-05
0.00043658476
-0.0010877293
4.7946055e-05
0.00057378627
-0.0012674011
3.5352044e-05
0.0006729035
-0.0012723636
0.00070695183
-0.0011356052
3.4766085e-05
5.0867903e-06
5.6357342e-06
-1.883946e-05
2.1339762e-05
2.5263555e-05
-8.6953436e-05
4.5995356e-05
6.3671268e-05
-0.00022191341
6.6796076e-05
0.00012961072
-0.00044267653
7.1724804e-05
0.00022788966
-0.00073196723
6.2618203e-05
0.00035030272
-0.0010155722
5.12725e-05
0.00047335805
-0.0011902014
4.8347567e-05
0.00056681768
-0.001199551
0.00060505996
-0.0010701499
5.7636474e-05
3.7132197e-06
3.1684308e-06
-1.7014148e-05
1.567822e-05
1.487964e-05
-7.847164e-05
3.4265539e-05
3.9467059e-05
-0.00020025838
5.107124e-05
8.5311119e-05
-0.00040020015
5.7577484e-05
0.00015968179
-0.00066434076
5.5358306e-05
0.00025937796
-0.00092699396
5.4197274e-05
0.00036571505
-0.0010927316
6.2311215e-05
0.00045119065
-0.0011047441
0.0004913363
-0.00098288287
8.3034236e-05
2.4911491e-06
1.1530528e-06
-1.4963685e-05
1.0623739e-05
6.1860884e-06
-6.8913439e-05
2.3608816e-05
1.8659516e-05
-0.00017571453
3.6282515e-05
4.5978887e-05
-0.00035151066
4.3475316e-05
9.6811149e-05
-0.00058536487
4.7221958e-05
0.00017249422
-0.00082064923
5.5607331e-05
0.00025993289
-0.00097155555
7.4981111e-05
0.0003358076
-0.00098285836
0.00037632155
-0.00086833184
0.00010629796
1.5346072e-06
-1.26517e-05
-3.361732e-07
6.4775993e-06
-5.8182216e-05
-2.546819e-07
1.4441123e-05
-0.00014816201
2.8727594e-06
2.2741599e-05
-0.00029641742
1.4904001e-05
2.9296476e-05
-0.00049436188
4.4631483e-05
3.7119673e-05
-0.00069441758
9.6871824e-05
5.3279276e-05
-0.00082219784
0.00016408017
8.254663e-05
-0.00082750515
0.00022808399
-0.0007200866
0.0002710599
0.00011984723
-2.7659255e-07
1.4971523e-06
-1.2465626e-05
-1.4066295e-06
-1.5609718e-06
6.5848365e-06
-5.7264917e-05
-6.2177353e-06
-4.584905e-06
1.5895163e-05
-0.00014596467
-1.5068525e-05
-9.6135948e-06
2.9515041e-05
-0.00029273188
-2.8171815e-05
-1.5821631e-05
4.4535706e-05
-0.00048957609
-4.3113365e-05
-2.1380204e-05
5.5264027e-05
-0.00068929033
-5.4832601e-05
-2.458738e-05
5.6841415e-05
-0.00081726527
-5.8566698e-05
-2.5035725e-05
4.923286e-05
-0.00082290395
-5.3385642e-05
3.6409262e-05
-0.0007158429
-4.1676346e-05
-2.4012263e-05
-2.9016418e-07
1.5103008e-06
-1.4686667e-05
-1.6486713e-06
6.6199395e-06
-6.7590038e-05
-4.7168362e-06
1.587492e-05
-0.00017262615
-9.372229e-06
2.9165007e-05
-0.00034650528
-1.4348109e-05
4.333487e-05
-0.0005791882
-1.7731931e-05
5.2510635e-05
-0.00081451203
-1.8223122e-05
5.195777e-05
-0.00096618076
-1.5977095e-05
4.2300391e-05
-0.00097817198
2.8584387e-05
-0.00086394486
-1.2539172e-05
-2.6571394e-07
1.4258122e-06
-1.6663942e-05
-1.553434e-06
6.2423381e-06
-7.6806317e-05
-4.4668225e-06
1.4935946e-05
-0.00019640602
-8.7018839e-06
2.7272964e-05
-0.00039407308
-1.2685254e-05
4.0011008e-05
-0.00065703359
-1.4383434e-05
4.7349174e-05
-0.00092013443
-1.2851398e-05
4.4889638e-05
-0.0010871956
-8.94986e-06
3.3881512e-05
-0.0011002269
2.0220062e-05
-0.00097860811
-4.8603621e-06
-2.285811e-07
1.2545558e-06
-1.843963e-05
-1.4020445e-06
5.5048321e-06
-8.50425e-05
-4.0594917e-06
1.319473e-05
-0.00021751481
-7.7178035e-06
2.4053681e-05
-0.00043579902
-1.0632967e-05
3.4976125e-05
-0.00072401729
-1.0840982e-05
4.0467102e-05
-0.0010084823
-7.850746e-06
3.6572455e-05
-0.0011848746
-3.189975e-06
2.5078592e-05
-0.0011954089
1.2309929e-05
-0.0010660969
6.6716285e-07
-1.7170888e-07
1.0118453e-06
-1.9924841e-05
-1.1712316e-06
4.4855746e-06
-9.1985423e-05
-3.4855522e-06
1.0860181e-05
-0.00023538894
-6.4989637e-06
1.9915708e-05
-0.00047108142
-8.3696839e-06
2.8854916e-05
-0.00078011152
-7.2898071e-06
3.2663767e-05
-0.0010810058
-3.2679867e-06
2.7871106e-05
-0.0012627216
1.6217882e-06
1.6643617e-05
-0.0012688184
5.3020431e-06
-0.0011318522
4.8765943e-06
-1.2072106e-07
7.4429093e-07
-2.1166265e-05
-9.6040746e-07
3.3590718e-06
-9.7800273e-05
-2.9492162e-06
8.2891195e-06
-0.00025035919
-5.3397616e-06
1.5409902e-05
-0.00050050254
-6.224593e-06
2.2346595e-05
-0.00082638361
-3.9974461e-06
2.4685385e-05
-0.0011396904
8.1685776e-07
1.9478389e-05
-0.0013239592
5.6650632e-06
9.1058969e-06
-0.0013246481
-5.1376581e-07
-0.0011803282
8.1420116e-06
-6.19099e-08
4.8037126e-07
-2.2185858e-05
-7.1944114e-07
2.2483341e-06
-0.00010254342
-2.3473565e-06
5.7553747e-06
-0.00026248611
-4.0980179e-06
1.0993551e-05
-0.00052410905
-4.0510456e-06
1.6060791e-05
-0.00086299625
-8.5075129e-07
1.7229094e-05
-0.0011851935
4.5066788e-06
1.2061956e-05
-0.0013701623
9.1125487e-06
2.9521734e-06
-0.0013654439
-4.8389803e-06
-0.001214691
1.0715336e-05
-4.5512146e-09
2.5318212e-07
-2.2957991e-05
-4.849083e-07
1.2836981e-06
-0.00010616092
-1.7630004e-06
3.5311539e-06
-0.00027178076
-2.908553e-06
7.0881355e-06
-0.00054221309
-2.02736e-06
1.0527531e-05
-0.00089091217
1.9859935e-06
1.0848573e-05
-0.0012194067
7.7241697e-06
6.1185198e-06
-0.001404116
1.2011561e-05
-1.4529694e-06
-0.0013945557
-7.4373082e-06
-0.0012384421
1.2760304e-05
4.6339834e-08
8.8858306e-08
-2.3504951e-05
-2.7778844e-07
5.6640981e-07
-0.00010875613
-1.2448817e-06
1.8230798e-06
-0.00027852004
-1.8578368e-06
4.0066596e-06
-0.00055542247
-2.6817859e-07
6.1277241e-06
-0.00091126873
4.3962264e-06
5.9383222e-06
-0.0012441193
1.0391658e-05
1.9932951e-06
-0.0014281694
1.4361455e-05
-3.8506018e-06
-0.0014146227
-8.153141e-06
-0.0012543118
1.4394223e-05
8.6582344e-08
-4.0166245e-10
-2.3870799e-05
-1.1561816e-07
1.4368665e-07
-0.00011052074
-8.3587453e-07
7.2731991e-07
-0.00028315689
-1.0227255e-06
1.8941538e-06
-0.0005645632
1.1301021e-06
3.0287022e-06
-0.00092532958
6.2880541e-06
2.6515025e-06
-0.0012610092
1.2460369e-05
-1.9839051e-07
-0.0014442857
1.6181393e-05
-4.1762863e-06
-0.0014277054
-6.9458337e-06
-0.0012643436
1.5682474e-05
1.1179318e-07
-2.2335438e-08
-2.4150297e-05
-1.2955715e-08
-1.4168131e-08
-0.00011177846
-5.6529696e-07
1.8410411e-07
-0.0002862855
-4.4598033e-07
6.5869923e-07
-0.0005704588
2.0987254e-06
1.1273913e-06
-0.00093406438
7.5991509e-06
8.4440057e-07
-0.0012711412
1.3895421e-05
-6.5454271e-07
-0.0014536032
1.748895e-05
-2.6683962e-06
-0.0014349923
-4.017325e-06
-0.001269694
1.6621781e-05
1.2332651e-07
-4.9757342e-12
-2.4231727e-05
3.4586223e-08
-1.728617e-11
-0.00011221567
-4.3526993e-07
-4.6887753e-11
-0.00028752065
-1.6484279e-07
-1.0019419e-10
-0.00057300771
2.5877703e-06
-1.5184146e-10
-0.00093806778
8.2602912e-06
-1.8551465e-10
-0.0012759406
1.4623283e-05
-9.8978256e-11
-0.0014580901
1.817361e-05
2.4306296e-10
-0.0014385254
7.9017527e-10
-0.0012722709
1.7124433e-05
1.2333114e-07
2.2322001e-08
-2.4231723e-05
3.4595851e-08
1.412466e-08
-0.00011221566
-4.3524263e-07
-1.8420853e-07
-0.00028752061
-1.6481469e-07
-6.5891658e-07
-0.00057300764
2.5877944e-06
-1.1277235e-06
-0.00093806767
8.2603331e-06
-8.4480404e-07
-0.0012759405
1.4623348e-05
6.5432356e-07
-0.00145809
1.8173683e-05
2.6688716e-06
-0.0014385254
4.0188816e-06
-0.0012722709
1.7124513e-05
1.1179903e-07
3.8616497e-10
-2.4150297e-05
-1.2952513e-08
-1.437365e-07
-0.00011177846
-5.6528826e-07
-7.274359e-07
-0.0002862855
-4.459737e-07
-1.8943985e-06
-0.00057045879
2.0987389e-06
-3.0290852e-06
-0.00093406437
7.5992222e-06
-2.6519844e-06
-0.0012711412
1.389556e-05
1.9809473e-07
-0.0014536032
1.7489128e-05
4.1767056e-06
-0.0014349923
6.9473185e-06
-0.001269694
1.6621977e-05
8.6592017e-08
-8.8878927e-08
-2.3870794e-05
-1.1560336e-07
-5.6646987e-07
-0.00011052072
-8.358618e-07
-1.8232158e-06
-0.00028315683
-1.022689e-06
-4.0069491e-06
-0.00056456308
1.1301851e-06
-6.1281872e-06
-0.0009253294
6.2882092e-06
-5.938921e-06
-0.001261009
1.246062e-05
-1.9937295e-06
-0.0014442855
1.61817e-05
3.8509331e-06
-0.0014277053
8.1545318e-06
-0.0012643436
1.5682819e-05
4.6353033e-08
-2.5320871e-07
-2.3504948e-05
-2.7778452e-07
-1.283766e-06
-0.00010875611
-1.2448609e-06
-3.5313126e-06
-0.00027852
-1.8577709e-06
-7.0884793e-06
-0.00055542239
-2.6804669e-07
-1.0528098e-05
-0.00091126862
4.3964622e-06
-1.0849327e-05
-0.0012441191
1.0392024e-05
-6.1191113e-06
-0.0014281693
1.4361917e-05
1.4531945e-06
-0.0014146226
7.4385245e-06
-0.0012543119
1.4394853e-05
-4.5514797e-09
-4.8039531e-07
-2.2957991e-05
-4.8493535e-07
-2.2483871e-06
-0.00010616092
-1.763015e-06
-5.7555316e-06
-0.00027178075
-2.9085362e-06
-1.0993949e-05
-0.00054221307
-2.0272358e-06
-1.606148e-05
-0.00089091214
1.9862728e-06
-1.7230016e-05
-0.0012194067
7.7246243e-06
-1.206272e-05
-0.001404116
1.2012181e-05
-2.9520937e-06
-0.0013945558
4.8398829e-06
-0.0012384422
1.2761261e-05
-6.1911844e-08
-7.4431693e-07
-2.218586e-05
-7.1945598e-07
-3.3591208e-06
-0.00010254342
-2.3473693e-06
-8.2892971e-06
-0.00026248613
-4.0979966e-06
-1.541036e-05
-0.00052410907
-4.0509095e-06
-2.2347397e-05
-0.00086299628
-8.5046242e-07
-2.4686454e-05
-0.0011851936
4.50717e-06
-1.9479326e-05
-0.0013701624
9.1132765e-06
-9.1060078e-06
-0.001365444
5.1436115e-07
-0.001214691
1.0716397e-05
-1.2071731e-07
-1.0118703e-06
-2.1166271e-05
-9.6040454e-07
-4.4856109e-06
-9.78003e-05
-2.9492183e-06
-1.0860335e-05
-0.00025035926
-5.3397663e-06
-1.9916154e-05
-0.00050050265
-6.2245345e-06
-2.8855791e-05
-0.00082638377
-3.9972569e-06
-3.2664968e-05
-0.0011396906
8.1729619e-07
-2.7872254e-05
-0.0013239594
5.6658011e-06
-1.6643976e-05
-0.0013246483
-5.3014938e-06
-0.0011803283
8.142821e-06
-1.7170867e-07
-1.2545848e-06
-1.9924841e-05
-1.1712299e-06
-5.5048905e-06
-9.1985423e-05
-3.4855704e-06
-1.3194901e-05
-0.00023538894
-6.4990178e-06
-2.405414e-05
-0.00047108142
-8.3697628e-06
-3.4977042e-05
-0.0007801115
-7.2898e-06
-4.0468423e-05
-0.0010810058
-3.2677216e-06
-3.6573854e-05
-0.0012627216
1.6224015e-06
-2.5079247e-05
-0.0012688185
-1.2309166e-05
-0.0011318522
4.8770252e-06
-2.2859036e-07
-1.4258273e-06
-1.8439627e-05
-1.4020731e-06
-6.2423547e-06
-8.5042485e-05
-4.0595749e-06
-1.4936025e-05
-0.00021751478
-7.7180083e-06
-2.7273281e-05
-0.00043579895
-1.063332e-05
-4.0011778e-05
-0.00072401718
-1.0841372e-05
-4.7350479e-05
-0.0010084821
-7.850991e-06
-4.4891188e-05
-0.0011848745
-3.1899296e-06
-3.3882443e-05
-0.0011954089
-2.0219125e-05
-0.001066097
6.6711364e-07
-2.6573847e-07
-1.5102997e-06
-1.6663938e-05
-1.553524e-06
-6.6199145e-06
-7.6806296e-05
-4.4670469e-06
-1.5874909e-05
-0.00019640597
-8.7023314e-06
-2.916517e-05
-0.00039407298
-1.2686013e-05
-4.3335434e-05
-0.00065703343
-1.4384536e-05
-5.2511721e-05
-0.00092013422
-1.2852597e-05
-5.1959305e-05
-0.0010871954
-8.9508452e-06
-4.2301514e-05
-0.0011002269
-2.8583698e-05
-0.00097860814
-4.8610341e-06
-2.9018565e-07
-1.4971324e-06
-1.4686666e-05
-1.6487476e-06
-6.5847544e-06
-6.7590034e-05
-4.7170183e-06
-1.589502e-05
-0.00017262614
-9.3726721e-06
-2.9514903e-05
-0.00034650526
-1.4349097e-05
-4.4535718e-05
-0.00057918816
-1.7733603e-05
-5.5264456e-05
-0.00081451198
-1.8225222e-05
-5.6842548e-05
-0.0009661807
-1.5979373e-05
-4.9233767e-05
-0.00097817199
-3.6409043e-05
-0.00086394495
-1.2540907e-05
-2.7659466e-07
-1.2465628e-05
-1.4066091e-06
-1.5609784e-06
-5.7264925e-05
-6.2176628e-06
-4.5849349e-06
-0.00014596469
-1.5068396e-05
-9.6136793e-06
-0.00029273191
-2.8171693e-05
-1.5821734e-05
-0.00048957612
-4.3113434e-05
-2.1380397e-05
-0.00068929037
-5.4833034e-05
-2.4588138e-05
-0.00081726531
-5.8567353e-05
-2.5037739e-05
-0.00082290401
-5.3385309e-05
-0.00071584297
-4.167612e-05
-2.4014297e-05
-1.118456e-07
-2.3599018e-07
-1.2294424e-05
1.7663352e-07
-4.783422e-07
-1.1307946e-06
-5.6639156e-05
8.7152758e-07
-1.2476913e-06
-3.1125639e-06
-0.00014451553
2.432767e-06
-2.6423113e-06
-7.0848313e-06
-0.00028981767
5.5652312e-06
-4.4826e-06
-1.4201974e-05
-0.00048469941
1.1165564e-05
-5.5755079e-06
-2.5222915e-05
-0.00068278712
1.9812587e-05
-3.8200877e-06
-3.9397649e-05
-0.00081051314
3.0890085e-05
2.4344189e-06
-5.3801851e-05
-0.0008175325
4.217589e-05
-6.409284e-05
-0.00071251145
5.0884975e-05
1.2310834e-05
-1.3919809e-07
-3.0832851e-07
-1.4475131e-05
-5.6914765e-07
-1.4533831e-06
-6.6837504e-05
-1.4559872e-06
-3.9354137e-06
-0.00017091647
-3.1152068e-06
-8.8280954e-06
-0.00034310282
-5.4426243e-06
-1.7520604e-05
-0.00057354218
-7.2168429e-06
-3.093566e-05
-0.0008070251
-6.2322618e-06
-4.8122914e-05
-0.00095844009