/*--------------------------------*- C++ -*----------------------------------*\
  =========                 |
  \\      /  F ield         | OpenFOAM: The Open Source CFD Toolbox
   \\    /   O peration     | Website:  https://openfoam.org
    \\  /    A nd           | Version:  10
     \\/     M anipulation  |
\*---------------------------------------------------------------------------*/
FoamFile
{
    format      ascii;
    class       volScalarField;
    location    "2.4";
    object      T;
}
// * * * * * * * * * * * * * * * * * * * * * * * * * * * * * * * * * * * * * //

dimensions      [0 0 -1 0 0 0 0];

internalField   nonuniform List<scalar> 
100
(
-0.0575787
-0.170695
-0.277765
-0.374994
-0.458939
-0.526626
-0.575657
-0.604295
-0.611526
-0.597093
-0.561508
-0.50603
-0.432627
-0.343898
-0.242985
-0.133465
-0.0192173
0.0957116
0.20725
0.311446
0.404609
0.483439
0.545143
0.587534
0.609112
0.609112
0.587534
0.545142
0.483438
0.404608
0.311445
0.207249
0.0957105
-0.0192183
-0.133466
-0.242986
-0.343898
-0.432628
-0.506031
-0.561508
-0.597093
-0.611525
-0.604295
-0.575656
-0.526625
-0.458938
-0.374993
-0.277763
-0.170694
-0.0575774
0.0575787
0.170695
0.277764
0.374994
0.458939
0.526626
0.575657
0.604295
0.611525
0.597092
0.561507
0.50603
0.432627
0.343897
0.242985
0.133465
0.0192171
-0.0957118
-0.20725
-0.311446
-0.404609
-0.483439
-0.545143
-0.587534
-0.609112
-0.609112
-0.587534
-0.545142
-0.483438
-0.404608
-0.311445
-0.207249
-0.0957104
0.0192185
0.133467
0.242987
0.343899
0.432628
0.506031
0.561508
0.597093
0.611526
0.604295
0.575657
0.526626
0.458938
0.374993
0.277764
0.170694
0.0575775
)
;

boundaryField
{
    inlet
    {
        type            cyclic;
    }
    outlet
    {
        type            cyclic;
    }
    bottom
    {
        type            slip;
    }
    top
    {
        type            slip;
    }
    frontAndBack
    {
        type            empty;
    }
}


// ************************************************************************* //
