/*--------------------------------*- C++ -*----------------------------------*\
  =========                 |
  \\      /  F ield         | OpenFOAM: The Open Source CFD Toolbox
   \\    /   O peration     | Website:  https://openfoam.org
    \\  /    A nd           | Version:  10
     \\/     M anipulation  |
\*---------------------------------------------------------------------------*/
FoamFile
{
    format      ascii;
    class       volScalarField;
    location    "2.4";
    object      T_0;
}
// * * * * * * * * * * * * * * * * * * * * * * * * * * * * * * * * * * * * * //

dimensions      [0 0 -1 0 0 0 0];

internalField   nonuniform List<scalar> 
100
(
-0.0569204
-0.168744
-0.274589
-0.370707
-0.453692
-0.520605
-0.569076
-0.597386
-0.604534
-0.590266
-0.555088
-0.500245
-0.427681
-0.339966
-0.240207
-0.131939
-0.0189975
0.0946173
0.20488
0.307885
0.399983
0.477912
0.53891
0.580817
0.602148
0.602148
0.580816
0.538909
0.477911
0.399982
0.307884
0.204879
0.0946162
-0.0189986
-0.13194
-0.240208
-0.339966
-0.427681
-0.500245
-0.555088
-0.590266
-0.604534
-0.597385
-0.569075
-0.520604
-0.453691
-0.370705
-0.274587
-0.168742
-0.0569191
0.0569203
0.168743
0.274589
0.370706
0.453692
0.520605
0.569075
0.597386
0.604534
0.590266
0.555087
0.500244
0.42768
0.339965
0.240207
0.131939
0.0189974
-0.0946175
-0.20488
-0.307885
-0.399983
-0.477912
-0.53891
-0.580817
-0.602148
-0.602148
-0.580816
-0.538909
-0.477911
-0.399982
-0.307884
-0.204879
-0.0946161
0.0189988
0.131941
0.240208
0.339967
0.427682
0.500246
0.555088
0.590266
0.604534
0.597386
0.569075
0.520605
0.453691
0.370706
0.274588
0.168742
0.0569192
)
;

boundaryField
{
    inlet
    {
        type            cyclic;
    }
    outlet
    {
        type            cyclic;
    }
    bottom
    {
        type            slip;
    }
    top
    {
        type            slip;
    }
    frontAndBack
    {
        type            empty;
    }
}


// ************************************************************************* //
