/*--------------------------------*- C++ -*----------------------------------*\
| =========                 |                                                 |
| \\      /  F ield         | OpenFOAM: The Open Source CFD Toolbox           |
|  \\    /   O peration     | Version:  2406                                  |
|   \\  /    A nd           | Website:  www.openfoam.com                      |
|    \\/     M anipulation  |                                                 |
\*---------------------------------------------------------------------------*/
FoamFile
{
    version     2.0;
    format      ascii;
    arch        "LSB;label=32;scalar=64";
    class       volScalarField;
    location    "21";
    object      p;
}
// * * * * * * * * * * * * * * * * * * * * * * * * * * * * * * * * * * * * * //

dimensions      [0 2 -2 0 0 0 0];

internalField   nonuniform List<scalar> 
1176
(
0.79699974
0.79702261
0.79704628
0.79705394
0.79702241
0.79692772
0.79677049
0.79658432
0.79640512
0.79623796
0.79608334
0.79598773
0.79598773
0.79608334
0.79623796
0.7964051
0.79658429
0.79677044
0.79692764
0.7970223
0.79705379
0.79704607
0.79702238
0.79699948
0.77385131
0.77380435
0.77375659
0.7737397
0.7738022
0.77400455
0.77436987
0.77483428
0.77526514
0.77555124
0.77567063
0.77570489
0.77570489
0.77567063
0.77555124
0.77526516
0.77483432
0.77436996
0.77400469
0.77380237
0.7737399
0.77375682
0.77380459
0.77385155
0.75676655
0.75678857
0.75680836
0.75680645
0.75674739
0.75658621
0.75631445
0.7559865
0.75568029
0.7554675
0.75535669
0.75530787
0.75530787
0.75535668
0.75546748
0.75568026
0.75598647
0.75631443
0.75658619
0.75674737
0.75680644
0.75680835
0.75678855
0.75676654
0.74009466
0.74010379
0.74011584
0.74013225
0.74015479
0.74017236
0.74014013
0.74000672
0.7397746
0.73950204
0.73927784
0.73915734
0.73915734
0.73927783
0.73950203
0.7397746
0.74000671
0.74014012
0.74017235
0.74015478
0.74013223
0.74011583
0.74010377
0.74009464
0.72367561
0.72367957
0.72368456
0.72369062
0.72370032
0.7237206
0.72375678
0.72379829
0.72381996
0.72379609
0.72373397
0.72368134
0.72368134
0.72373397
0.72379609
0.72381996
0.72379829
0.72375678
0.7237206
0.72370032
0.72369062
0.72368456
0.72367957
0.72367561
0.70721396
0.70721637
0.70721962
0.70722366
0.70722857
0.7072354
0.70724957
0.70728088
0.70733087
0.70738812
0.70743083
0.70744749
0.70744749
0.70743083
0.70738813
0.70733088
0.70728089
0.70724957
0.7072354
0.70722856
0.70722365
0.70721961
0.70721636
0.70721395
0.69080815
0.69081029
0.6908131
0.69081652
0.69082042
0.69082393
0.690826
0.69082818
0.69083673
0.69085396
0.69087186
0.69088358
0.69088358
0.69087186
0.69085396
0.69083673
0.69082818
0.690826
0.69082393
0.69082041
0.69081651
0.69081308
0.69081027
0.69080814
0.67442828
0.67443004
0.67443237
0.67443529
0.67443896
0.67444333
0.67444779
0.67445094
0.67445218
0.6744538
0.67445084
0.67444833
0.67444833
0.67445084
0.6744538
0.67445218
0.67445094
0.67444778
0.67444333
0.67443895
0.67443528
0.67443236
0.67443003
0.67442827
0.658074
0.65807546
0.65807738
0.6580798
0.65808281
0.6580866
0.65809164
0.65809869
0.65810738
0.6581174
0.65812517
0.65812876
0.65812876
0.65812517
0.6581174
0.65810738
0.65809869
0.65809164
0.65808659
0.6580828
0.65807978
0.65807737
0.65807544
0.65807399
0.64173631
0.64173751
0.64173912
0.64174116
0.64174372
0.6417469
0.64175106
0.64175745
0.64176761
0.64178075
0.64179507
0.64180437
0.64180437
0.64179507
0.64178075
0.64176761
0.64175745
0.64175106
0.64174689
0.64174371
0.64174114
0.6417391
0.6417375
0.64173629
0.62541193
0.62541296
0.62541433
0.62541608
0.62541829
0.62542102
0.62542441
0.62542926
0.62543712
0.62544778
0.62546034
0.62546948
0.62546948
0.62546034
0.62544779
0.62543713
0.62542926
0.62542441
0.62542101
0.62541828
0.62541606
0.62541431
0.62541294
0.62541191
0.60909846
0.60909935
0.60910055
0.60910207
0.60910402
0.60910641
0.60910938
0.60911339
0.6091196
0.60912826
0.60913883
0.60914627
0.60914628
0.60913883
0.60912827
0.60911961
0.60911339
0.60910937
0.6091064
0.609104
0.60910205
0.60910052
0.60909933
0.60909843
0.59279426
0.59279505
0.59279611
0.59279746
0.59279918
0.59280131
0.59280394
0.59280748
0.59281288
0.59282063
0.59283032
0.592837
0.592837
0.59283032
0.59282063
0.59281289
0.59280748
0.59280394
0.59280129
0.59279916
0.59279743
0.59279608
0.59279502
0.59279423
0.57649804
0.57649874
0.57649969
0.57650089
0.57650243
0.57650433
0.57650668
0.57650981
0.57651459
0.57652156
0.57653022
0.57653631
0.57653631
0.57653023
0.57652156
0.57651459
0.57650982
0.57650668
0.57650432
0.5765024
0.57650086
0.57649965
0.57649871
0.57649801
0.56020877
0.5602094
0.56021025
0.56021133
0.56021271
0.56021443
0.56021653
0.5602193
0.56022345
0.56022958
0.56023711
0.56024251
0.56024251
0.56023711
0.56022959
0.56022346
0.5602193
0.56021653
0.56021442
0.56021269
0.5602113
0.56021021
0.56020937
0.56020874
0.54392565
0.54392622
0.54392699
0.54392797
0.54392922
0.54393078
0.54393267
0.54393513
0.54393876
0.54394414
0.54395067
0.54395546
0.54395546
0.54395068
0.54394415
0.54393877
0.54393513
0.54393267
0.54393076
0.54392919
0.54392793
0.54392695
0.54392618
0.54392561
0.52764803
0.52764855
0.52764924
0.52765013
0.52765128
0.52765269
0.52765441
0.52765662
0.52765984
0.5276646
0.52767032
0.52767461
0.52767461
0.52767033
0.52766461
0.52765985
0.52765663
0.52765441
0.52765268
0.52765125
0.52765009
0.5276492
0.5276485
0.52764798
0.51137535
0.51137582
0.51137646
0.51137728
0.51137832
0.51137962
0.51138119
0.51138318
0.51138606
0.5113903
0.51139535
0.51139922
0.51139922
0.51139536
0.51139031
0.51138607
0.51138319
0.51138119
0.5113796
0.51137829
0.51137723
0.51137641
0.51137577
0.5113753
0.49510716
0.49510759
0.49510817
0.49510892
0.49510989
0.49511108
0.49511252
0.49511432
0.4951169
0.49512071
0.4951252
0.49512869
0.49512869
0.49512521
0.49512072
0.49511692
0.49511433
0.49511251
0.49511106
0.49510985
0.49510888
0.49510813
0.49510754
0.4951071
0.47884305
0.47884345
0.47884398
0.47884467
0.47884556
0.47884666
0.47884799
0.47884963
0.47885196
0.47885538
0.47885941
0.47886257
0.47886257
0.47885942
0.47885539
0.47885197
0.47884964
0.47884798
0.47884664
0.47884553
0.47884463
0.47884393
0.47884339
0.47884299
0.46258267
0.46258304
0.46258354
0.46258418
0.462585
0.46258602
0.46258724
0.46258875
0.46259086
0.46259395
0.4625976
0.46260046
0.46260046
0.4625976
0.46259397
0.46259087
0.46258876
0.46258724
0.462586
0.46258497
0.46258414
0.46258349
0.46258299
0.46258262
0.44632574
0.44632608
0.44632655
0.44632714
0.4463279
0.44632884
0.44632998
0.44633137
0.44633328
0.4463361
0.44633941
0.44634202
0.44634202
0.44633941
0.44633611
0.4463333
0.44633138
0.44632997
0.44632883
0.44632787
0.44632709
0.4463265
0.44632603
0.44632569
0.43007198
0.4300723
0.43007272
0.43007327
0.43007398
0.43007486
0.43007591
0.4300772
0.43007895
0.43008152
0.43008455
0.43008693
0.43008693
0.43008455
0.43008153
0.43007896
0.43007721
0.43007591
0.43007484
0.43007395
0.43007323
0.43007268
0.43007225
0.43007193
0.41382114
0.41382144
0.41382184
0.41382235
0.41382301
0.41382383
0.41382481
0.413826
0.4138276
0.41382996
0.41383274
0.41383492
0.41383492
0.41383274
0.41382997
0.41382762
0.41382601
0.41382481
0.41382381
0.41382298
0.41382231
0.41382179
0.41382139
0.41382109
0.39757303
0.3975733
0.39757368
0.39757415
0.39757477
0.39757553
0.39757645
0.39757755
0.39757903
0.39758119
0.39758376
0.39758576
0.39758577
0.39758376
0.3975812
0.39757904
0.39757756
0.39757644
0.39757552
0.39757474
0.39757411
0.39757363
0.39757326
0.39757298
0.38132743
0.38132769
0.38132804
0.38132849
0.38132906
0.38132978
0.38133063
0.38133166
0.38133302
0.38133502
0.38133739
0.38133924
0.38133924
0.3813374
0.38133503
0.38133304
0.38133167
0.38133063
0.38132976
0.38132903
0.38132845
0.381328
0.38132765
0.38132739
0.36508419
0.36508443
0.36508476
0.36508518
0.36508572
0.36508639
0.36508718
0.36508814
0.36508941
0.36509125
0.36509345
0.36509516
0.36509516
0.36509346
0.36509126
0.36508942
0.36508815
0.36508718
0.36508637
0.36508569
0.36508514
0.36508472
0.36508439
0.36508415
0.34884314
0.34884337
0.34884367
0.34884406
0.34884457
0.3488452
0.34884594
0.34884684
0.34884801
0.34884972
0.34885177
0.34885335
0.34885335
0.34885177
0.34884973
0.34884803
0.34884685
0.34884594
0.34884518
0.34884454
0.34884403
0.34884363
0.34884332
0.3488431
0.33260414
0.33260435
0.33260464
0.332605
0.33260548
0.33260607
0.33260677
0.3326076
0.3326087
0.33261028
0.33261219
0.33261365
0.33261365
0.33261219
0.33261029
0.33260871
0.33260761
0.33260676
0.33260605
0.33260545
0.33260496
0.33260459
0.33260431
0.33260409
0.31636705
0.31636725
0.31636752
0.31636786
0.31636831
0.31636886
0.31636952
0.3163703
0.31637132
0.31637279
0.31637457
0.31637593
0.31637593
0.31637458
0.3163728
0.31637133
0.31637031
0.31636951
0.31636884
0.31636828
0.31636782
0.31636747
0.3163672
0.316367
0.30013175
0.30013194
0.30013219
0.30013252
0.30013293
0.30013345
0.30013407
0.3001348
0.30013576
0.30013713
0.3001388
0.30014006
0.30014006
0.3001388
0.30013714
0.30013577
0.30013481
0.30013407
0.30013344
0.3001329
0.30013247
0.30013215
0.30013189
0.3001317
0.28389814
0.28389831
0.28389855
0.28389885
0.28389925
0.28389974
0.28390032
0.28390101
0.2839019
0.28390317
0.28390474
0.28390591
0.28390592
0.28390474
0.28390319
0.28390191
0.28390102
0.28390032
0.28389972
0.28389921
0.28389881
0.2838985
0.28389826
0.28389808
0.2676661
0.26766626
0.26766649
0.26766677
0.26766714
0.2676676
0.26766815
0.2676688
0.26766963
0.26767083
0.26767229
0.26767339
0.26767339
0.2676723
0.26767084
0.26766965
0.26766881
0.26766815
0.26766758
0.26766711
0.26766672
0.26766643
0.2676662
0.26766604
0.25143554
0.25143569
0.25143591
0.25143618
0.25143653
0.25143696
0.25143747
0.25143808
0.25143886
0.25143998
0.25144135
0.25144238
0.25144238
0.25144136
0.25143999
0.25143888
0.25143809
0.25143747
0.25143694
0.25143648
0.25143612
0.25143584
0.25143563
0.25143547
0.23520637
0.23520652
0.23520672
0.23520697
0.2352073
0.23520771
0.2352082
0.23520877
0.2352095
0.23521055
0.23521184
0.2352128
0.23521281
0.23521185
0.23521056
0.23520952
0.23520878
0.23520819
0.23520768
0.23520725
0.23520691
0.23520665
0.23520644
0.2352063
0.21897852
0.21897866
0.21897885
0.21897909
0.2189794
0.21897978
0.21898024
0.21898078
0.21898147
0.21898244
0.21898365
0.21898455
0.21898456
0.21898366
0.21898246
0.21898149
0.21898079
0.21898023
0.21897975
0.21897934
0.21897901
0.21897876
0.21897857
0.21897843
0.2027519
0.20275203
0.2027522
0.20275243
0.20275272
0.20275309
0.20275352
0.20275403
0.20275467
0.20275559
0.20275673
0.20275758
0.20275758
0.20275674
0.20275561
0.2027547
0.20275404
0.20275351
0.20275305
0.20275266
0.20275234
0.20275211
0.20275192
0.20275179
0.18652644
0.18652656
0.18652673
0.18652694
0.18652722
0.18652756
0.18652797
0.18652845
0.18652905
0.18652991
0.18653098
0.18653177
0.18653177
0.18653099
0.18652993
0.18652908
0.18652846
0.18652796
0.18652752
0.18652714
0.18652684
0.18652661
0.18652644
0.18652631
0.17030207
0.17030219
0.17030234
0.17030255
0.17030281
0.17030313
0.17030351
0.17030397
0.17030454
0.17030535
0.17030636
0.1703071
0.1703071
0.17030637
0.17030537
0.17030457
0.17030399
0.1703035
0.17030308
0.17030271
0.17030242
0.17030221
0.17030205
0.17030193
0.15407874
0.15407885
0.154079
0.15407919
0.15407944
0.15407974
0.15408011
0.15408053
0.15408107
0.15408182
0.15408276
0.15408345
0.15408345
0.15408277
0.15408185
0.1540811
0.15408055
0.15408009
0.15407968
0.15407933
0.15407905
0.15407885
0.15407869
0.15407857
0.13785638
0.13785648
0.13785662
0.1378568
0.13785704
0.13785732
0.13785767
0.13785807
0.13785857
0.13785928
0.13786017
0.13786082
0.13786082
0.13786018
0.13785931
0.13785861
0.13785809
0.13785765
0.13785725
0.13785691
0.13785664
0.13785644
0.13785629
0.13785618
0.12163495
0.12163505
0.12163518
0.12163535
0.12163557
0.12163584
0.12163617
0.12163654
0.12163701
0.12163766
0.12163847
0.12163907
0.12163907
0.12163849
0.1216377
0.12163706
0.12163657
0.12163615
0.12163576
0.12163543
0.12163516
0.12163497
0.12163483
0.12163473
0.10541437
0.10541446
0.10541459
0.10541475
0.10541496
0.10541521
0.10541552
0.10541587
0.10541631
0.10541692
0.10541768
0.10541823
0.10541823
0.1054177
0.10541697
0.10541637
0.10541591
0.1054155
0.10541512
0.10541479
0.10541453
0.10541435
0.10541421
0.10541411
0.089194653
0.089194741
0.08919486
0.089195013
0.08919521
0.089195454
0.089195742
0.089196072
0.089196473
0.089197008
0.089197652
0.089198111
0.089198116
0.089197675
0.089197058
0.089196537
0.089196113
0.089195719
0.089195347
0.089195023
0.08919477
0.089194598
0.089194464
0.089194369
0.072975647
0.07297573
0.072975841
0.072975986
0.072976175
0.072976409
0.072976685
0.072977
0.072977375
0.072977864
0.072978437
0.072978825
0.07297883
0.072978462
0.07297792
0.072977447
0.072977047
0.072976662
0.072976292
0.07297597
0.072975721
0.072975557
0.072975429
0.07297534
0.056757526
0.056757606
0.056757714
0.056757852
0.056758028
0.056758245
0.056758498
0.056758782
0.056759101
0.056759469
0.056759834
0.056760038
0.056760044
0.056759862
0.056759532
0.056759182
0.056758836
0.056758476
0.056758123
0.056757814
0.056757575
0.056757418
0.056757295
0.056757209
0.040539737
0.040539808
0.040539905
0.040540036
0.040540211
0.040540436
0.040540702
0.040540994
0.040541318
0.040541717
0.040542173
0.040542468
0.040542474
0.040542201
0.040541783
0.040541404
0.040541054
0.040540686
0.040540319
0.040540002
0.040539766
0.040539619
0.04053951
0.040539436
0.024323466
0.024323549
0.024323656
0.024323784
0.024323931
0.024324093
0.024324267
0.02432445
0.024324614
0.024324685
0.024324585
0.024324342
0.024324348
0.024324613
0.024324749
0.024324698
0.024324506
0.024324249
0.024323984
0.024323745
0.024323553
0.024323418
0.024323308
0.024323227
0.0081053685
0.0081054388
0.0081055317
0.0081056532
0.0081058144
0.0081060146
0.008106236
0.0081064756
0.0081068524
0.0081076838
0.0081091539
0.0081105137
0.008110516
0.0081091685
0.0081077228
0.0081069069
0.0081065127
0.0081062222
0.0081059377
0.008105686
0.0081054967
0.0081053729
0.0081052812
0.0081052153
)
;

boundaryField
{
    INLET
    {
        type            zeroGradient;
    }
    OUTLET
    {
        type            fixedValue;
        value           uniform 0;
    }
    WALL
    {
        type            zeroGradient;
    }
    frontAndBackPlanes
    {
        type            empty;
    }
}


// ************************************************************************* //
