/*--------------------------------*- C++ -*----------------------------------*\
| =========                 |                                                 |
| \\      /  F ield         | OpenFOAM: The Open Source CFD Toolbox           |
|  \\    /   O peration     | Version:  2406                                  |
|   \\  /    A nd           | Website:  www.openfoam.com                      |
|    \\/     M anipulation  |                                                 |
\*---------------------------------------------------------------------------*/
FoamFile
{
    version     2.0;
    format      ascii;
    arch        "LSB;label=32;scalar=64";
    class       surfaceScalarField;
    location    "21";
    object      phi;
}
// * * * * * * * * * * * * * * * * * * * * * * * * * * * * * * * * * * * * * //

dimensions      [0 3 -1 0 0 0 0];

oriented        oriented;

internalField   nonuniform List<scalar> 
2279
(
2.3617493e-08
1.0148926e-05
2.0509769e-07
4.982375e-05
6.9331775e-07
0.00014252872
1.5784719e-06
0.00034353082
2.6788483e-06
0.00075378089
3.3472923e-06
0.0015415573
3.0435213e-06
0.0029497096
2.1516858e-06
0.005249171
1.4318058e-06
0.008582269
9.8959487e-07
0.012685995
5.1267164e-07
0.016666385
6.7266272e-12
0.01918202
-5.1265558e-07
0.01918202
-9.8956701e-07
0.016666385
-1.4317496e-06
0.012685995
-2.1515974e-06
0.008582269
-3.043392e-06
0.0052491709
-3.3471182e-06
0.0029497094
-2.6786418e-06
0.0015415572
-1.5782672e-06
0.0007537808
-6.9314729e-07
0.00034353078
-2.0498717e-07
0.0001425287
-2.3566752e-08
4.9823745e-05
1.0148925e-05
-9.524847e-08
1.0244175e-05
-5.3794006e-07
5.0266441e-05
-1.6230011e-06
0.00014361378
-3.5389522e-06
0.00034544677
-5.9201862e-06
0.00075616213
-7.4055018e-06
0.0015430426
-6.5847262e-06
0.0029488888
-3.9361578e-06
0.0052465224
-1.388386e-06
0.0085797213
-6.511431e-08
0.012684671
2.4241351e-07
0.016666078
7.1229469e-12
0.019182263
-2.4240314e-07
0.019182263
6.5106688e-08
0.016666078
1.3883321e-06
0.012684671
3.936032e-06
0.0085797214
6.5845233e-06
0.0052465226
7.4052603e-06
0.002948889
5.9199662e-06
0.0015430427
3.5388002e-06
0.00075616219
1.6229194e-06
0.00034544681
5.3790714e-07
0.0001436138
9.5242767e-08
5.0266448e-05
1.0244176e-05
5.0139835e-08
1.0194035e-05
2.6334498e-07
5.0053236e-05
7.4910718e-07
0.00014312802
1.5314584e-06
0.00034466442
2.3366558e-06
0.00075535693
2.5476621e-06
0.0015428316
1.8390966e-06
0.0029495974
9.7567551e-07
0.0052473858
6.7695997e-07
0.00858002
6.7178999e-07
0.012684677
4.8417186e-07
0.016666266
1.6412745e-11
0.019182747
-4.8413533e-07
0.019182747
-6.717453e-07
0.016666265
-6.7691227e-07
0.012684677
-9.7562076e-07
0.0085800199
-1.8390394e-06
0.0052473858
-2.5476186e-06
0.0029495974
-2.3366338e-06
0.0015428316
-1.5314527e-06
0.00075535692
-7.4911063e-07
0.00034466442
-2.6335042e-07
0.00014312802
-5.014392e-08
5.0053236e-05
1.0194035e-05
1.9586705e-08
1.0174448e-05
1.1184922e-07
4.9960974e-05
3.6128423e-07
0.00014287858
9.0504769e-07
0.00034412066
1.8716598e-06
0.00075439032
3.0948234e-06
0.0015416085
3.8987236e-06
0.0029487935
3.7285541e-06
0.005247556
2.9242087e-06
0.0085808243
1.9733715e-06
0.012685627
1.0127668e-06
0.016667226
-4.4119288e-12
0.01918376
-1.0127775e-06
0.01918376
-1.9733865e-06
0.016667226
-2.9242232e-06
0.012685627
-3.7285619e-06
0.0085808243
-3.898721e-06
0.005247556
-3.0948105e-06
0.0029487935
-1.8716399e-06
0.0015416085
-9.0502969e-07
0.00075439032
-3.6127214e-07
0.00034412066
-1.1184308e-07
0.00014287858
-1.958464e-08
4.9960974e-05
1.0174448e-05
8.0839409e-09
1.0166364e-05
4.7141473e-08
4.9921916e-05
1.5494688e-07
0.00014277078
3.9846313e-07
0.00034387714
8.7979464e-07
0.00075390899
1.7015164e-06
0.0015407867
2.7512751e-06
0.0029477437
3.4623609e-06
0.0052468449
3.4708605e-06
0.0085808158
2.8006845e-06
0.012686298
1.5505126e-06
0.016668476
-1.7394409e-12
0.01918531
-1.5505159e-06
0.01918531
-2.8006876e-06
0.016668476
-3.4708653e-06
0.012686298
-3.4623647e-06
0.0085808158
-2.7512827e-06
0.0052468449
-1.7015275e-06
0.0029477437
-8.7980507e-07
0.0015407867
-3.9847118e-07
0.00075390899
-1.5495312e-07
0.00034387714
-4.7145667e-08
0.00014277078
-8.0859976e-09
4.9921916e-05
1.0166365e-05
4.935899e-09
1.0161429e-05
2.8698908e-08
4.9898153e-05
9.5121528e-08
0.00014270436
2.4921449e-07
0.00034372305
5.6360965e-07
0.00075359459
1.1213753e-06
0.001540229
1.9184579e-06
0.0029469467
2.6588205e-06
0.0052461046
2.893058e-06
0.0085805816
2.4787646e-06
0.012686712
1.4344236e-06
0.016669521
-2.6121768e-12
0.019186745
-1.4344289e-06
0.019186745
-2.4787695e-06
0.016669521
-2.8930603e-06
0.012686712
-2.6588197e-06
0.0085805816
-1.9184539e-06
0.0052461046
-1.1213673e-06
0.0029469467
-5.6360113e-07
0.001540229
-2.4920967e-07
0.00075359459
-9.5121139e-08
0.00034372305
-2.8700529e-08
0.00014270436
-4.9375037e-09
4.9898153e-05
1.0161429e-05
4.4123857e-09
1.0157016e-05
2.552572e-08
4.987704e-05
8.3830174e-08
0.00014264605
2.1689421e-07
0.00034358998
4.8450128e-07
0.00075332698
9.5636114e-07
0.0015397571
1.641374e-06
0.0029462616
2.3245824e-06
0.0052454214
2.5939525e-06
0.0085803122
2.2393613e-06
0.012687066
1.3066714e-06
0.016670453
-2.1645699e-12
0.019188051
-1.306676e-06
0.019188051
-2.2393658e-06
0.016670453
-2.5939548e-06
0.012687066
-2.3245822e-06
0.0085803122
-1.6413694e-06
0.0052454214
-9.5635223e-07
0.0029462616
-4.8449169e-07
0.0015397571
-2.1688784e-07
0.00075332698
-8.382809e-08
0.00034358998
-2.5526127e-08
0.00014264605
-4.4133918e-09
4.987704e-05
1.0157016e-05
3.6255825e-09
1.0153391e-05
2.103666e-08
4.9859629e-05
6.9438174e-08
0.00014259765
1.8114149e-07
0.00034347828
4.0971435e-07
0.00075309841
8.2390395e-07
0.0015393429
1.4539926e-06
0.0029456316
2.1430757e-06
0.0052447323
2.4674728e-06
0.0085799878
2.1883924e-06
0.012687346
1.2866411e-06
0.016671355
-1.7726141e-12
0.019189338
-1.2866449e-06
0.019189338
-2.1883963e-06
0.016671355
-2.4674754e-06
0.012687346
-2.1430764e-06
0.0085799878
-1.4539891e-06
0.0052447323
-8.2389605e-07
0.0029456316
-4.0970549e-07
0.0015393429
-1.8113556e-07
0.00075309841
-6.9436479e-08
0.00034347828
-2.1037411e-08
0.00014259765
-3.6267983e-09
4.9859629e-05
1.0153391e-05
2.9831964e-09
1.0150408e-05
1.7347103e-08
4.9845265e-05
5.7377369e-08
0.00014255762
1.5007381e-07
0.00034338558
3.4097099e-07
0.00075290751
6.9193159e-07
0.001538992
1.2441086e-06
0.0029450794
1.9041859e-06
0.0052440722
2.3016004e-06
0.0085795904
2.0975076e-06
0.01268755
1.2520094e-06
0.016672201
-1.7287926e-12
0.01919059
-1.2520134e-06
0.01919059
-2.0975122e-06
0.016672201
-2.3016042e-06
0.01268755
-1.9041869e-06
0.0085795904
-1.2441037e-06
0.0052440722
-6.9192127e-07
0.0029450794
-3.4095967e-07
0.001538992
-1.5006629e-07
0.00075290751
-5.7375269e-08
0.00034338558
-1.7348099e-08
0.00014255762
-2.9847569e-09
4.9845265e-05
1.0150408e-05
2.4654898e-09
1.0147942e-05
1.4363213e-08
4.9833367e-05
4.7626536e-08
0.00014252436
1.2502858e-07
0.00034330818
2.8558859e-07
0.00075274695
5.8417886e-07
0.0015386934
1.0641837e-06
0.0029445994
1.6641573e-06
0.0052434722
2.0898739e-06
0.0085791647
1.9528937e-06
0.012687687
1.1802434e-06
0.016672973
-2.3092044e-12
0.01919177
-1.1802486e-06
0.01919177
-1.9528996e-06
0.016672973
-2.0898788e-06
0.012687687
-1.664158e-06
0.0085791647
-1.0641768e-06
0.0052434722
-5.8416545e-07
0.0029445994
-2.8557423e-07
0.0015386934
-1.2501924e-07
0.00075274695
-4.7624104e-08
0.00034330818
-1.4364642e-08
0.00014252436
-2.4675407e-09
4.9833367e-05
1.0147942e-05
2.1024934e-09
1.014584e-05
1.2258117e-08
4.9823212e-05
4.068825e-08
0.00014249593
1.0698998e-07
0.00034324188
2.4507789e-07
0.00075260886
5.0385198e-07
0.0015384346
9.2623345e-07
0.002944177
1.4715099e-06
0.0052429269
1.8909071e-06
0.0085787453
1.8050212e-06
0.012687772
1.1036883e-06
0.016673675
-2.7544128e-12
0.019192874
-1.1036944e-06
0.019192874
-1.8050281e-06
0.016673675
-1.8909126e-06
0.012687772
-1.4715098e-06
0.0085787453
-9.2622407e-07
0.0052429269
-5.0383483e-07
0.002944177
-2.4505996e-07
0.0015384346
-1.0697862e-07
0.00075260886
-4.068558e-08
0.00034324188
-1.2260153e-08
0.00014249593
-2.1051624e-09
4.9823212e-05
1.014584e-05
1.8282537e-09
1.0144011e-05
1.06655e-08
4.9814374e-05
3.5430215e-08
0.00014247116
9.3282678e-08
0.00034318403
2.1413839e-07
0.00075248801
4.4192619e-07
0.0015382068
8.1811167e-07
0.0029438008
1.3163786e-06
0.0052424287
1.7244921e-06
0.0085783372
1.6780411e-06
0.012687819
1.0378026e-06
0.016674315
-2.8940922e-12
0.019193912
-1.0378091e-06
0.019193912
-1.6780485e-06
0.016674315
-1.7244979e-06
0.012687819
-1.3163777e-06
0.0085783372
-8.1809953e-07
0.0052424287
-4.4190482e-07
0.0029438008
-2.1411643e-07
0.0015382068
-9.3269025e-08
0.00075248801
-3.5427211e-08
0.00034318403
-1.0668137e-08
0.00014247116
-1.8315614e-09
4.9814375e-05
1.0144011e-05
1.6104927e-09
1.0142401e-05
9.399646e-09
4.9806585e-05
3.1244302e-08
0.00014244932
8.2340045e-08
0.00034313293
1.8931986e-07
0.00075238103
3.9182153e-07
0.0015380043
7.2923942e-07
0.0029434634
1.1851434e-06
0.0052419728
1.5781734e-06
0.0085779441
1.5623377e-06
0.012687835
9.7669643e-07
0.0166749
-2.7524128e-12
0.019194888
-9.7670283e-07
0.019194888
-1.5623455e-06
0.0166749
-1.5781795e-06
0.012687835
-1.1851417e-06
0.0085779441
-7.2922457e-07
0.0052419728
-3.9179593e-07
0.0029434634
-1.8929385e-07
0.0015380043
-8.2324066e-08
0.00075238103
-3.124092e-08
0.00034313293
-9.4028447e-09
0.00014244932
-1.6144175e-09
4.9806585e-05
1.0142401e-05
1.4323185e-09
1.0140969e-05
8.3630119e-09
4.9799654e-05
2.781254e-08
0.00014242987
7.3352509e-08
0.00034308739
1.6886809e-07
0.00075228551
3.5026671e-07
0.0015378229
6.5458118e-07
0.0029431591
1.0720572e-06
0.0052415553
1.4464318e-06
0.0085775698
1.454875e-06
0.012687826
9.1880823e-07
0.016675436
-2.4207745e-12
0.019195807
-9.1881431e-07
0.019195807
-1.4548831e-06
0.016675436
-1.4464384e-06
0.012687826
-1.0720549e-06
0.0085775698
-6.5456378e-07
0.0052415553
-3.5023703e-07
0.0029431591
-1.6883818e-07
0.0015378229
-7.3334289e-08
0.00075228551
-2.7808782e-08
0.00034308739
-8.366734e-09
0.00014242987
-1.4368247e-09
4.9799655e-05
1.0140969e-05
1.2850203e-09
1.0139684e-05
7.5051096e-09
4.9793434e-05
2.4968837e-08
0.0001424124
6.5890956e-08
0.00034304647
1.5183754e-07
0.00075219956
3.1548436e-07
0.0015376593
5.9149522e-07
0.0029428831
9.7478548e-07
0.005241172
1.3297036e-06
0.0085772148
1.3567865e-06
0.012687799
8.6525138e-07
0.016675928
-2.0292329e-12
0.019196672
-8.6525703e-07
0.019196672
-1.3567948e-06
0.016675928
-1.3297107e-06
0.012687799
-9.7478261e-07
0.0085772148
-5.9147542e-07
0.005241172
-3.1545087e-07
0.0029428831
-1.5180399e-07
0.0015376593
-6.5870657e-08
0.00075219956
-2.4964728e-08
0.00034304647
-7.5093121e-09
0.0001424124
-1.2900601e-09
4.9793434e-05
1.0139684e-05
1.1615239e-09
1.0138522e-05
6.7852704e-09
4.9787811e-05
2.2580501e-08
0.00014239661
5.9615291e-08
0.00034300943
1.3748067e-07
0.0007521217
2.8604581e-07
0.0015375107
5.3770991e-07
0.0029426314
8.9070502e-07
0.005240819
1.2263972e-06
0.0085768792
1.2674898e-06
0.012687758
8.1592678e-07
0.01667638
-1.643084e-12
0.019197488
-8.1593199e-07
0.019197488
-1.2674983e-06
0.01667638
-1.2264047e-06
0.012687758
-8.9070168e-07
0.0085768791
-5.3768796e-07
0.005240819
-2.8600889e-07
0.0029426314
-1.3744386e-07
0.0015375107
-5.9593156e-08
0.0007521217
-2.2576097e-08
0.00034300943
-6.789906e-09
0.00014239661
-1.1670377e-09
4.9787811e-05
1.0138522e-05
1.056203e-09
1.0137466e-05
6.1710768e-09
4.9782696e-05
2.0541411e-08
0.00014238224
5.4252e-08
0.00034297572
1.251903e-07
0.00075205076
2.6076709e-07
0.0015373751
4.9125067e-07
0.0029424009
8.1722437e-07
0.005240493
1.1341835e-06
0.0085765622
1.1857913e-06
0.012687707
7.7021548e-07
0.016676795
-1.2786163e-12
0.019198259
-7.7022028e-07
0.019198259
-1.1858001e-06
0.016676795
-1.1341914e-06
0.012687707
-8.1722064e-07
0.0085765622
-4.9122687e-07
0.005240493
-2.6072723e-07
0.0029424009
-1.2515072e-07
0.0015373751
-5.4228331e-08
0.00075205076
-2.0536778e-08
0.00034297572
-6.1760859e-09
0.00014238224
-1.0621168e-09
4.9782696e-05
1.0137466e-05
9.6522115e-10
1.0136501e-05
5.6402883e-09
4.9778021e-05
1.8778338e-08
0.0001423691
4.9611067e-08
0.00034294489
1.1454103e-07
0.00075198583
2.388099e-07
0.0015372508
4.5070277e-07
0.002942189
7.5248199e-07
0.0052401913
1.0515e-06
0.0085762632
1.1108327e-06
0.012687647
7.2768987e-07
0.016677178
-9.2818084e-13
0.019198986
-7.2769426e-07
0.019198986
-1.1108416e-06
0.016677178
-1.0515082e-06
0.012687647
-7.5247799e-07
0.0085762632
-4.506775e-07
0.0052401912
-2.3876767e-07
0.002942189
-1.1449927e-07
0.0015372509
-4.958621e-08
0.00075198583
-1.877354e-08
0.00034294489
-5.6455926e-09
0.0001423691
-9.7144482e-10
4.9778021e-05
1.0136501e-05
8.8589899e-10
1.0135615e-05
5.1773424e-09
4.9773729e-05
1.7239903e-08
0.00014235704
4.555863e-08
0.00034291657
1.0523141e-07
0.00075192616
2.1957512e-07
0.0015371365
4.1504074e-07
0.0029419935
6.9508817e-07
0.0052399112
9.7709437e-07
0.0085759812
1.0418688e-06
0.012687582
6.8800669e-07
0.016677532
-5.9464745e-13
0.019199674
-6.8801068e-07
0.019199674
-1.0418778e-06
0.016677532
-9.7710289e-07
0.012687582
-6.9508402e-07
0.0085759812
-4.1501444e-07
0.0052399112
-2.195312e-07
0.0029419935
-1.051881e-07
0.0015371365
-4.5532953e-08
0.00075192616
-1.7234997e-08
0.00034291657
-5.1828461e-09
0.00014235704
-8.9232924e-10
4.9773729e-05
1.0135615e-05
8.1614029e-10
1.0134799e-05
4.7700766e-09
4.9769775e-05
1.5885983e-08
0.00014234592
4.1990168e-08
0.00034289047
9.7025759e-08
0.00075187112
2.0259188e-07
0.0015370309
3.8344699e-07
0.0029418127
6.4389437e-07
0.0052396508
9.0984288e-07
0.0085757152
9.7823759e-07
0.012687514
6.5086826e-07
0.01667786
-2.954101e-13
0.019200325
-6.5087187e-07
0.019200325
-9.7824661e-07
0.01667786
-9.0985166e-07
0.012687514
-6.4389023e-07
0.0085757152
-3.8342011e-07
0.0052396508
-2.0254696e-07
0.0029418127
-9.6981561e-08
0.0015370309
-4.1964047e-08
0.00075187112
-1.5881018e-08
0.00034289047
-4.7756748e-09
0.00014234592
-8.2266851e-10
4.9769775e-05
1.0134799e-05
7.5429366e-10
1.0134045e-05
4.4089019e-09
4.9766121e-05
1.4684912e-08
0.00014233564
3.8823066e-08
0.00034286633
8.9737245e-08
0.0007518202
1.8748491e-07
0.0015369332
3.5526308e-07
0.0029416449
5.9795669e-07
0.0052394081
8.4878839e-07
0.0085754644
9.1936851e-07
0.012687443
6.1601273e-07
0.016678163
-5.1730474e-14
0.019200941
-6.16016e-07
0.019200941
-9.193775e-07
0.016678163
-8.4879736e-07
0.012687443
-5.9795269e-07
0.0085754644
-3.5523607e-07
0.0052394081
-1.874397e-07
0.0029416449
-8.9692812e-08
0.0015369332
-3.8796858e-08
0.0007518202
-1.4679929e-08
0.00034286633
-4.4144911e-09
0.00014233564
-7.6081521e-10
4.9766121e-05
1.0134045e-05
6.9906901e-10
1.0133346e-05
4.0863209e-09
4.9762734e-05
1.3611896e-08
0.00014232612
3.5992491e-08
0.00034284395
8.3218762e-08
0.00075177298
1.7395708e-07
0.0015368424
3.2996246e-07
0.0029414889
5.5650532e-07
0.0052391815
7.931205e-07
0.0085752278
8.6477009e-07
0.012687372
5.8323405e-07
0.016678444
1.1339988e-13
0.019201524
-5.8323707e-07
0.019201524
-8.6477903e-07
0.016678444
-7.9312963e-07
0.012687372
-5.5650159e-07
0.0085752278
-3.2993576e-07
0.0052391815
-1.7391222e-07
0.0029414889
-8.3174679e-08
0.0015368425
-3.5966508e-08
0.00075177298
-1.3606927e-08
0.00034284395
-4.0918088e-09
0.00014232612
-7.0549243e-10
4.9762733e-05
1.0133346e-05
6.494487e-10
1.0132697e-05
3.7964177e-09
4.9759587e-05
1.2647355e-08
0.00014231727
3.3447175e-08
0.00034282315
7.7353723e-08
0.00075172907
1.6177205e-07
0.001536758
3.0712358e-07
0.0029413436
5.1891706e-07
0.0052389697
7.4217238e-07
0.0085750045
8.1401578e-07
0.0126873
5.5234512e-07
0.016678706
1.7614219e-13
0.019202077
-5.5234803e-07
0.019202077
-8.1402471e-07
0.016678706
-7.4218168e-07
0.0126873
-5.1891372e-07
0.0085750045
-3.0709755e-07
0.0052389697
-1.6172806e-07
0.0029413436
-7.7310467e-08
0.001536758
-3.3421664e-08
0.00075172907
-1.2642422e-08
0.00034282315
-3.8017316e-09
0.00014231727
-6.5570365e-10
4.9759586e-05
1.0132697e-05
6.0461734e-10
1.0132092e-05
3.5344516e-09
4.9756657e-05
1.1775589e-08
0.00014230903
3.1145963e-08
0.00034280378
7.2048364e-08
0.00075168817
1.5073909e-07
0.0015366793
2.8640404e-07
0.0029412079
4.8467877e-07
0.0052387715
6.9538003e-07
0.0085747938
7.6674563e-07
0.012687229
5.2320718e-07
0.01667895
1.1689664e-13
0.0192026
-5.2321019e-07
0.0192026
-7.6675464e-07
0.01667895
-6.9538953e-07
0.012687229
-4.8467594e-07
0.0085747938
-2.8637895e-07
0.0052387715
-1.5069635e-07
0.0029412079
-7.2006255e-08
0.0015366793
-3.1121077e-08
0.00075168817
-1.17707e-08
0.00034280377
-3.5395436e-09
0.00014230903
-6.1066039e-10
4.9756657e-05
1.0132092e-05
5.6391522e-10
1.0131528e-05
3.2965855e-09
4.9753924e-05
1.0983884e-08
0.00014230134
2.9055511e-08
0.0003427857
6.7226625e-08
0.00075164999
1.4070316e-07
0.0015366059
2.6752444e-07
0.0029410811
4.53369e-07
0.0052385856
6.5227458e-07
0.0085745949
7.2263776e-07
0.012687158
4.9567667e-07
0.016679177
-8.0684249e-14
0.019203096
-4.9568e-07
0.019203096
-7.2264698e-07
0.016679177
-6.5228435e-07
0.012687158
-4.5336678e-07
0.0085745949
-2.6750046e-07
0.0052385856
-1.4066187e-07
0.0029410811
-6.7185799e-08
0.0015366059
-2.9031293e-08
0.00075164999
-1.0979029e-08
0.0003427857
-3.3014362e-09
0.00014230134
-5.6973372e-10
4.9753924e-05
1.0131528e-05
5.2680231e-10
1.0131002e-05
3.0796776e-09
4.9751371e-05
1.0261826e-08
0.00014229416
2.7148473e-08
0.00034276882
6.2826045e-08
0.00075161431
1.3153659e-07
0.0015365371
2.5025347e-07
0.0029409623
4.2463423e-07
0.0052384112
6.1245189e-07
0.0085744071
6.8142437e-07
0.012687089
4.6965965e-07
0.016679388
-4.2369517e-13
0.019203565
-4.6966357e-07
0.019203565
-6.8143399e-07
0.016679388
-6.1246204e-07
0.012687089
-4.2463265e-07
0.0085744071
-2.502306e-07
0.0052384112
-1.3149672e-07
0.0029409624
-6.2786423e-08
0.0015365372
-2.7124845e-08
0.00075161432
-1.0256974e-08
0.00034276882
-3.0842969e-09
0.00014229416
-5.324164e-10
4.9751371e-05
1.0131002e-05
4.9283363e-10
1.0130509e-05
2.8811366e-09
4.9748983e-05
9.6008211e-09
0.00014228744
2.5402289e-08
0.00034275301
5.8795063e-08
0.00075158092
1.2313393e-07
0.0015364728
2.343997e-07
0.0029408511
3.9818151e-07
0.0052382474
5.755755e-07
0.0085742297
6.4285334e-07
0.012687022
4.450348e-07
0.016679586
-9.0598144e-13
0.01920401
-4.4503955e-07
0.01920401
-6.4286356e-07
0.016679586
-5.7558616e-07
0.012687022
-3.9818059e-07
0.0085742297
-2.3437782e-07
0.0052382474
-1.2309522e-07
0.0029408511
-5.8756345e-08
0.0015364728
-2.5379041e-08
0.00075158092
-9.5959207e-09
0.00034275301
-2.8855643e-09
0.00014228744
-4.9829657e-10
4.9748983e-05
1.0130509e-05
4.6163749e-10
1.0130048e-05
2.6987976e-09
4.9746746e-05
8.9936868e-09
0.00014228114
2.3798076e-08
0.00034273821
5.5090468e-08
0.00075154963
1.1540656e-07
0.0015364125
2.1980139e-07
0.0029407467
3.7375949e-07
0.0052380935
5.4134793e-07
0.0085740621
6.0672446e-07
0.012686957
4.2174261e-07
0.016679771
-1.511238e-12
0.019204432
-4.2174845e-07
0.019204432
-6.0673552e-07
0.016679771
-5.4135923e-07
0.012686957
-3.737592e-07
0.0085740621
-2.197802e-07
0.0052380935
-1.153685e-07
0.0029407467
-5.5052129e-08
0.0015364125
-2.3774873e-08
0.00075154963
-8.9886626e-09
0.00034273821
-2.7031019e-09
0.00014228114
-4.6703483e-10
4.9746746e-05
1.0130048e-05
4.3290169e-10
1.0129615e-05
2.5308392e-09
4.9744648e-05
8.4343791e-09
0.00014227524
2.2319956e-08
0.00034272432
5.1675943e-08
0.00075152027
1.0828002e-07
0.0015363559
2.0632276e-07
0.0029406486
3.5115814e-07
0.0052379487
5.0952107e-07
0.0085739038
5.7283e-07
0.012686893
3.9966855e-07
0.016679944
-2.2244648e-12
0.019204832
-3.996757e-07
0.019204832
-5.7284212e-07
0.016679944
-5.0953317e-07
0.012686893
-3.5115839e-07
0.0085739038
-2.0630185e-07
0.0052379487
-1.082419e-07
0.0029406486
-5.1637246e-08
0.0015363559
-2.2296339e-08
0.00075152027
-8.4291334e-09
0.00034272432
-2.5351152e-09
0.00014227524
-4.3834956e-10
4.9744648e-05
1.0129615e-05
4.0636141e-10
1.0129209e-05
2.375717e-09
4.9742679e-05
7.9177687e-09
0.00014226969
2.0954427e-08
0.00034271128
4.8520519e-08
0.0007514927
1.0169061e-07
0.0015363027
1.9384678e-07
0.0029405565
3.3019285e-07
0.0052378123
4.7986988e-07
0.0085737541
5.4102335e-07
0.012686832
3.7878485e-07
0.016680107
-3.0343527e-12
0.01920521
-3.7879353e-07
0.01920521
-5.4103678e-07
0.016680107
-4.7988295e-07
0.012686832
-3.3019354e-07
0.0085737541
-1.9382556e-07
0.0052378123
-1.0165149e-07
0.0029405565
-4.8480526e-08
0.0015363027
-2.0929818e-08
0.0007514927
-7.9121812e-09
0.00034271128
-2.3800833e-09
0.00014226969
-4.1200403e-10
4.9742679e-05
1.0129209e-05
3.8178968e-10
1.0128828e-05
2.2321027e-09
4.9740829e-05
7.4394447e-09
0.00014226449
1.9689906e-08
0.00034269903
4.5597716e-08
0.00075146679
9.5583981e-08
0.0015362527
1.8227399e-07
0.0029404698
3.1070843e-07
0.0052376839
4.522059e-07
0.0085736126
5.1112131e-07
0.012686773
3.5897031e-07
0.016680259
-3.9213392e-12
0.019205569
-3.5898069e-07
0.019205569
-5.1113631e-07
0.016680259
-4.5222015e-07
0.012686773
-3.1070942e-07
0.0085736126
-1.822518e-07
0.0052376839
-9.554275e-08
0.0029404698
-4.5555302e-08
0.0015362527
-1.966362e-08
0.00075146679
-7.4333744e-09
0.00034269903
-2.2367004e-09
0.00014226449
-3.8779744e-10
4.9740829e-05
1.0128828e-05
3.5899317e-10
1.0128469e-05
2.0988686e-09
4.9739089e-05
6.9956575e-09
0.00014225959
1.8516494e-08
0.00034268751
4.2884743e-08
0.00075144242
8.9913052e-08
0.0015362057
1.7151738e-07
0.0029403882
2.9256588e-07
0.0052375628
4.2635632e-07
0.0085734788
4.8302612e-07
0.012686717
3.4023286e-07
0.016680402
-4.862609e-12
0.01920591
-3.4024513e-07
0.01920591
-4.8304298e-07
0.016680402
-4.2637198e-07
0.012686717
-2.9256705e-07
0.0085734788
-1.7149344e-07
0.0052375628
-8.9868416e-08
0.0029403882
-4.2838617e-08
0.0015362057
-1.8487747e-08
0.00075144242
-6.9889433e-09
0.00034268751
-2.1038588e-09
0.00014225959
-3.6556068e-10
4.9739089e-05
1.0128469e-05
3.3780075e-10
1.0128131e-05
1.9750072e-09
4.9737452e-05
6.58306e-09
0.00014225498
1.7425424e-08
0.00034267667
4.0361629e-08
0.00075141949
8.4636916e-08
0.0015361614
1.6150183e-07
0.0029403113
2.7564681e-07
0.0052374487
4.0217202e-07
0.0085733523
4.5656053e-07
0.012686662
3.2242993e-07
0.016680536
-5.8442618e-12
0.019206232
-3.2244427e-07
0.019206232
-4.5657957e-07
0.016680536
-4.0218938e-07
0.012686662
-2.7564801e-07
0.0085733523
-1.6147529e-07
0.0052374487
-8.458743e-08
0.0029403113
-4.031034e-08
0.0015361614
-1.7393333e-08
0.00075141949
-6.5755198e-09
0.00034267667
-1.980569e-09
0.00014225498
-3.4514502e-10
4.9737452e-05
1.0128131e-05
3.1807058e-10
1.0127813e-05
1.8596943e-09
4.973591e-05
6.198907e-09
0.00014225064
1.6409397e-08
0.00034266646
3.8011406e-08
0.00075139788
7.9720207e-08
0.0015361197
1.5216166e-07
0.0029402389
2.598457e-07
0.005237341
3.7952235e-07
0.0085732326
4.3167987e-07
0.01268661
3.0561613e-07
0.016680662
-6.8514606e-12
0.019206538
-3.0563268e-07
0.019206538
-4.3170143e-07
0.016680662
-3.7954173e-07
0.01268661
-2.598468e-07
0.0085732326
-1.5213158e-07
0.005237341
-7.9664276e-08
0.0029402389
-3.7953352e-08
0.0015361197
-1.6372992e-08
0.00075139788
-6.1903418e-09
0.00034266646
-1.8660264e-09
0.00014225064
-3.2643143e-10
4.9735911e-05
1.0127814e-05
2.9966661e-10
1.0127514e-05
1.7521194e-09
4.9734458e-05
5.8405058e-09
0.00014224655
1.5461423e-08
0.00034265683
3.5818346e-08
0.00075137752
7.513098e-08
0.0015360804
1.4343796e-07
0.0029401706
2.450677e-07
0.0052372394
3.5827964e-07
0.0085731194
4.0819052e-07
0.01268656
2.8960811e-07
0.01668078
-7.8734688e-12
0.019206827
-2.8962703e-07
0.019206827
-4.0821496e-07
0.01668078
-3.5830138e-07
0.01268656
-2.4506855e-07
0.0085731194
-1.4340331e-07
0.0052372394
-7.5066853e-08
0.0029401706
-3.5751765e-08
0.0015360804
-1.5419631e-08
0.00075137753
-5.8306915e-09
0.00034265684
-1.7594351e-09
0.00014224655
-3.0930477e-10
4.9734459e-05
1.0127514e-05
2.8249008e-10
1.0127232e-05
1.6517203e-09
4.9733089e-05
5.5059769e-09
0.0001422427
1.4576383e-08
0.00034264776
3.3770181e-08
0.00075135833
7.084307e-08
0.0015360433
1.3528196e-07
0.0029401061
2.312359e-07
0.0052371434
3.3835583e-07
0.0085730123
3.8611706e-07
0.012686512
2.7452729e-07
0.016680892
-8.8778534e-12
0.019207102
-2.745487e-07
0.019207102
-3.8614472e-07
0.016680892
-3.3838029e-07
0.012686512
-2.3123633e-07
0.0085730123
-1.3524162e-07
0.0052371434
-7.0768844e-08
0.0029401061
-3.3693166e-08
0.0015360433
-1.4528052e-08
0.00075135833
-5.4946789e-09
0.00034264777
-1.6602572e-09
0.0001422427
-2.9369124e-10
4.973309e-05
1.0127232e-05
2.6642089e-10
1.0126965e-05
1.5577625e-09
4.9731797e-05
5.192885e-09
0.00014223906
1.3748107e-08
0.00034263921
3.18535e-08
0.00075134022
6.6829932e-08
0.0015360083
1.2764431e-07
0.0029400453
2.1826638e-07
0.0052370528
3.1962299e-07
0.0085729109
3.6521714e-07
0.012686467
2.6012136e-07
0.016680997
-9.8496177e-12
0.019207362
-2.6014531e-07
0.019207362
-3.6524836e-07
0.016680997
-3.1965052e-07
0.012686467
-2.1826617e-07
0.0085729109
-1.2759703e-07
0.0052370528
-6.6743526e-08
0.0029400453
-3.176398e-08
0.0015360084
-1.3691989e-08
0.00075134023
-5.1798524e-09
0.00034263921
-1.5677789e-09
0.00014223906
-2.7949425e-10
4.9731798e-05
1.0126966e-05
2.5141013e-10
1.0126714e-05
1.4700005e-09
4.9730579e-05
4.900391e-09
0.00014223563
1.2973979e-08
0.00034263113
3.0061035e-08
0.00075132313
6.3074547e-08
0.0015359753
1.2049329e-07
0.0029399879
2.061148e-07
0.0052369672
3.0205151e-07
0.008572815
3.4561959e-07
0.012686423
2.4661232e-07
0.016681096
-1.0715429e-11
0.019207609
-2.4663875e-07
0.019207609
-3.456546e-07
0.016681096
-3.0208238e-07
0.012686423
-2.0611366e-07
0.008572815
-1.2043768e-07
0.0052369672
-6.2973679e-08
0.0029399879
-2.9956742e-08
0.0015359753
-1.29087e-08
0.00075132314
-4.8853295e-09
0.00034263114
-1.4817587e-09
0.00014223563
-2.6668075e-10
4.973058e-05
1.0126715e-05
2.3732515e-10
1.0126477e-05
1.3875858e-09
4.9729429e-05
4.6256978e-09
0.00014223239
1.2247239e-08
0.00034262351
2.837916e-08
0.000751307
5.955165e-08
0.0015359442
1.1378133e-07
0.0029399337
1.9469087e-07
0.0052368863
2.8547849e-07
0.0085727242
3.2698183e-07
0.012686382
2.3363643e-07
0.016681189
-1.1428406e-11
0.019207842
-2.3366521e-07
0.019207842
-3.2702081e-07
0.016681189
-2.8551293e-07
0.012686382
-1.9468841e-07
0.0085727242
-1.137159e-07
0.0052368862
-5.9433932e-08
0.0029399337
-2.825776e-08
0.0015359442
-1.2171429e-08
0.00075130701
-4.6083687e-09
0.00034262351
-1.4014073e-09
0.0001422324
-2.5515428e-10
4.972943e-05
1.0126477e-05
2.2420819e-10
1.0126253e-05
1.3108666e-09
4.9728342e-05
4.3698983e-09
0.00014222933
1.156973e-08
0.00034261631
2.6808878e-08
0.00075129176
5.6258125e-08
0.0015359147
1.0750233e-07
0.0029398824
1.8400369e-07
0.0052368098
2.6997798e-07
0.0085726382
3.0960503e-07
0.012686342
2.2157216e-07
0.016681277
-1.1855358e-11
0.019208064
-2.216029e-07
0.019208064
-3.0964797e-07
0.016681277
-2.7001609e-07
0.012686342
-1.8399945e-07
0.0085726382
-1.074255e-07
0.0052368097
-5.6121089e-08
0.0029398824
-2.6668006e-08
0.0015359147
-1.1482041e-08
0.00075129177
-4.3501066e-09
0.00034261631
-1.3271076e-09
0.00014222934
-2.4497413e-10
4.9728344e-05
1.0126253e-05
2.1184151e-10
1.0126041e-05
1.2383972e-09
4.9727315e-05
4.1282782e-09
0.00014222644
1.0930666e-08
0.00034260951
2.5330507e-08
0.00075127736
5.316136e-08
0.0015358869
1.0159552e-07
0.002939834
1.739233e-07
0.0052367374
2.5528783e-07
0.0085725568
2.9296307e-07
0.012686304
2.0988162e-07
0.01668136
-1.1942775e-11
0.019208274
-2.0991384e-07
0.019208274
-2.9300987e-07
0.01668136
-2.5532958e-07
0.012686304
-1.7391669e-07
0.0085725568
-1.0150565e-07
0.0052367374
-5.3002573e-08
0.002939834
-2.5167906e-08
0.0015358869
-1.0829865e-08
0.00075127737
-4.1058908e-09
0.00034260951
-1.2574257e-09
0.00014222645
-2.3591348e-10
4.9727317e-05
1.0126042e-05
2.0050841e-10
1.0125841e-05
1.1720841e-09
4.9726344e-05
3.9069484e-09
0.00014222371
1.0343258e-08
0.00034260307
2.3965428e-08
0.00075126373
5.0290585e-08
0.0015358605
9.6111146e-08
0.0029397882
1.6457294e-07
0.005236669
2.4169241e-07
0.0085724797
2.7765878e-07
0.012686268
1.9919423e-07
0.016681439
-1.1503058e-11
0.019208473
-1.9922711e-07
0.019208473
-2.7770909e-07
0.016681439
-2.417377e-07
0.012686268
-1.6456335e-07
0.0085724797
-9.6006572e-08
0.005236669
-5.0107591e-08
0.0029397882
-2.3778796e-08
0.0015358606
-1.0228017e-08
0.00075126374
-3.8816857e-09
0.00034260307
-1.1941306e-09
0.00014222371
-2.2816948e-10
4.9726346e-05
1.0125842e-05
1.8960861e-10
1.0125652e-05
1.1080083e-09
4.9725426e-05
3.6933253e-09
0.00014222112
9.7794298e-09
0.00034259698
2.2664942e-08
0.00075125085
4.7572445e-08
0.0015358356
9.092583e-08
0.0029397448
1.5569953e-07
0.0052366042
2.28704e-07
0.0085724067
2.6285924e-07
0.012686234
1.8871634e-07
0.016681513
-1.0442429e-11
0.019208662
-1.8874884e-07
0.019208662
-2.6291256e-07
0.016681513
-2.2875263e-07
0.012686234
-1.5568646e-07
0.0085724067
-9.080536e-08
0.0052366042
-4.7363714e-08
0.0029397448
-2.2453198e-08
0.0015358357
-9.6495479e-09
0.00075125086
-3.6656366e-09
0.00034259699
-1.1336195e-09
0.00014222113
-2.2119948e-10
4.9725427e-05
1.0125652e-05
1.8027953e-10
1.0125472e-05
1.0534254e-09
4.9724553e-05
3.51047e-09
0.00014221867
9.2903125e-09
0.0003425912
2.1516957e-08
0.00075123862
4.5136238e-08
0.001535812
8.6245577e-08
0.0029397037
1.4770107e-07
0.0052365427
2.1705485e-07
0.0085723374
2.49716e-07
0.012686202
1.7949848e-07
0.016681583
-8.6584383e-12
0.019208841
-1.7952933e-07
0.019208841
-2.497716e-07
0.016681583
-2.1710669e-07
0.012686202
-1.4768447e-07
0.0085723374
-8.6108887e-08
0.0052365427
-4.4901719e-08
0.0029397037
-2.1281029e-08
0.001535812
-9.1474936e-09
0.00075123863
-3.4819455e-09
0.0003425912
-1.0835331e-09
0.00014221867
-2.1612426e-10
4.9724554e-05
1.0125472e-05
1.6923044e-10
1.0125303e-05
9.8859377e-10
4.9723733e-05
3.2971359e-09
0.00014221636
8.7407465e-09
0.00034258576
2.0289643e-08
0.00075122707
4.2655671e-08
0.0015357896
8.1633879e-08
0.0029396647
1.3992018e-07
0.0052364844
2.0572232e-07
0.0085722716
2.3677304e-07
0.012686171
1.7032434e-07
0.01668165
-6.1497825e-12
0.019209011
-1.7035203e-07
0.019209011
-2.368295e-07
0.01668165
-2.0577687e-07
0.012686171
-1.3990061e-07
0.0085722716
-8.1482335e-08
0.0052364844
-4.2397801e-08
0.0029396647
-2.0032994e-08
0.0015357897
-8.5881615e-09
0.00075122708
-3.2693002e-09
0.00034258576
-1.0233233e-09
0.00014221636
-2.0893135e-10
4.9723734e-05
1.0125303e-05
1.6449373e-10
1.0125139e-05
9.6078932e-10
4.9722937e-05