/*--------------------------------*- C++ -*----------------------------------*\
| =========                 |                                                 |
| \\      /  F ield         | OpenFOAM: The Open Source CFD Toolbox           |
|  \\    /   O peration     | Version:  2406                                  |
|   \\  /    A nd           | Website:  www.openfoam.com                      |
|    \\/     M anipulation  |                                                 |
\*---------------------------------------------------------------------------*/
FoamFile
{
    version     2.0;
    format      ascii;
    arch        "LSB;label=32;scalar=64";
    class       volVectorField;
    location    "21";
    object      U;
}
// * * * * * * * * * * * * * * * * * * * * * * * * * * * * * * * * * * * * * //

dimensions      [0 1 -1 0 0 0 0];

internalField   nonuniform List<vector> 
1176
(
(0.019493789 7.0786455e-07 0)
(0.066677318 8.1696559e-06 0)
(0.13357994 3.9503171e-05 0)
(0.22724701 0.00010873578 0)
(0.35591522 0.0002117603 0)
(0.52772023 0.00030396293 0)
(0.74780387 0.0003181803 0)
(1.0136216 0.00024904601 0)
(1.3093323 0.0001666701 0)
(1.6017081 0.00011264698 0)
(1.8421723 7.021436e-05 0)
(1.9793239 2.3941231e-05 0)
(1.9793239 -2.3939847e-05 0)
(1.8421723 -7.0212263e-05 0)
(1.6017081 -0.00011264283 0)
(1.3093323 -0.00016666264 0)
(1.0136215 -0.00024903423 0)
(0.74780384 -0.00031816294 0)
(0.5277202 -0.00030394054 0)
(0.3559152 -0.00021173769 0)
(0.22724699 -0.00010871605 0)
(0.13357994 -3.9496109e-05 0)
(0.066677316 -8.1564668e-06 0)
(0.019493789 -7.090564e-07 0)
(0.020187017 -3.7419174e-06 0)
(0.068813532 -2.463864e-05 0)
(0.13732107 -9.6548548e-05 0)
(0.23247391 -0.00024839459 0)
(0.36204617 -0.00047268779 0)
(0.53373556 -0.0006742118 0)
(0.75267407 -0.00069486937 0)
(1.0170176 -0.00049687358 0)
(1.3116385 -0.00023345903 0)
(1.6034438 -4.9824153e-05 0)
(1.8436588 1.9765161e-05 0)
(1.9807026 1.3428347e-05 0)
(1.9807026 -1.3427187e-05 0)
(1.8436588 -1.9765043e-05 0)
(1.6034438 4.9821373e-05 0)
(1.3116385 0.00023345035 0)
(1.0170177 0.00049685686 0)
(0.75267408 0.00069484637 0)
(0.53373556 0.00067418785 0)
(0.36204617 0.00047266933 0)
(0.23247391 0.0002483836 0)
(0.13732107 9.6544674e-05 0)
(0.068813537 2.4635943e-05 0)
(0.020187019 3.7420776e-06 0)
(0.020018442 2.0918373e-06 0)
(0.068327405 1.2720772e-05 0)
(0.13655404 4.6877259e-05 0)
(0.23159544 0.00011389739 0)
(0.36138708 0.00019769268 0)
(0.53366969 0.00023903236 0)
(0.75344344 0.00020559814 0)
(1.0184881 0.00011361113 0)
(1.3134639 7.4313564e-05 0)
(1.6053464 7.9532941e-05 0)
(1.8455118 7.0516878e-05 0)
(1.9825245 2.7826668e-05 0)
(1.9825245 -2.7823456e-05 0)
(1.8455118 -7.0513115e-05 0)
(1.6053464 -7.9528695e-05 0)
(1.3134639 -7.4308877e-05 0)
(1.0184881 -0.00011360607 0)
(0.75344344 -0.00020559187 0)
(0.53366969 -0.0002390295 0)
(0.36138709 -0.00019769166 0)
(0.23159545 -0.00011389755 0)
(0.13655405 -4.6877473e-05 0)
(0.068327406 -1.2721507e-05 0)
(0.020018442 -2.0917778e-06 0)
(0.019966547 7.0076484e-07 0)
(0.068159231 4.6870456e-06 0)
(0.13624021 1.9355439e-05 0)
(0.2311194 5.6456162e-05 0)
(0.36078093 0.00013444564 0)
(0.53306293 0.00025829314 0)
(0.75295637 0.00035344733 0)
(1.0181104 0.00036911986 0)
(1.313184 0.00030758849 0)
(1.6051633 0.0002277721 0)
(1.8453995 0.00014555908 0)
(1.9824491 4.9996888e-05 0)
(1.9824491 -4.9997678e-05 0)
(1.8453995 -0.00014556025 0)
(1.6051633 -0.00022777403 0)
(1.313184 -0.00030758951 0)
(1.0181104 -0.0003691197 0)
(0.75295636 -0.00035344712 0)
(0.53306293 -0.00025829099 0)
(0.36078093 -0.0001344436 0)
(0.2311194 -5.6454701e-05 0)
(0.13624021 -1.9354744e-05 0)
(0.068159233 -4.6865936e-06 0)
(0.019966548 -7.0077632e-07 0)
(0.019942203 2.9076806e-07 0)
(0.068078703 1.987209e-06 0)
(0.13608628 8.236118e-06 0)
(0.23087699 2.3699328e-05 0)
(0.36044744 5.6881623e-05 0)
(0.53266448 0.00012306883 0)
(0.75256878 0.0002268181 0)
(1.017808 0.00032272205 0)
(1.3129044 0.00034572441 0)
(1.604912 0.00030729954 0)
(1.8452029 0.00021095288 0)
(1.9822898 7.4614353e-05 0)
(1.9822898 -7.4614662e-05 0)
(1.8452029 -0.00021095321 0)
(1.604912 -0.00030729993 0)
(1.3129044 -0.00034572509 0)
(1.017808 -0.0003227223 0)
(0.75256878 -0.00022681927 0)
(0.53266448 -0.00012307002 0)
(0.36044744 -5.688266e-05 0)
(0.23087699 -2.3700131e-05 0)
(0.13608628 -8.2362349e-06 0)
(0.068078703 -1.9878581e-06 0)
(0.019942204 -2.9068283e-07 0)
(0.019933132 1.71814e-07 0)
(0.068047755 1.1940856e-06 0)
(0.13602488 5.0652023e-06 0)
(0.23077535 1.4968874e-05 0)
(0.36029898 3.6219564e-05 0)
(0.5324792 7.6944264e-05 0)
(0.75239427 0.00014713771 0)
(1.0177222 0.00023749023 0)
(1.3129292 0.00028525584 0)
(1.6049746 0.00027441474 0)
(1.8452865 0.00019644602 0)
(1.9823834 7.1176799e-05 0)
(1.9823834 -7.1177259e-05 0)
(1.8452865 -0.00019644652 0)
(1.6049746 -0.00027441509 0)
(1.3129292 -0.00028525601 0)
(1.0177222 -0.00023748989 0)
(0.75239427 -0.00014713717 0)
(0.5324792 -7.6943544e-05 0)
(0.36029899 -3.6219002e-05 0)
(0.23077535 -1.4968739e-05 0)
(0.13602489 -5.0650033e-06 0)
(0.068047755 -1.1945189e-06 0)
(0.019933132 -1.7173987e-07 0)
(0.0199234 1.5587448e-07 0)
(0.068015507 1.0700851e-06 0)
(0.13596286 4.4934654e-06 0)
(0.23067607 1.3195471e-05 0)
(0.36015773 3.185714e-05 0)
(0.53230178 6.6958253e-05 0)
(0.75221429 0.00012411889 0)
(1.0176105 0.00019917051 0)
(1.3129358 0.00025490841 0)
(1.6050904 0.00024595164 0)
(1.8454579 0.00018127888 0)
(1.9825798 6.6548391e-05 0)
(1.9825798 -6.6548797e-05 0)
(1.8454579 -0.00018127932 0)
(1.6050904 -0.00024595196 0)
(1.3129358 -0.00025490848 0)
(1.0176105 -0.00019917029 0)
(0.75221429 -0.00012411829 0)
(0.53230178 -6.6957391e-05 0)
(0.36015773 -3.1856402e-05 0)
(0.23067607 -1.3195156e-05 0)
(0.13596286 -4.4931772e-06 0)
(0.068015506 -1.0703953e-06 0)
(0.0199234 -1.5580979e-07 0)
(0.019915697 1.2758467e-07 0)
(0.067989792 8.7802927e-07 0)
(0.13591293 3.6960007e-06 0)
(0.23059503 1.0901609e-05 0)
(0.36003987 2.6613348e-05 0)
(0.53214753 5.7237112e-05 0)
(0.75204133 0.00010911047 0)
(1.0174723 0.00017936626 0)
(1.3128926 0.00023802477 0)
(1.6051414 0.00023746753 0)
(1.8455877 0.00017750676 0)
(1.9827514 6.5539323e-05 0)
(1.9827514 -6.5539672e-05 0)
(1.8455877 -0.00017750715 0)
(1.6051414 -0.0002374678 0)
(1.3128926 -0.00023802489 0)
(1.0174723 -0.00017936616 0)
(0.75204133 -0.00010910997 0)
(0.53214753 -5.7236352e-05 0)
(0.36003987 -2.6612683e-05 0)
(0.23059503 -1.0901351e-05 0)
(0.13591293 -3.6956894e-06 0)
(0.067989792 -8.7842399e-07 0)
(0.019915697 -1.2750508e-07 0)
(0.019909217 1.0465613e-07 0)
(0.067968141 7.2315344e-07 0)
(0.13587084 3.0521047e-06 0)
(0.23052654 9.0118379e-06 0)
(0.35993984 2.1999872e-05 0)
(0.53201542 4.7473409e-05 0)
(0.75188901 9.2014012e-05 0)
(1.0173341 0.00015618183 0)
(1.3128278 0.00021699672 0)
(1.6051595 0.00022709625 0)
(1.8456699 0.00017232629 0)
(1.982868 6.4147618e-05 0)
(1.982868 -6.4147969e-05 0)
(1.8456699 -0.00017232671 0)
(1.6051595 -0.00022709662 0)
(1.3128278 -0.00021699693 0)
(1.0173341 -0.00015618169 0)
(0.75188901 -9.2013314e-05 0)
(0.53201542 -4.7472421e-05 0)
(0.35993984 -2.199903e-05 0)
(0.23052654 -9.0115177e-06 0)
(0.13587084 -3.0517118e-06 0)
(0.067968141 -7.2366107e-07 0)
(0.019909217 -1.045542e-07 0)
(0.019903971 8.6124718e-08 0)
(0.067950552 5.9697991e-07 0)
(0.13583649 2.5273778e-06 0)
(0.2304703 7.4916192e-06 0)
(0.35985692 1.8376285e-05 0)
(0.53190436 3.9835647e-05 0)
(0.75175836 7.7712084e-05 0)
(1.0172122 0.00013432426 0)
(1.3127613 0.00019323362 0)
(1.6051772 0.00021058342 0)
(1.8457533 0.00016272966 0)
(1.9829863 6.108411e-05 0)
(1.9829863 -6.108458e-05 0)
(1.8457533 -0.00016273019 0)
(1.6051772 -0.00021058392 0)
(1.3127613 -0.0001932339 0)
(1.0172122 -0.00013432401 0)
(0.75175836 -7.7711138e-05 0)
(0.53190436 -3.9834385e-05 0)
(0.35985692 -1.8375236e-05 0)
(0.2304703 -7.4912374e-06 0)
(0.13583649 -2.5268912e-06 0)
(0.067950553 -5.9764109e-07 0)
(0.019903971 -8.5993944e-08 0)
(0.019899543 7.3355106e-08 0)
(0.067935688 5.089742e-07 0)
(0.13580742 2.1568851e-06 0)
(0.23042259 6.4027605e-06 0)
(0.35978626 1.5747565e-05 0)
(0.5318089 3.4277761e-05 0)
(0.75164409 6.7204499e-05 0)
(1.0171021 0.00011722981 0)
(1.3126976 0.00017262452 0)
(1.6051928 0.00019308894 0)
(1.8458371 0.00015219855 0)
(1.9831061 5.7544595e-05 0)
(1.9831061 -5.7545157e-05 0)
(1.8458371 -0.00015219916 0)
(1.6051928 -0.00019308951 0)
(1.3126976 -0.00017262479 0)
(1.017102 -0.00011722939 0)
(0.75164409 -6.720326e-05 0)
(0.5318089 -3.4276178e-05 0)
(0.35978626 -1.5746278e-05 0)
(0.23042259 -6.4023191e-06 0)
(0.13580742 -2.1563016e-06 0)
(0.067935688 -5.0981921e-07 0)
(0.019899543 -7.3191314e-08 0)
(0.019895721 6.3726222e-08 0)
(0.06792285 4.4252656e-07 0)
(0.13578228 1.8767324e-06 0)
(0.23038125 5.5765164e-06 0)
(0.35972483 1.3738646e-05 0)
(0.53172535 2.9997927e-05 0)
(0.75154264 5.9111429e-05 0)
(1.0170011 0.00010388802 0)
(1.3126344 0.00015540265 0)
(1.6052015 0.00017849514 0)
(1.8459125 0.00014271541 0)
(1.9832185 5.4330391e-05 0)
(1.9832185 -5.4330985e-05 0)
(1.8459125 -0.00014271605 0)
(1.6052015 -0.00017849575 0)
(1.3126344 -0.00015540289 0)
(1.0170011 -0.00010388742 0)
(0.75154264 -5.9109865e-05 0)
(0.53172535 -2.9995976e-05 0)
(0.35972483 -1.3737087e-05 0)
(0.23038125 -5.5759995e-06 0)
(0.13578228 -1.8760463e-06 0)
(0.06792285 -4.4355775e-07 0)
(0.019895722 -6.3528874e-08 0)
(0.019892371 5.6089729e-08 0)
(0.067911586 3.8977837e-07 0)
(0.13576021 1.654119e-06 0)
(0.2303449 4.918751e-06 0)
(0.35967069 1.2131973e-05 0)
(0.53165136 2.6542355e-05 0)
(0.7514519 5.2498635e-05 0)
(1.0169086 9.2875511e-05 0)
(1.3125728 0.00014061472 0)
(1.605205 0.00016529605 0)
(1.8459798 0.00013398916 0)
(1.9833221 5.138724e-05 0)
(1.9833221 -5.1387814e-05 0)
(1.8459798 -0.00013398981 0)
(1.605205 -0.00016529668 0)
(1.3125728 -0.00014061494 0)
(1.0169086 -9.2874746e-05 0)
(0.7514519 -5.2496749e-05 0)
(0.53165136 -2.6540032e-05 0)
(0.35967069 -1.2130137e-05 0)
(0.2303449 -4.918153e-06 0)
(0.13576021 -1.6533308e-06 0)
(0.067911586 -3.9098848e-07 0)
(0.019892371 -5.5859942e-08 0)
(0.019889403 4.9848822e-08 0)
(0.067901606 3.4661695e-07 0)
(0.13574064 1.4717595e-06 0)
(0.23031264 4.3793774e-06 0)
(0.35962253 1.0812275e-05 0)
(0.53158531 2.369133e-05 0)
(0.75137029 4.6984004e-05 0)
(1.016824 8.3546128e-05 0)
(1.3125139 0.0001277373 0)
(1.6052051 0.00015293336 0)
(1.8460415 0.00012582029 0)
(1.9834196 4.8616329e-05 0)
(1.9834196 -4.8616849e-05 0)
(1.8460415 -0.00012582093 0)
(1.6052051 -0.00015293403 0)
(1.3125139 -0.00012773752 0)
(1.016824 -8.3545214e-05 0)
(0.75137029 -4.6981811e-05 0)
(0.53158531 -2.3688647e-05 0)
(0.35962253 -1.0810171e-05 0)
(0.23031264 -4.3786997e-06 0)
(0.13574064 -1.4708746e-06 0)
(0.067901607 -3.4799462e-07 0)
(0.019889403 -4.9588627e-08 0)
(0.019886752 4.4698496e-08 0)
(0.067892685 3.1094559e-07 0)
(0.13572313 1.320815e-06 0)
(0.23028375 3.9321977e-06 0)
(0.35957935 9.715852e-06 0)
(0.53152592 2.1315526e-05 0)
(0.75129648 4.2360147e-05 0)
(1.0167465 7.5619753e-05 0)
(1.3124581 0.00011654223 0)
(1.6052027 0.00014169866 0)
(1.8460982 0.00011827098 0)
(1.9835117 4.6031439e-05 0)
(1.9835117 -4.6031896e-05 0)
(1.8460982 -0.0001182716 0)
(1.6052027 -0.00014169936 0)
(1.3124581 -0.00011654244 0)
(1.0167465 -7.5618706e-05 0)
(0.75129648 -4.2357667e-05 0)
(0.53152592 -2.1312507e-05 0)
(0.35957935 -9.7134973e-06 0)
(0.23028375 -3.9314455e-06 0)
(0.13572313 -1.3198425e-06 0)
(0.067892685 -3.124755e-07 0)
(0.019886752 -4.4410769e-08 0)
(0.019884362 4.0385498e-08 0)
(0.067884643 2.8104543e-07 0)
(0.13570735 1.1941539e-06 0)
(0.23025769 3.556482e-06 0)
(0.35954035 8.7928704e-06 0)
(0.53147216 1.9309977e-05 0)
(0.75122934 3.8440074e-05 0)
(1.0166753 6.8838844e-05 0)
(1.3124053 0.00010678347 0)
(1.6051982 0.00013155229 0)
(1.8461504 0.00011132804 0)
(1.9835985 4.3631067e-05 0)
(1.9835985 -4.3631463e-05 0)
(1.8461504 -0.00011132864 0)
(1.6051982 -0.00013155301 0)
(1.3124053 -0.00010678368 0)
(1.0166753 -6.8837676e-05 0)
(0.75122934 -3.8437334e-05 0)
(0.53147216 -1.9306654e-05 0)
(0.35954035 -8.7902931e-06 0)
(0.23025769 -3.5556642e-06 0)
(0.13570735 -1.1931066e-06 0)
(0.067884644 -2.8270858e-07 0)
(0.019884362 -4.0073898e-08 0)
(0.019882195 3.6709775e-08 0)
(0.067877348 2.5554958e-07 0)
(0.13569303 1.0860768e-06 0)
(0.23023403 3.2356265e-06 0)
(0.3595049 8.0035583e-06 0)
(0.5314232 1.7590875e-05 0)
(0.75116796 3.5067143e-05 0)
(1.0166096 6.2964064e-05 0)
(1.3123553 9.8203183e-05 0)
(1.6051923 0.00012233367 0)
(1.8461982 0.00010491323 0)
(1.9836803 4.1390416e-05 0)
(1.9836803 -4.1390756e-05 0)
(1.8461982 -0.00010491381 0)
(1.6051923 -0.0001223344 0)
(1.3123553 -9.820339e-05 0)
(1.0166096 -6.2962794e-05 0)
(0.75116796 -3.5064181e-05 0)
(0.5314232 -1.7587294e-05 0)
(0.3595049 -8.0007928e-06 0)
(0.23023403 -3.2347545e-06 0)
(0.13569303 -1.08497e-06 0)
(0.067877349 -2.573227e-07 0)
(0.019882195 -3.6378747e-08 0)
(0.019880219 3.3536258e-08 0)
(0.067870695 2.3352704e-07 0)
(0.13567996 9.9267059e-07 0)
(0.23021243 2.9581505e-06 0)
(0.35947252 7.3202655e-06 0)
(0.53137842 1.6100072e-05 0)
(0.75111164 3.2132913e-05 0)
(1.0165488 5.7823313e-05 0)
(1.3123082 9.0602463e-05 0)
(1.6051852 0.0001139535 0)
(1.8462423 9.8956088e-05 0)
(1.9837576 3.9288943e-05 0)
(1.9837576 -3.9289229e-05 0)
(1.8462423 -9.8956644e-05 0)
(1.6051852 -0.00011395425 0)
(1.3123082 -9.0602672e-05 0)
(1.0165488 -5.7821963e-05 0)
(0.75111164 -3.2129774e-05 0)
(0.53137842 -1.6096284e-05 0)
(0.35947252 -7.3173517e-06 0)
(0.23021243 -2.9572364e-06 0)
(0.13567996 -9.915213e-07 0)
(0.067870695 -2.3538253e-07 0)
(0.019880219 -3.3190943e-08 0)
(0.019878409 3.0770857e-08 0)
(0.0678646 2.1432864e-07 0)
(0.13566798 9.1119879e-07 0)
(0.23019263 2.7159861e-06 0)
(0.35944282 6.7233923e-06 0)
(0.53133728 1.4795935e-05 0)
(0.75105976 2.9559578e-05 0)
(1.0164925 5.3292448e-05 0)
(1.3122638 8.3831575e-05 0)
(1.6051772 0.00010632416 0)
(1.846283 9.340339e-05 0)
(1.9838307 3.7312442e-05 0)
(1.9838307 -3.7312677e-05 0)
(1.846283 -9.3403923e-05 0)
(1.6051772 -0.00010632492 0)
(1.3122638 -8.383179e-05 0)
(1.0164925 -5.3291044e-05 0)
(0.75105976 -2.9556313e-05 0)
(0.53133728 -1.4791999e-05 0)
(0.35944282 -6.7203737e-06 0)
(0.23019263 -2.715042e-06 0)
(0.13566798 -9.1002432e-07 0)
(0.0678646 -2.1623581e-07 0)
(0.019878409 -3.0416835e-08 0)
(0.019876745 2.8339769e-08 0)
(0.067858993 1.9744636e-07 0)
(0.13565697 8.395226e-07 0)
(0.23017441 2.5028331e-06 0)
(0.35941547 6.1976157e-06 0)
(0.53129936 1.3645712e-05 0)
(0.75101183 2.7285188e-05 0)
(1.0164401 4.9271626e-05 0)
(1.3122219 7.7767707e-05 0)
(1.6051688 9.9356256e-05 0)
(1.8463207 8.8213742e-05 0)
(1.9838998 3.5449539e-05 0)
(1.9838998 -3.5449727e-05 0)
(1.8463207 -8.821425e-05 0)
(1.6051688 -9.9357027e-05 0)
(1.3122219 -7.7767932e-05 0)
(1.0164401 -4.9270198e-05 0)
(0.75101183 -2.7281852e-05 0)
(0.53129936 -1.3641689e-05 0)
(0.35941547 -6.1945371e-06 0)
(0.23017441 -2.5018709e-06 0)
(0.13565697 -8.3833966e-07 0)
(0.067858993 -1.9937374e-07 0)
(0.019876745 -2.7982655e-08 0)
(0.019875208 2.6184965e-08 0)
(0.067853817 1.8247995e-07 0)
(0.1356468 7.7595542e-07 0)
(0.23015758 2.3137199e-06 0)
(0.3593902 5.7308361e-06 0)
(0.53126429 1.2623471e-05 0)
(0.75096742 2.5260213e-05 0)
(1.0163914 4.5679435e-05 0)
(1.3121824 7.2308067e-05 0)
(1.6051599 9.297353e-05 0)
(1.8463555 8.3350532e-05 0)
(1.9839652 3.3689577e-05 0)
(1.9839652 -3.3689728e-05 0)
(1.8463555 -8.3351018e-05 0)
(1.6051599 -9.2974302e-05 0)
(1.3121824 -7.2308305e-05 0)
(1.0163914 -4.567801e-05 0)
(0.75096742 -2.5256859e-05 0)
(0.5312643 -1.2619421e-05 0)
(0.3593902 -5.7277407e-06 0)
(0.23015758 -2.3127507e-06 0)
(0.13564679 -7.7477896e-07 0)
(0.067853817 -1.8439797e-07 0)
(0.019875208 -2.5829954e-08 0)
(0.019873786 2.4261277e-08 0)
(0.067849027 1.6911681e-07 0)
(0.13563738 7.1917853e-07 0)
(0.230142 2.1447513e-06 0)
(0.35936679 5.3135502e-06 0)
(0.53123178 1.1708788e-05 0)
(0.75092616 2.3445428e-05 0)
(1.016346 4.2450422e-05 0)
(1.3121452 6.7367621e-05 0)
(1.6051509 8.7107702e-05 0)
(1.8463878 7.878542e-05 0)
(1.9840271 3.2023976e-05 0)
(1.9840271 -3.2024101e-05 0)
(1.8463878 -7.8785888e-05 0)
(1.6051509 -8.7108475e-05 0)
(1.3121451 -6.7367878e-05 0)
(1.016346 -4.2449027e-05 0)
(0.75092616 -2.3442106e-05 0)
(0.53123178 -1.1704765e-05 0)
(0.35936679 -5.3104768e-06 0)
(0.230142 -2.1437849e-06 0)
(0.13563738 -7.1802065e-07 0)
(0.067849027 -1.710004e-07 0)
(0.019873786 -2.3912703e-08 0)
(0.019872467 2.2533179e-08 0)
(0.067844581 1.5711043e-07 0)
(0.13562864 6.6815159e-07 0)
(0.23012754 1.9928499e-06 0)
(0.35934504 4.9382358e-06 0)
(0.53120156 1.0885455e-05 0)
(0.75088776 2.1809613e-05 0)
(1.0163035 3.9532069e-05 0)
(1.31211 6.2876502e-05 0)
(1.6051418 8.1702268e-05 0)
(1.8464178 7.449217e-05 0)
(1.9840857 3.044459e-05 0)
(1.9840857 -3.0444705e-05 0)
(1.8464178 -7.449263e-05 0)
(1.6051418 -8.1703044e-05 0)
(1.31211 -6.2876785e-05 0)
(1.0163035 -3.9530728e-05 0)
(0.75088776 -2.1806363e-05 0)
(0.53120156 -1.0881506e-05 0)
(0.35934505 -4.9352157e-06 0)
(0.23012753 -1.9918941e-06 0)
(0.13562864 -6.6702051e-07 0)
(0.067844581 -1.5894119e-07 0)
(0.019872467 -2.2194137e-08 0)
(0.01987124 2.0972254e-08 0)
(0.067840446 1.4626329e-07 0)
(0.13562051 6.2204102e-07 0)
(0.23011408 1.8555478e-06 0)
(0.35932481 4.5988494e-06 0)
(0.53117342 1.0140413e-05 0)
(0.75085194 2.0327514e-05 0)
(1.0162638 3.6881684e-05 0)
(1.3120768 5.8776998e-05 0)
(1.6051327 7.6706954e-05 0)
(1.8464458 7.0451667e-05 0)
(1.9841412 2.8945373e-05 0)
(1.9841412 -2.8945502e-05 0)
(1.8464458 -7.0452134e-05 0)
(1.6051327 -7.6707741e-05 0)
(1.3120768 -5.8777316e-05 0)
(1.0162638 -3.6880414e-05 0)
(0.75085195 -2.0324368e-05 0)
(0.53117342 -1.0136569e-05 0)
(0.35932481 -4.5959036e-06 0)
(0.23011407 -1.8546076e-06 0)
(0.13562051 -6.2094024e-07 0)
(0.067840445 -1.480311e-07 0)
(0.01987124 -2.0644317e-08 0)
(0.019870096 1.9555532e-08 0)
(0.067836592 1.3641559e-07 0)
(0.13561293 5.8017213e-07 0)
(0.23010153 1.7308462e-06 0)
(0.35930594 4.2904934e-06 0)
(0.53114716 9.463064e-06 0)
(0.75081849 1.8978575e-05 0)
(1.0162266 3.4464279e-05 0)
(1.3120455 5.502098e-05 0)
(1.6051237 7.2080973e-05 0)
(1.8464718 6.6643138e-05 0)
(1.9841938 2.7519893e-05 0)
(1.9841938 -2.7520058e-05 0)
(1.8464718 -6.6643631e-05 0)
(1.6051237 -7.2081783e-05 0)
(1.3120455 -5.5021341e-05 0)
(1.0162266 -3.446309e-05 0)
(0.75081849 -1.8975549e-05 0)
(0.53114716 -9.4593411e-06 0)
(0.35930594 -4.2876297e-06 0)
(0.23010153 -1.7299229e-06 0)
(0.13561293 -5.7909982e-07 0)
(0.067836592 -1.3811956e-07 0)
(0.019870096 -1.923857e-08 0)
(0.019869029 1.8264215e-08 0)
(0.067832994 1.2743655e-07 0)
(0.13560586 5.419924e-07 0)
(0.23008981 1.6171073e-06 0)
(0.35928831 4.0091486e-06 0)
(0.53112262 8.8446939e-06 0)
(0.75078719 1.7745849e-05 0)
(1.0161917 3.2250912e-05 0)
(1.3120159 5.1568251e-05 0)
(1.6051149 6.7786487e-05 0)
(1.846496 6.3053363e-05 0)
(1.9842436 2.6164117e-05 0)
(1.9842436 -2.6164346e-05 0)
(1.846496 -6.3053904e-05 0)
(1.6051149 -6.7787336e-05 0)
(1.3120159 -5.1568662e-05 0)
(1.0161917 -3.2249809e-05 0)
(0.75078719 -1.7742941e-05 0)
(0.53112262 -8.8410874e-06 0)
(0.35928831 -4.0063606e-06 0)
(0.23008981 -1.6161979e-06 0)
(0.13560586 -5.4094108e-07 0)
(0.067832994 -1.2908551e-07 0)
(0.019869029 -1.7956306e-08 0)
(0.019868031 1.7082801e-08 0)
(0.067829631 1.1921839e-07 0)
(0.13559924 5.0704607e-07 0)
(0.23007886 1.5129796e-06 0)
(0.35927183 3.751499e-06 0)
(0.53109965 8.2781105e-06 0)
(0.75075787 1.6615327e-05 0)
(1.0161589 3.0217499e-05 0)
(1.311988 4.8384782e-05 0)
(1.6051063 6.3793885e-05 0)
(1.8465186 5.9664149e-05 0)
(1.9842909 2.4872689e-05 0)
(1.9842909 -2.4873007e-05 0)
(1.8465186 -5.9664762e-05 0)
(1.6051063 -6.379479e-05 0)
(1.311988 -4.8385252e-05 0)
(1.0161589 -3.0216476e-05 0)
(0.75075787 -1.6612519e-05 0)
(0.53109965 -8.2745959e-06 0)
(0.35927183 -3.7487647e-06 0)
(0.23007886 -1.5120766e-06 0)
(0.13559924 -5.0600253e-07 0)
(0.06782963 -1.2083088e-07 0)
(0.019868031 -1.6780232e-08 0)
(0.019867096 1.599833e-08 0)
(0.067826482 1.1167115e-07 0)
(0.13559305 4.7495236e-07 0)
(0.2300686 1.4173331e-06 0)
(0.35925639 3.5147667e-06 0)
(0.53107814 7.7572745e-06 0)
(0.75073038 1.5575218e-05 0)
(1.0161281 2.8343785e-05 0)
(1.3119617 4.5441922e-05 0)
(1.6050979 6.0073656e-05 0)
(1.8465398 5.6467052e-05 0)
(1.9843356 2.3643293e-05 0)
(1.9843356 -2.3643722e-05 0)
(1.8465398 -5.646776e-05 0)
(1.6050979 -6.0074635e-05 0)
(1.3119617 -4.5442456e-05 0)
(1.0161281 -2.8342825e-05 0)
(0.75073038 -1.5572473e-05 0)
(0.53107814 -7.7538063e-06 0)
(0.35925639 -3.512049e-06 0)
(0.2300686 -1.4164244e-06 0)
(0.13559305 -4.7389781e-07 0)
(0.067826482 -1.1327508e-07 0)
(0.019867096 -1.5695653e-08 0)
(0.019866221 1.4999891e-08 0)
(0.06782353 1.047192e-07 0)
(0.13558724 4.4539065e-07 0)
(0.23005898 1.3292172e-06 0)
(0.35924191 3.2966177e-06 0)
(0.53105795 7.2771176e-06 0)
(0.75070457 1.4615617e-05 0)
(1.0160992 2.6612582e-05 0)
(1.3119367 4.2714831e-05 0)
(1.6050897 5.6604131e-05 0)
(1.8465596 5.3444499e-05 0)
(1.984378 2.2470952e-05 0)
(1.984378 -2.2471513e-05 0)
(1.8465596 -5.3445324e-05 0)
(1.6050897 -5.6605203e-05 0)
(1.3119367 -4.2715433e-05 0)
(1.0160992 -2.6611662e-05 0)
(0.75070457 -1.461288e-05 0)
(0.53105795 -7.2736305e-06 0)
(0.35924191 -3.2938645e-06 0)
(0.23005898 -1.328286e-06 0)
(0.13558724 -4.44301e-07 0)
(0.06782353 -1.0635131e-07 0)
(0.019866221 -1.4690025e-08 0)
(0.019865399 1.407821e-08 0)
(0.067820761 9.8298496e-08 0)
(0.1355818 4.180892e-07 0)
(0.23004995 1.2478245e-06 0)
(0.35922832 3.0950629e-06 0)
(0.531039 6.8333027e-06 0)
(0.75068032 1.3728028e-05 0)
(1.0160719 2.5009256e-05 0)
(1.3119132 4.0182616e-05 0)
(1.6050818 5.3361379e-05 0)
(1.8465781 5.0592676e-05 0)
(1.9844182 2.1354913e-05 0)
(1.9844182 -2.1355625e-05 0)
(1.8465781 -5.0593641e-05 0)
(1.6050818 -5.3362563e-05 0)
(1.3119132 -4.0183289e-05 0)
(1.0160719 -2.5008344e-05 0)
(0.75068032 -1.372523e-05 0)
(0.531039 -6.8297128e-06 0)
(0.35922832 -3.0922082e-06 0)
(0.23004995 -1.2468496e-06 0)
(0.1355818 -4.1693532e-07 0)
(0.067820761 -1.0000365e-07 0)
(0.0198654 -1.3752559e-08 0)
(0.019864628 1.3225316e-08 0)
(0.06781816 9.2354006e-08 0)
(0.13557668 3.9281391e-07 0)
(0.23004148 1.1724612e-06 0)
(0.35921555 2.9084008e-06 0)
(0.53102119 6.4221369e-06 0)
(0.75065751 1.2905214e-05 0)
(1.0160463 2.3521104e-05 0)
(1.3118909 3.7826458e-05 0)
(1.6050743 5.0329576e-05 0)
(1.8465955 4.7892847e-05 0)
(1.9844563 2.028987e-05 0)
(1.9844563 -2.0290747e-05 0)
(1.8465955 -4.7893972e-05 0)
(1.6050743 -5.0330895e-05 0)
(1.3118909 -3.7827206e-05 0)
(1.0160463 -2.3520162e-05 0)
(0.75065752 -1.2902272e-05 0)
(0.5310212 -6.4183434e-06 0)
(0.35921555 -2.9053656e-06 0)
(0.23004148 -1.1714173e-06 0)
(0.13557668 -3.9156202e-07 0)
(0.067818161 -9.4184574e-08 0)
(0.019864628 -1.2873875e-08 0)
(0.019863903 1.24344e-08 0)
(0.067815716 8.6839124e-08 0)
(0.13557187 3.6936638e-07 0)
(0.23003351 1.1025368e-06 0)
(0.35920355 2.73517e-06 0)
(0.53100444 6.0404177e-06 0)
(0.75063606 1.2140885e-05 0)
(1.0160221 2.2137318e-05 0)
(1.3118699 3.5630973e-05 0)
(1.6050669 4.7488682e-05 0)
(1.8466118 4.5346529e-05 0)
(1.9844924 1.9276778e-05 0)
(1.9844924 -1.9277833e-05 0)
(1.8466118 -4.5347833e-05 0)
(1.6050669 -4.749016e-05 0)
(1.3118699 -3.5631803e-05 0)
(1.0160221 -2.2136305e-05 0)
(0.75063606 -1.2137702e-05 0)
(0.53100445 -6.0363044e-06 0)
(0.35920355 -2.7318635e-06 0)
(0.23003351 -1.1013946e-06 0)
(0.13557187 -3.679783e-07 0)
(0.067815716 -8.8854462e-08 0)
(0.019863903 -1.2045842e-08 0)
(0.019863221 1.1699417e-08 0)
(0.067813416 8.1712178e-08 0)
(0.13556735 3.4756859e-07 0)
(0.23002601 1.0375248e-06 0)
(0.35919225 2.5740858e-06 0)
(0.53098868 5.6853685e-06 0)
(0.75061585 1.1429583e-05 0)
(1.0159993 2.0848149e-05 0)
(1.31185 3.3581206e-05 0)
(1.6050599 4.4827171e-05 0)
(1.8466271 4.2931814e-05 0)
(1.9845266 1.8309211e-05 0)
(1.9845266 -1.8310454e-05 0)
(1.8466271 -4.293332e-05 0)
(1.6050599 -4.4828836e-05 0)
(1.31185 -3.3582125e-05 0)
(1.0159993 -2.0847019e-05 0)
(0.75061585 -1.1426052e-05 0)
(0.53098868 -5.6808049e-06 0)
(0.35919225 -2.5704059e-06 0)
(0.23002601 -1.0362517e-06 0)
(0.13556735 -3.4600181e-07 0)
(0.067813417 -8.3978169e-08 0)
(0.019863221 -1.1261142e-08 0)
(0.019862579 1.101534e-08 0)
(0.067811252 7.6939275e-08 0)
(0.13556309 3.2727588e-07 0)
(0.23001895 9.7699232e-07 0)
(0.35918162 2.4240643e-06 0)
(0.53097384 5.3545881e-06 0)
(0.75059681 1.0766579e-05 0)
(1.0159778 1.9645585e-05 0)
(1.3118312 3.1666082e-05 0)
(1.6050532 4.2328065e-05 0)
(1.8466415 4.0657129e-05 0)
(1.984559 1.7390351e-05 0)
(1.984559 -1.739179e-05 0)
(1.8466415 -4.0658855e-05 0)
(1.6050532 -4.2329946e-05 0)
(1.3118312 -3.16671e-05 0)
(1.0159778 -1.9644287e-05 0)
(0.75059681 -1.0762582e-05 0)
(0.53097384 -5.3494302e-06 0)
(0.35918162 -2.4198984e-06 0)
(0.23001895 -9.755519e-07 0)
(0.13556309 -3.254838e-07 0)
(0.067811252 -7.952842e-08 0)
(0.019862579 -1.0513473e-08 0)
(0.019861974 1.0377338e-08 0)
(0.067809212 7.2486873e-08 0)
(0.13555907 3.0834426e-07 0)
(0.2300123 9.2051684e-07 0)
(0.3591716 2.2840895e-06 0)
(0.53095984 5.0459095e-06 0)
(0.75057886 1.0147605e-05 0)
(1.0159575 1.8521753e-05 0)
(1.3118134 2.9872792e-05 0)
(1.6050467 3.9982599e-05 0)
(1.8466551 3.8494759e-05 0)
(1.9845898 1.6511639e-05 0)
(1.9845898 -1.6513281e-05 0)
(1.8466551 -3.8496729e-05 0)
(1.6050467 -3.9984727e-05 0)
(1.3118134 -2.9873919e-05 0)
(1.0159575 -1.8520236e-05 0)
(0.75057886 -1.0143014e-05 0)
(0.53095985 -5.0399988e-06 0)
(0.3591716 -2.2793133e-06 0)
(0.2300123 -9.188688e-07 0)
(0.13555907 -3.0627566e-07 0)
(0.067809213 -7.5477871e-08 0)
(0.019861974 -9.7967183e-09 0)
(0.019861404 9.7818955e-09 0)
(0.067807291 6.8332081e-08 0)
(0.13555529 2.9067606e-07 0)
(0.23000603 8.6779988e-07 0)
(0.35916216 2.1533872e-06 0)
(0.53094666 4.7575621e-06 0)
(0.75056193 9.5691527e-06 0)
(1.0159384 1.7470969e-05 0)
(1.3117965 2.8194288e-05 0)
(1.6050405 3.7777093e-05 0)
(1.8466677 3.6462748e-05 0)
(1.9846188 1.5679499e-05 0)
(1.9846188 -1.5681346e-05 0)
(1.8466677 -3.6464978e-05 0)
(1.6050405 -3.7779501e-05 0)
(1.3117965 -2.8195535e-05 0)
(1.0159384 -1.7469173e-05 0)
(0.75056193 -9.5638269e-06 0)
(0.53094666 -4.7507269e-06 0)
(0.35916216 -2.1478667e-06 0)
(0.23000603 -8.6590135e-07 0)
(0.13555529 -2.8827586e-07 0)
(0.067807292 -7.1810818e-08 0)
(0.019861405 -9.1059826e-09 0)
(0.019860867 9.2247345e-09 0)
(0.067805479 6.4444327e-08 0)
(0.13555173 2.7413926e-07 0)
(0.23000012 8.1846198e-07 0)
(0.35915325 2.031079e-06 0)
(0.53093421 4.4877424e-06 0)
(0.75054596 9.0276796e-06 0)
(1.0159203 1.6486295e-05 0)
(1.3117806 2.6618105e-05 0)
(1.6050346 3.5703314e-05 0)
(1.8466798 3.4523835e-05 0)
(1.9846465 1.4881782e-05 0)
(1.9846465 -1.4883832e-05 0)
(1.8466798 -3.4526342e-05 0)
(1.6050346 -3.5706031e-05 0)
(1.3117806 -2.6619478e-05 0)
(1.0159203 -1.6484152e-05 0)
(0.75054596 -9.0214642e-06 0)
(0.53093422 -4.4797953e-06 0)
(0.35915325 -2.0246689e-06 0)
(0.23000012 -8.1626674e-07 0)
(0.13555173 -2.7134844e-07 0)
(0.06780548 -6.8503266e-08 0)
(0.019860867 -8.4356827e-09 0)
(0.01986036 8.7041074e-09 0)
(0.06780377 6.081418e-08 0)
(0.13554836 2.5869416e-07 0)
(0.22999454 7.7236466e-07 0)
(0.35914485 1.9167323e-06 0)
(0.53092248 4.2353175e-06 0)
(0.75053088 8.520883e-06 0)
(1.0159032 1.5564547e-05 0)
(1.3117655 2.5142155e-05 0)
(1.605029 3.3752915e-05 0)
(1.846691 3.2710057e-05 0)
(1.9846726 1.4129907e-05 0)
(1.9846726 -1.4132144e-05 0)
(1.846691 -3.2712843e-05 0)
(1.605029 -3.3755962e-05 0)
(1.3117655 -2.5143654e-05 0)
(1.0159032 -1.556198e-05 0)
(0.75053089 -8.5136069e-06 0)
(0.53092248 -4.2260526e-06 0)
(0.35914485 -1.9092724e-06 0)
(0.22999455 -7.6981997e-07 0)
(0.13554837 -2.5544824e-07 0)
(0.067803771 -6.5550726e-08 0)
(0.019860361 -7.7828452e-09 0)
(0.019859881 8.2152681e-09 0)
(0.067802156 5.7405822e-08 0)
(0.13554519 2.4418524e-07 0)
(0.22998928 7.2907733e-07 0)
(0.35913691 1.809424e-06 0)
(0.53091139 3.9985492e-06 0)
(0.75051663 8.0454134e-06 0)
(1.0158871 1.4698526e-05 0)
(1.3117512 2.3751702e-05 0)
(1.6050236 3.191418e-05 0)
(1.8467017 3.0969149e-05 0)
(1.9846975 1.3405922e-05 0)
(1.9846975 -1.3408325e-05 0)
(1.8467017 -3.0972212e-05 0)
(1.6050236 -3.1917574e-05 0)
(1.3117512 -2.3753321e-05 0)
(1.0158871 -1.4695448e-05 0)
(0.75051664 -8.0368966e-06 0)
(0.53091139 -3.9877543e-06 0)
(0.35913691 -1.8007534e-06 0)
(0.22998928 -7.2613553e-07 0)
(0.13554519 -2.4042039e-07 0)
(0.067802157 -6.292655e-08 0)
(0.019859882 -7.1413983e-09 0)
(0.01985943 7.759733e-09 0)
(0.067800634 5.4235432e-08 0)
(0.13554219 2.3068271e-07 0)
(0.22998431 6.8875616e-07 0)
(0.35912942 1.709311e-06 0)
(0.53090093 3.7773099e-06 0)
(0.7505032 7.6007721e-06 0)
(1.0158719 1.3888928e-05 0)
(1.3117377 2.245281e-05 0)
(1.6050185 3.0189561e-05 0)
(1.8467116 2.935413e-05 0)
(1.9847208 1.2729172e-05 0)
(1.9847208 -1.2731693e-05 0)
(1.8467116 -2.9357445e-05 0)
(1.6050185 -3.0193301e-05 0)
(1.3117377 -2.2454532e-05 0)
(1.0158718 -1.3885245e-05 0)
(0.7505032 -7.5908268e-06 0)
(0.53090093 -3.7647684e-06 0)
(0.35912943 -1.6992693e-06 0)
(0.22998431 -6.8537326e-07 0)
(0.13554219 -2.2633866e-07 0)
(0.067800636 -6.064918e-08 0)
(0.019859431 -6.5128526e-09 0)
(0.019859002 7.3296227e-09 0)
(0.067799192 5.124085e-08 0)
(0.13553936 2.1791716e-07 0)
(0.22997961 6.5068423e-07 0)
(0.35912233 1.6149859e-06 0)
(0.53089102 3.5692621e-06 0)
(0.75049046 7.1827365e-06 0)
(1.0158574 1.312602e-05 0)
(1.3117249 2.1223698e-05 0)
(1.6050136 2.8556332e-05 0)
(1.8467212 2.7789923e-05 0)
(1.9847433 1.2072601e-05 0)
(1.9847433 -1.2075184e-05 0)
(1.8467212 -2.7793455e-05 0)
(1.6050136 -2.8560406e-05 0)
(1.3117249 -2.1225493e-05 0)
(1.0158574 -1.3121627e-05 0)
(0.75049046 -7.1711735e-06 0)
(0.53089102 -3.5547643e-06 0)
(0.35912234 -1.6034233e-06 0)
(0.22997961 -6.4682302e-07 0)
(0.13553936 -2.1294268e-07 0)
(0.067799194 -5.8650112e-08 0)
(0.019859003 -5.89104e-09 0)
(0.0198586 6.9352121e-09 0)
(0.067797835 4.8506181e-08 0)
(0.13553669 2.0624718e-07 0)
(0.22997518 6.1578097e-07 0)
(0.35911566 1.5280985e-06 0)
(0.5308817 3.3767152e-06 0)
(0.75047848 6.7949016e-06 0)
(1.0158438 1.2418744e-05 0)
(1.3117128 2.0086748e-05 0)
(1.6050089 2.7039987e-05 0)
(1.84673 2.6361956e-05 0)
(1.9847642 1.1468443e-05 0)
(1.9847642 -1.1471e-05 0)
(1.84673 -2.6365643e-05 0)
(1.6050089 -2.7044369e-05 0)
(1.3117128 -2.008858e-05 0)
(1.0158438 -1.2413534e-05 0)
(0.75047849 -6.7815266e-06 0)