/*--------------------------------*- C++ -*----------------------------------*\
| =========                 |                                                 |
| \\      /  F ield         | OpenFOAM: The Open Source CFD Toolbox           |
|  \\    /   O peration     | Version:  2406                                  |
|   \\  /    A nd           | Website:  www.openfoam.com                      |
|    \\/     M anipulation  |                                                 |
\*---------------------------------------------------------------------------*/
FoamFile
{
    version     2.0;
    format      ascii;
    arch        "LSB;label=32;scalar=64";
    class       volScalarField;
    location    "28";
    object      p;
}
// * * * * * * * * * * * * * * * * * * * * * * * * * * * * * * * * * * * * * //

dimensions      [0 2 -2 0 0 0 0];

internalField   nonuniform List<scalar> 
1176
(
0.79699976
0.79702263
0.79704629
0.79705396
0.79702243
0.79692773
0.7967705
0.79658434
0.79640514
0.79623798
0.79608336
0.79598775
0.79598775
0.79608336
0.79623799
0.79640514
0.79658433
0.79677048
0.79692769
0.79702235
0.79705386
0.79704617
0.7970225
0.79699962
0.77385133
0.77380437
0.77375661
0.77373971
0.77380221
0.77400457
0.77436989
0.77483429
0.77526515
0.77555126
0.77567065
0.77570491
0.77570491
0.77567066
0.77555127
0.77526517
0.77483431
0.77436992
0.77400461
0.77380226
0.77373977
0.77375668
0.77380444
0.7738514
0.75676657
0.75678858
0.75680838
0.75680647
0.7567474
0.75658623
0.75631446
0.75598651
0.7556803
0.75546751
0.75535671
0.75530789
0.75530789
0.75535671
0.75546751
0.7556803
0.75598651
0.75631445
0.75658621
0.75674739
0.75680645
0.75680836
0.75678857
0.75676655
0.74009468
0.7401038
0.74011586
0.74013226
0.74015481
0.74017238
0.74014014
0.74000673
0.73977462
0.73950205
0.73927785
0.73915735
0.73915735
0.73927786
0.73950206
0.73977463
0.74000674
0.74014016
0.74017239
0.74015483
0.74013228
0.74011588
0.74010382
0.74009469
0.72367563
0.72367958
0.72368458
0.72369064
0.72370034
0.72372061
0.7237568
0.72379831
0.72381998
0.72379611
0.72373399
0.72368136
0.72368136
0.72373399
0.72379611
0.72381998
0.72379831
0.7237568
0.72372062
0.72370035
0.72369065
0.72368459
0.7236796
0.72367564
0.70721397
0.70721639
0.70721963
0.70722368
0.70722859
0.70723542
0.70724959
0.7072809
0.70733089
0.70738814
0.70743085
0.7074475
0.7074475
0.70743085
0.70738814
0.70733089
0.7072809
0.70724959
0.70723542
0.70722859
0.70722368
0.70721964
0.7072164
0.70721398
0.69080817
0.6908103
0.69081311
0.69081654
0.69082044
0.69082395
0.69082602
0.69082819
0.69083674
0.69085397
0.69087187
0.69088359
0.69088359
0.69087187
0.69085397
0.69083674
0.69082819
0.69082602
0.69082395
0.69082044
0.69081655
0.69081312
0.69081031
0.69080817
0.6744283
0.67443006
0.67443239
0.67443531
0.67443898
0.67444335
0.6744478
0.67445096
0.67445219
0.67445381
0.67445086
0.67444835
0.67444835
0.67445086
0.67445381
0.67445219
0.67445096
0.6744478
0.67444335
0.67443898
0.67443531
0.67443239
0.67443006
0.67442831
0.65807402
0.65807547
0.6580774
0.65807981
0.65808283
0.65808662
0.65809166
0.65809871
0.65810739
0.65811742
0.65812519
0.65812877
0.65812877
0.65812519
0.65811742
0.65810739
0.6580987
0.65809166
0.65808662
0.65808283
0.65807982
0.6580774
0.65807548
0.65807402
0.64173633
0.64173753
0.64173914
0.64174117
0.64174374
0.64174692
0.64175108
0.64175747
0.64176763
0.64178076
0.64179509
0.64180439
0.64180439
0.64179509
0.64178076
0.64176762
0.64175747
0.64175108
0.64174692
0.64174374
0.64174118
0.64173914
0.64173753
0.64173633
0.62541195
0.62541298
0.62541435
0.6254161
0.62541831
0.62542103
0.62542443
0.62542928
0.62543714
0.6254478
0.62546036
0.6254695
0.62546949
0.62546036
0.6254478
0.62543713
0.62542927
0.62542443
0.62542103
0.62541831
0.6254161
0.62541435
0.62541298
0.62541195
0.60909847
0.60909937
0.60910056
0.60910209
0.60910403
0.60910643
0.60910939
0.6091134
0.60911962
0.60912828
0.60913884
0.60914629
0.60914629
0.60913884
0.60912828
0.60911962
0.6091134
0.60910939
0.60910643
0.60910403
0.60910209
0.60910057
0.60909937
0.60909848
0.59279428
0.59279507
0.59279612
0.59279747
0.59279919
0.59280132
0.59280396
0.59280749
0.5928129
0.59282064
0.59283033
0.59283701
0.59283701
0.59283033
0.59282064
0.59281289
0.59280749
0.59280396
0.59280132
0.59279919
0.59279748
0.59279613
0.59279507
0.59279429
0.57649806
0.57649876
0.5764997
0.5765009
0.57650244
0.57650435
0.57650669
0.57650983
0.5765146
0.57652157
0.57653024
0.57653633
0.57653633
0.57653024
0.57652157
0.5765146
0.57650983
0.57650669
0.57650435
0.57650244
0.57650091
0.57649971
0.57649877
0.57649807
0.56020879
0.56020942
0.56021026
0.56021134
0.56021273
0.56021444
0.56021655
0.56021931
0.56022347
0.5602296
0.56023712
0.56024253
0.56024253
0.56023712
0.5602296
0.56022347
0.56021931
0.56021655
0.56021445
0.56021273
0.56021135
0.56021027
0.56020943
0.5602088
0.54392567
0.54392624
0.543927
0.54392798
0.54392923
0.54393079
0.54393268
0.54393514
0.54393877
0.54394415
0.54395069
0.54395548
0.54395548
0.54395069
0.54394415
0.54393877
0.54393514
0.54393268
0.54393079
0.54392924
0.54392799
0.54392701
0.54392625
0.54392568
0.52764804
0.52764856
0.52764925
0.52765015
0.52765129
0.52765271
0.52765443
0.52765663
0.52765985
0.52766461
0.52767034
0.52767463
0.52767463
0.52767034
0.52766461
0.52765985
0.52765663
0.52765443
0.52765271
0.5276513
0.52765016
0.52764927
0.52764857
0.52764806
0.51137536
0.51137584
0.51137647
0.51137729
0.51137833
0.51137963
0.5113812
0.51138319
0.51138607
0.51139032
0.51139537
0.51139923
0.51139923
0.51139537
0.51139031
0.51138606
0.51138319
0.5113812
0.51137964
0.51137834
0.5113773
0.51137649
0.51137585
0.51137538
0.49510717
0.4951076
0.49510819
0.49510894
0.4951099
0.49511109
0.49511253
0.49511434
0.49511691
0.49512072
0.49512522
0.4951287
0.4951287
0.49512521
0.49512072
0.49511691
0.49511433
0.49511253
0.4951111
0.49510991
0.49510895
0.4951082
0.49510762
0.49510719
0.47884306
0.47884346
0.478844
0.47884469
0.47884557
0.47884667
0.478848
0.47884965
0.47885197
0.47885539
0.47885943
0.47886259
0.47886258
0.47885942
0.47885539
0.47885196
0.47884964
0.478848
0.47884668
0.47884559
0.4788447
0.47884401
0.47884348
0.47884308
0.46258269
0.46258306
0.46258355
0.46258419
0.46258501
0.46258603
0.46258725
0.46258876
0.46259087
0.46259397
0.46259761
0.46260048
0.46260048
0.46259761
0.46259396
0.46259086
0.46258876
0.46258726
0.46258604
0.46258503
0.46258421
0.46258357
0.46258308
0.46258271
0.44632575
0.4463261
0.44632656
0.44632715
0.44632791
0.44632886
0.44632999
0.44633138
0.44633329
0.44633611
0.44633942
0.44634204
0.44634204
0.44633942
0.4463361
0.44633328
0.44633137
0.44632999
0.44632886
0.44632792
0.44632717
0.44632658
0.44632612
0.44632577
0.43007199
0.43007231
0.43007273
0.43007329
0.43007399
0.43007487
0.43007592
0.43007721
0.43007896
0.43008153
0.43008456
0.43008695
0.43008695
0.43008456
0.43008152
0.43007895
0.4300772
0.43007592
0.43007488
0.43007401
0.4300733
0.43007276
0.43007233
0.43007201
0.41382115
0.41382145
0.41382185
0.41382236
0.41382302
0.41382384
0.41382482
0.41382601
0.41382761
0.41382997
0.41383275
0.41383494
0.41383494
0.41383275
0.41382996
0.4138276
0.413826
0.41382482
0.41382385
0.41382304
0.41382238
0.41382187
0.41382147
0.41382118
0.39757304
0.39757331
0.39757369
0.39757416
0.39757478
0.39757554
0.39757646
0.39757756
0.39757904
0.3975812
0.39758377
0.39758578
0.39758578
0.39758377
0.3975812
0.39757903
0.39757755
0.39757646
0.39757555
0.3975748
0.39757418
0.39757371
0.39757334
0.39757306
0.38132744
0.3813277
0.38132805
0.3813285
0.38132907
0.38132979
0.38133064
0.38133166
0.38133303
0.38133502
0.3813374
0.38133925
0.38133925
0.3813374
0.38133502
0.38133302
0.38133166
0.38133064
0.3813298
0.38132909
0.38132852
0.38132807
0.38132773
0.38132747
0.3650842
0.36508444
0.36508477
0.36508519
0.36508573
0.36508639
0.36508719
0.36508815
0.36508941
0.36509126
0.36509346
0.36509517
0.36509517
0.36509346
0.36509125
0.36508941
0.36508814
0.36508719
0.3650864
0.36508574
0.36508521
0.36508479
0.36508447
0.36508423
0.34884315
0.34884338
0.34884368
0.34884407
0.34884458
0.34884521
0.34884595
0.34884684
0.34884802
0.34884973
0.34885178
0.34885336
0.34885336
0.34885178
0.34884972
0.34884801
0.34884684
0.34884595
0.34884521
0.34884459
0.34884409
0.3488437
0.3488434
0.34884317
0.33260415
0.33260436
0.33260464
0.33260501
0.33260549
0.33260607
0.33260677
0.33260761
0.3326087
0.33261029
0.3326122
0.33261367
0.33261367
0.3326122
0.33261028
0.3326087
0.3326076
0.33260678
0.33260608
0.3326055
0.33260503
0.33260466
0.33260438
0.33260417
0.31636705
0.31636725
0.31636752
0.31636787
0.31636831
0.31636887
0.31636952
0.3163703
0.31637132
0.3163728
0.31637458
0.31637595
0.31637595
0.31637458
0.31637279
0.31637132
0.3163703
0.31636953
0.31636887
0.31636833
0.31636789
0.31636754
0.31636727
0.31636708
0.30013176
0.30013194
0.3001322
0.30013252
0.30013294
0.30013346
0.30013408
0.30013481
0.30013576
0.30013713
0.30013881
0.30014008
0.30014008
0.3001388
0.30013713
0.30013576
0.30013481
0.30013408
0.30013347
0.30013295
0.30013254
0.30013221
0.30013196
0.30013178
0.28389814
0.28389832
0.28389855
0.28389886
0.28389925
0.28389974
0.28390032
0.28390101
0.2839019
0.28390318
0.28390474
0.28390593
0.28390593
0.28390474
0.28390318
0.2839019
0.28390101
0.28390032
0.28389975
0.28389926
0.28389887
0.28389857
0.28389833
0.28389815
0.2676661
0.26766627
0.26766649
0.26766678
0.26766715
0.26766761
0.26766815
0.2676688
0.26766963
0.26767083
0.2676723
0.2676734
0.2676734
0.2676723
0.26767083
0.26766963
0.2676688
0.26766816
0.26766761
0.26766716
0.26766679
0.2676665
0.26766628
0.26766611
0.25143554
0.2514357
0.25143591
0.25143618
0.25143653
0.25143696
0.25143747
0.25143808
0.25143886
0.25143998
0.25144136
0.25144239
0.25144239
0.25144136
0.25143998
0.25143886
0.25143808
0.25143748
0.25143697
0.25143653
0.25143618
0.25143591
0.2514357
0.25143554
0.23520638
0.23520652
0.23520672
0.23520698
0.2352073
0.23520771
0.2352082
0.23520877
0.2352095
0.23521055
0.23521184
0.23521281
0.23521281
0.23521185
0.23521055
0.23520951
0.23520877
0.2352082
0.23520772
0.23520731
0.23520697
0.23520672
0.23520652
0.23520637
0.21897852
0.21897866
0.21897885
0.21897909
0.2189794
0.21897978
0.21898024
0.21898077
0.21898146
0.21898244
0.21898366
0.21898456
0.21898457
0.21898366
0.21898245
0.21898147
0.21898078
0.21898024
0.21897978
0.21897939
0.21897908
0.21897883
0.21897864
0.2189785
0.2027519
0.20275203
0.2027522
0.20275243
0.20275272
0.20275309
0.20275352
0.20275402
0.20275467
0.20275559
0.20275674
0.20275759
0.20275759
0.20275674
0.2027556
0.20275468
0.20275403
0.20275352
0.20275308
0.20275271
0.20275241
0.20275218
0.202752
0.20275187
0.18652644
0.18652656
0.18652673
0.18652694
0.18652722
0.18652756
0.18652796
0.18652844
0.18652905
0.18652991
0.18653098
0.18653178
0.18653178
0.18653099
0.18652992
0.18652906
0.18652845
0.18652797
0.18652755
0.1865272
0.18652691
0.18652669
0.18652652
0.1865264
0.17030207
0.17030218
0.17030234
0.17030254
0.1703028
0.17030313
0.17030351
0.17030396
0.17030453
0.17030534
0.17030636
0.17030711
0.17030711
0.17030637
0.17030536
0.17030455
0.17030397
0.17030351
0.17030311
0.17030277
0.1703025
0.17030229
0.17030213
0.17030201
0.15407874
0.15407885
0.154079
0.15407919
0.15407943
0.15407974
0.1540801
0.15408052
0.15408106
0.15408182
0.15408276
0.15408346
0.15408346
0.15408277
0.15408184
0.15408108
0.15408054
0.1540801
0.15407972
0.15407939
0.15407913
0.15407893
0.15407878
0.15407866
0.13785637
0.13785648
0.13785662
0.1378568
0.13785703
0.13785732
0.13785766
0.13785806
0.13785856
0.13785928
0.13786017
0.13786083
0.13786084
0.13786019
0.1378593
0.13785859
0.13785808
0.13785766
0.13785729
0.13785698
0.13785673
0.13785654
0.13785639
0.13785628
0.12163494
0.12163504
0.12163517
0.12163534
0.12163556
0.12163584
0.12163616
0.12163654
0.12163701
0.12163766
0.12163848
0.12163908
0.12163908
0.1216385
0.12163769
0.12163704
0.12163656
0.12163616
0.1216358
0.1216355
0.12163526
0.12163507
0.12163493
0.12163482
0.10541436
0.10541445
0.10541458
0.10541474
0.10541495
0.10541521
0.10541551
0.10541586
0.1054163
0.10541692
0.10541768
0.10541824
0.10541825
0.1054177
0.10541695
0.10541634
0.10541589
0.10541551
0.10541516
0.10541487
0.10541463
0.10541446
0.10541432
0.10541422
0.089194645
0.089194734
0.089194853
0.089195006
0.089195203
0.089195447
0.089195734
0.089196064
0.089196466
0.089197006
0.089197659
0.089198127
0.089198134
0.089197682
0.089197045
0.089196511
0.089196092
0.089195725
0.089195392
0.089195106
0.089194878
0.089194709
0.089194575
0.089194478
0.07297564
0.072975722
0.072975834
0.072975979
0.072976168
0.072976402
0.072976677
0.072976992
0.072977368
0.072977862
0.072978444
0.072978842
0.07297885
0.072978469
0.072977906
0.072977417
0.072977023
0.072976666
0.072976338
0.072976057
0.072975835
0.072975673
0.072975545
0.072975453
0.056757519
0.056757599
0.056757708
0.056757846
0.056758022
0.056758238
0.05675849
0.056758774
0.056759094
0.056759468
0.056759843
0.056760057
0.056760064
0.056759869
0.056759514
0.056759147
0.056758807
0.056758477
0.056758168
0.056757902
0.056757691
0.056757536
0.056757412
0.056757322
0.040539731
0.040539802
0.0405399
0.04054003
0.040540206
0.04054043
0.040540696
0.040540987
0.040541312
0.040541717
0.040542181
0.040542487
0.040542494
0.040542206
0.040541762
0.040541365
0.040541019
0.04054068
0.040540358
0.040540084
0.040539874
0.040539728
0.040539617
0.040539538
0.024323462
0.024323544
0.024323652
0.02432378
0.024323927
0.024324089
0.024324262
0.024324445
0.02432461
0.024324685
0.024324593
0.02432436
0.024324366
0.024324615
0.024324725
0.024324656
0.02432447
0.024324243
0.02432402
0.024323817
0.024323643
0.024323505
0.024323389
0.024323302
0.008105367
0.0081054373
0.0081055302
0.0081056517
0.0081058127
0.0081060126
0.0081062336
0.0081064728
0.0081068498
0.0081076832
0.0081091579
0.0081105234
0.0081105266
0.0081091702
0.0081077077
0.0081068782
0.0081064867
0.0081062177
0.0081059645
0.0081057401
0.0081055654
0.0081054402
0.0081053442
0.0081052731
)
;

boundaryField
{
    INLET
    {
        type            zeroGradient;
    }
    OUTLET
    {
        type            fixedValue;
        value           uniform 0;
    }
    WALL
    {
        type            zeroGradient;
    }
    frontAndBackPlanes
    {
        type            empty;
    }
}


// ************************************************************************* //
