/*--------------------------------*- C++ -*----------------------------------*\
| =========                 |                                                 |
| \\      /  F ield         | OpenFOAM: The Open Source CFD Toolbox           |
|  \\    /   O peration     | Version:  2406                                  |
|   \\  /    A nd           | Website:  www.openfoam.com                      |
|    \\/     M anipulation  |                                                 |
\*---------------------------------------------------------------------------*/
FoamFile
{
    version     2.0;
    format      ascii;
    arch        "LSB;label=32;scalar=64";
    class       surfaceScalarField;
    location    "28";
    object      phi;
}
// * * * * * * * * * * * * * * * * * * * * * * * * * * * * * * * * * * * * * //

dimensions      [0 3 -1 0 0 0 0];

oriented        oriented;

internalField   nonuniform List<scalar> 
2279
(
2.3617507e-08
1.0148926e-05
2.0509771e-07
4.982375e-05
6.9331776e-07
0.00014252872
1.5784719e-06
0.00034353082
2.6788483e-06
0.00075378089
3.3472923e-06
0.0015415573
3.0435215e-06
0.0029497096
2.1516861e-06
0.005249171
1.4318059e-06
0.008582269
9.895937e-07
0.012685995
5.1266783e-07
0.016666385
-1.2710299e-12
0.01918202
-5.126684e-07
0.01918202
-9.8958455e-07
0.016666385
-1.4317709e-06
0.012685995
-2.151597e-06
0.0085822689
-3.0433634e-06
0.0052491709
-3.3470862e-06
0.0029497095
-2.6786522e-06
0.0015415572
-1.5783321e-06
0.00075378085
-6.9324111e-07
0.00034353082
-2.0506554e-07
0.00014252873
-2.3608391e-08
4.9823754e-05
1.0148927e-05
-9.5248458e-08
1.0244175e-05
-5.3794003e-07
5.0266441e-05
-1.623001e-06
0.00014361378
-3.5389521e-06
0.00034544677
-5.9201859e-06
0.00075616213
-7.405501e-06
0.0015430426
-6.5847248e-06
0.0029488888
-3.9361559e-06
0.0052465224
-1.3883842e-06
0.0085797213
-6.5114235e-08
0.012684671
2.4240908e-07
0.016666078
-5.8532531e-12
0.019182263
-2.4242921e-07
0.019182263
6.5069193e-08
0.016666078
1.3883019e-06
0.012684671
3.9360228e-06
0.0085797213
6.5845391e-06
0.0052465225
7.4052902e-06
0.0029488889
5.9200052e-06
0.0015430427
3.5388362e-06
0.00075616217
1.622945e-06
0.00034544679
5.3792078e-07
0.00014361379
9.5246057e-08
5.0266445e-05
1.0244176e-05
5.0139849e-08
1.0194035e-05
2.6334502e-07
5.0053236e-05
7.4910728e-07
0.00014312802
1.5314587e-06
0.00034466442
2.3366564e-06
0.00075535693
2.5476635e-06
0.0015428316
1.8390991e-06
0.0029495974
9.7567905e-07
0.0052473858
6.7696388e-07
0.00858002
6.7179311e-07
0.012684677
4.8417307e-07
0.016666266
1.5804542e-11
0.019182747
-4.8413493e-07
0.019182747
-6.7173812e-07
0.016666266
-6.7688933e-07
0.012684677
-9.7559473e-07
0.0085800199
-1.8390242e-06
0.0052473858
-2.5476121e-06
0.0029495974
-2.3366316e-06
0.0015428316
-1.5314545e-06
0.00075535692
-7.4911078e-07
0.00034466441
-2.6334853e-07
0.00014312801
-5.0141867e-08
5.0053234e-05
1.0194034e-05
1.9586719e-08
1.0174448e-05
1.1184927e-07
4.9960974e-05
3.6128437e-07
0.00014287858
9.0504808e-07
0.00034412066
1.8716608e-06
0.00075439032
3.0948254e-06
0.0015416085
3.8987271e-06
0.0029487935
3.7285593e-06
0.005247556
2.9242149e-06
0.0085808243
1.9733776e-06
0.012685627
1.0127713e-06
0.016667226
-2.7978075e-12
0.01918376
-1.0127793e-06
0.01918376
-1.9733922e-06
0.016667226
-2.9242384e-06
0.012685627
-3.7285868e-06
0.0085808243
-3.8987463e-06
0.005247556
-3.0948326e-06
0.0029487935
-1.8716598e-06
0.0015416085
-9.0504397e-07
0.00075439032
-3.6128082e-07
0.00034412066
-1.1184723e-07
0.00014287858
-1.9585783e-08
4.9960973e-05
1.0174448e-05
8.0839262e-09
1.0166364e-05
4.7141461e-08
4.9921916e-05
1.5494693e-07
0.00014277078
3.984634e-07
0.00034387714
8.7979549e-07
0.00075390899
1.7015184e-06
0.0015407867
2.7512788e-06
0.0029477437
3.4623667e-06
0.0052468449
3.4708679e-06
0.0085808158
2.8006924e-06
0.012686298
1.5505198e-06
0.016668476
3.8444256e-12
0.01918531
-1.5505114e-06
0.01918531
-2.800682e-06
0.016668476
-3.470855e-06
0.012686298
-3.4623592e-06
0.0085808158
-2.7512799e-06
0.0052468449
-1.7015262e-06
0.0029477437
-8.7980563e-07
0.0015407867
-3.9847082e-07
0.00075390899
-1.5495048e-07
0.00034387714
-4.7142518e-08
0.00014277078
-8.0838743e-09
4.9921916e-05
1.0166364e-05
4.9358689e-09
1.0161429e-05
2.869886e-08
4.9898153e-05
9.5121505e-08
0.00014270436
2.4921461e-07
0.00034372305
5.6361017e-07
0.00075359459
1.1213766e-06
0.001540229
1.9184606e-06
0.0029469467
2.6588247e-06
0.0052461046
2.8930637e-06
0.0085805816
2.4787711e-06
0.012686712
1.4344304e-06
0.016669521
4.8455451e-12
0.019186745
-1.4344194e-06
0.019186745
-2.4787571e-06
0.016669521
-2.8930488e-06
0.012686712
-2.6588119e-06
0.0085805816
-1.9184541e-06
0.0052461046
-1.1213767e-06
0.0029469467
-5.6361417e-07
0.001540229
-2.4921883e-07
0.00075359459
-9.5124049e-08
0.00034372305
-2.8699833e-08
0.00014270436
-4.9360004e-09
4.9898153e-05
1.0161429e-05
4.4123516e-09
1.0157016e-05
2.5525664e-08
4.987704e-05
8.3830133e-08
0.00014264605
2.1689427e-07
0.00034358998
4.8450157e-07
0.00075332698
9.5636183e-07
0.0015397571
1.6413754e-06
0.0029462616
2.3245846e-06
0.0052454214
2.5939555e-06
0.0085803122
2.239365e-06
0.012687066
1.3066756e-06
0.016670453
2.905074e-12
0.019188051
-1.3066694e-06
0.019188051
-2.2393592e-06
0.016670453
-2.5939521e-06
0.012687066
-2.324584e-06
0.0085803122
-1.6413783e-06
0.0052454214
-9.5636684e-07
0.0029462616
-4.8450663e-07
0.0015397571
-2.1689786e-07
0.00075332698
-8.3831943e-08
0.00034358998
-2.5526256e-08
0.00014264605
-4.4123648e-09
4.987704e-05
1.0157016e-05
3.6255341e-09
1.0153391e-05
2.1036578e-08
4.9859629e-05
6.9438103e-08
0.00014259765
1.8114151e-07
0.00034347828
4.0971452e-07
0.00075309841
8.2390428e-07
0.0015393429
1.453993e-06
0.0029456316
2.1430762e-06
0.0052447323
2.4674736e-06
0.0085799878
2.1883935e-06
0.012687346
1.2866428e-06
0.016671355
8.1791648e-13
0.019189338
-1.2866413e-06
0.019189338
-2.188393e-06
0.016671355
-2.467475e-06
0.012687346
-2.1430797e-06
0.0085799878
-1.4539981e-06
0.0052447323
-8.2391034e-07
0.0029456316
-4.0972009e-07
0.0015393429
-1.8114535e-07
0.00075309841
-6.9440054e-08
0.00034347828
-2.1037244e-08
0.00014259765
-3.6255816e-09
4.9859629e-05
1.0153391e-05
2.9831316e-09
1.0150408e-05
1.7346994e-08
4.9845265e-05
5.7377272e-08
0.00014255762
1.5007382e-07
0.00034338559
3.4097116e-07
0.00075290751
6.9193186e-07
0.001538992
1.2441088e-06
0.0029450794
1.9041858e-06
0.0052440722
2.3016001e-06
0.0085795904
2.0975073e-06
0.01268755
1.2520096e-06
0.016672201
-4.6353011e-13
0.01919059
-1.252011e-06
0.01919059
-2.0975098e-06
0.016672201
-2.3016037e-06
0.01268755
-1.9041897e-06
0.0085795904
-1.2441132e-06
0.0052440722
-6.9193684e-07
0.0029450794
-3.4097587e-07
0.001538992
-1.5007722e-07
0.00075290751
-5.7379078e-08
0.00034338559
-1.7347642e-08
0.00014255762
-2.9831966e-09
4.9845265e-05
1.0150408e-05
2.4654266e-09
1.0147942e-05
1.4363117e-08
4.9833367e-05
4.7626475e-08
0.00014252436
1.2502867e-07
0.00034330818
2.8558889e-07
0.00075274695
5.8417933e-07
0.0015386934
1.0641841e-06
0.0029445994
1.6641573e-06
0.0052434722
2.0898734e-06
0.0085791647
1.9528931e-06
0.012687687
1.1802434e-06
0.016672973
-1.0779433e-12
0.01919177
-1.1802459e-06
0.01919177
-1.9528964e-06
0.016672973
-2.089877e-06
0.012687687
-1.6641605e-06
0.0085791647
-1.0641878e-06
0.0052434722
-5.8418377e-07
0.0029445994
-2.8559332e-07
0.0015386934
-1.2503198e-07
0.00075274695
-4.7628278e-08
0.00034330818
-1.4363781e-08
0.00014252436
-2.4655004e-09
4.9833367e-05
1.0147942e-05
2.1024503e-09
1.014584e-05
1.2258068e-08
4.9823212e-05
4.0688268e-08
0.00014249593
1.0699019e-07
0.00034324188
2.4507837e-07
0.00075260886
5.0385273e-07
0.0015384346
9.2623427e-07
0.002944177
1.4715104e-06
0.0052429269
1.8909071e-06
0.0085787453
1.805021e-06
0.012687772
1.1036887e-06
0.016673675
-9.4865615e-13
0.019192874
-1.1036908e-06
0.019192874
-1.8050232e-06
0.016673675
-1.8909089e-06
0.012687772
-1.4715121e-06
0.0085787453
-9.2623703e-07
0.0052429269
-5.0385693e-07
0.002944177
-2.4508299e-07
0.0015384346
-1.0699381e-07
0.00075260886
-4.0690297e-08
0.00034324188
-1.2258834e-08
0.00014249593
-2.1025467e-09
4.9823212e-05
1.014584e-05
1.8282361e-09
1.0144011e-05
1.0665503e-08
4.9814374e-05
3.5430307e-08
0.00014247116
9.3282972e-08
0.00034318403
2.14139e-07
0.00075248801
4.4192718e-07
0.0015382068
8.181129e-07
0.0029438008
1.3163797e-06
0.0052424287
1.7244927e-06
0.0085783372
1.6780414e-06
0.012687819
1.0378034e-06
0.016674315
-6.1880202e-13
0.019193912
-1.0378045e-06
0.019193912
-1.6780418e-06
0.016674315
-1.7244923e-06
0.012687819
-1.3163797e-06
0.0085783372
-8.1811482e-07
0.0052424287
-4.4193137e-07
0.0029438008
-2.1414409e-07
0.0015382068
-9.3287113e-08
0.00075248801
-3.5432666e-08
0.00034318403
-1.0666405e-08
0.00014247116
-1.828355e-09
4.9814374e-05
1.0144011e-05
1.6104923e-09
1.0142401e-05
9.3996782e-09
4.9806585e-05
3.1244427e-08
0.00014244932
8.2340369e-08
0.00034313293
1.8932052e-07
0.00075238103
3.9182266e-07
0.0015380043
7.2924093e-07
0.0029434634
1.1851449e-06
0.0052419728
1.5781744e-06
0.0085779441
1.5623383e-06
0.012687835
9.766973e-07
0.0166749
-1.643722e-13
0.019194888
-9.7669719e-07
0.019194888
-1.562337e-06
0.0166749
-1.5781722e-06
0.012687835
-1.1851436e-06
0.0085779441
-7.292424e-07
0.0052419728
-3.9182721e-07
0.0029434634
-1.8932637e-07
0.0015380043
-8.2345215e-08
0.00075238103
-3.1247201e-08
0.00034313293
-9.4007376e-09
0.00014244932
-1.6106302e-09
4.9806585e-05
1.0142401e-05
1.4323212e-09
1.0140969e-05
8.3630444e-09
4.9799654e-05
2.7812657e-08
0.00014242987
7.3352813e-08
0.00034308739
1.6886874e-07
0.00075228551
3.5026787e-07
0.0015378229
6.5458282e-07
0.0029431591
1.072059e-06
0.0052415553
1.4464331e-06
0.0085775698
1.4548757e-06
0.012687826
9.1880907e-07
0.016675437
3.7245584e-13
0.019195807
-9.1880769e-07
0.019195807
-1.4548728e-06
0.016675437
-1.4464294e-06
0.012687826
-1.0720567e-06
0.0085775698
-6.5458419e-07
0.0052415553
-3.5027311e-07
0.0029431591
-1.6887561e-07
0.0015378229
-7.3358512e-08
0.00075228551
-2.7815912e-08
0.00034308739
-8.3642803e-09
0.00014242987
-1.4324768e-09
4.9799654e-05
1.0140969e-05
1.2850142e-09
1.0139684e-05
7.5051214e-09
4.9793434e-05
2.4968921e-08
0.0001424124
6.5891223e-08
0.00034304647
1.5183816e-07
0.00075219957
3.154855e-07
0.0015376593
5.9149686e-07
0.0029428831
9.7478725e-07
0.005241172
1.3297049e-06
0.0085772149
1.356787e-06
0.012687799
8.6525206e-07
0.016675928
8.9258051e-13
0.019196672
-8.6524948e-07
0.019196672
-1.3567829e-06
0.016675928
-1.3297e-06
0.012687799
-9.7478431e-07
0.0085772148
-5.914984e-07
0.005241172
-3.1549165e-07
0.0029428831
-1.5184621e-07
0.0015376593
-6.5897873e-08
0.00075219957
-2.4972699e-08
0.00034304647
-7.5065458e-09
0.0001424124
-1.285187e-09
4.9793434e-05
1.0139684e-05
1.161502e-09
1.0138522e-05
6.7852524e-09
4.9787811e-05
2.258055e-08
0.00014239661
5.9615535e-08
0.00034300943
1.3748129e-07
0.0007521217
2.8604697e-07
0.0015375107
5.3771155e-07
0.0029426314
8.9070672e-07
0.005240819
1.2263983e-06
0.0085768792
1.2674901e-06
0.012687758
8.159272e-07
0.01667638
1.3920959e-12
0.019197488
-8.1592357e-07
0.019197488
-1.2674847e-06
0.01667638
-1.2263925e-06
0.012687758
-8.9070332e-07
0.0085768792
-5.3771344e-07
0.005240819
-2.8605419e-07
0.0029426314
-1.3749063e-07
0.0015375107
-5.9623196e-08
0.0007521217
-2.2584877e-08
0.00034300943
-6.7868723e-09
0.00014239661
-1.1616918e-09
4.978781e-05
1.0138522e-05
1.0561624e-09
1.0137466e-05
6.1710279e-09
4.9782696e-05
2.0541434e-08
0.00014238224
5.4252249e-08
0.00034297572
1.2519097e-07
0.00075205076
2.6076832e-07
0.0015373751
4.9125234e-07
0.0029424009
8.1722599e-07
0.005240493
1.1341844e-06
0.0085765622
1.1857913e-06
0.012687707
7.7021559e-07
0.016676795
1.8064023e-12
0.019198259
-7.7021107e-07
0.019198259
-1.185785e-06
0.016676795
-1.1341778e-06
0.012687707
-8.1722229e-07
0.0085765622
-4.9125471e-07
0.005240493
-2.607767e-07
0.0029424009
-1.2520165e-07
0.0015373751
-5.4260946e-08
0.00075205076
-2.0546317e-08
0.00034297572
-6.172845e-09
0.00014238224
-1.0563687e-09
4.9782696e-05
1.0137466e-05
9.6516066e-10
1.0136501e-05
5.6402095e-09
4.9778021e-05
1.8778343e-08
0.0001423691
4.9611347e-08
0.00034294489
1.145418e-07
0.00075198583
2.3881127e-07
0.0015372509
4.5070455e-07
0.002942189
7.5248361e-07
0.0052401913
1.0515007e-06
0.0085762632
1.1108323e-06
0.012687647
7.2768962e-07
0.016677178
2.1353452e-12
0.019198986
-7.2768438e-07
0.019198986
-1.1108252e-06
0.016677178
-1.0514933e-06
0.012687647
-7.5247966e-07
0.0085762632
-4.5070745e-07
0.0052401913
-2.3882083e-07
0.002942189
-1.1455383e-07
0.0015372509
-4.9621073e-08
0.00075198583
-1.8783776e-08
0.00034294489
-5.6422194e-09
0.0001423691
-9.6538202e-10
4.9778021e-05
1.0136501e-05
8.8581711e-10
1.0135615e-05
5.1772332e-09
4.9773729e-05
1.7239896e-08
0.00014235704
4.555896e-08
0.00034291657
1.0523232e-07
0.00075192616
2.195767e-07
0.0015371365
4.1504272e-07
0.0029419936
6.9508984e-07
0.0052399112
9.7709493e-07
0.0085759812
1.0418681e-06
0.012687582
6.8800609e-07
0.016677532
2.406293e-12
0.019199674
-6.8800024e-07
0.019199674
-1.0418603e-06
0.016677532
-9.770869e-07
0.012687582
-6.9508568e-07
0.0085759812
-4.1504615e-07
0.0052399112
-2.1958742e-07
0.0029419936
-1.0524566e-07
0.0015371365
-4.5569678e-08
0.00075192616
-1.7245855e-08
0.00034291657
-5.179426e-09
0.00014235704
-8.8605128e-10
4.9773729e-05
1.0135615e-05
8.1603515e-10
1.0134799e-05
4.7699352e-09
4.9769775e-05
1.5885966e-08
0.00014234592
4.199056e-08
0.00034289047
9.7026839e-08
0.00075187112
2.0259372e-07
0.0015370309
3.8344923e-07
0.0029418127
6.4389618e-07
0.0052396508
9.0984336e-07
0.0085757152
9.7823656e-07
0.012687514
6.5086734e-07
0.01667786
2.6387525e-12
0.019200325
-6.5086096e-07
0.019200325
-9.7822807e-07
0.01667786
-9.0983472e-07
0.012687514
-6.4389185e-07
0.0085757152
-3.834532e-07
0.0052396508
-2.0260556e-07
0.0029418127
-9.7041424e-08
0.0015370309
-4.2002213e-08
0.00075187112
-1.5892416e-08
0.00034289047
-4.772296e-09
0.00014234592
-8.1627934e-10
4.9769775e-05
1.0134799e-05
7.5416361e-10
1.0134045e-05
4.4087264e-09
4.9766121e-05
1.4684886e-08
0.00014233564
3.8823529e-08
0.00034286633
8.9738518e-08
0.00075182021
1.8748705e-07
0.0015369332
3.5526564e-07
0.0029416449
5.9795873e-07
0.0052394081
8.4878887e-07
0.0085754644
9.1936728e-07
0.012687443
6.1601157e-07
0.016678163
2.8478999e-12
0.019200941
-6.1600468e-07
0.019200941
-9.1935816e-07
0.016678163
-8.4877966e-07
0.012687443
-5.9795425e-07
0.0085754644
-3.5527014e-07
0.0052394081
-1.8749995e-07
0.0029416449
-8.9754256e-08
0.0015369332
-3.8836036e-08
0.00075182021
-1.4691778e-08
0.00034286633
-4.4112358e-09
0.00014233564
-7.5441468e-10
4.9766121e-05
1.0134045e-05
6.9891333e-10
1.0133346e-05
4.086111e-09
4.9762734e-05
1.3611863e-08
0.00014232612
3.5993032e-08
0.00034284395
8.3220241e-08
0.00075177298
1.7395956e-07
0.0015368425
3.2996539e-07
0.0029414889
5.5650764e-07
0.0052391815
7.9312108e-07
0.0085752278
8.6476876e-07
0.012687372
5.8323275e-07
0.016678444
3.0388738e-12
0.019201524
-5.8322539e-07
0.019201524
-8.6475906e-07
0.016678444
-7.9311136e-07
0.012687372
-5.5650307e-07
0.0085752278
-3.2997041e-07
0.0052391815
-1.7397343e-07
0.0029414889
-8.3237015e-08
0.0015368425
-3.6006288e-08
0.00075177298
-1.3619135e-08
0.00034284395
-4.0887444e-09
0.00014232612
-6.9916776e-10
4.9762733e-05
1.0133346e-05
6.4926804e-10
1.0132697e-05
3.7961751e-09
4.9759587e-05
1.2647318e-08
0.00014231727
3.3447798e-08
0.00034282315
7.7355415e-08
0.00075172907
1.6177486e-07
0.001536758
3.0712691e-07
0.0029413436
5.1891972e-07
0.0052389697
7.4217314e-07
0.0085750045
8.1401447e-07
0.0126873
5.5234381e-07
0.016678706
3.2109404e-12
0.019202077
-5.5233603e-07
0.019202077
-8.1400426e-07
0.016678706
-7.4216301e-07
0.0126873
-5.1891513e-07
0.0085750045
-3.0713245e-07
0.0052389697
-1.6178962e-07
0.0029413436
-7.7373074e-08
0.001536758
-3.3461671e-08
0.00075172907
-1.2654892e-08
0.00034282315
-3.7989026e-09
0.00014231727
-6.4952183e-10
4.9759587e-05
1.0132697e-05
6.0441378e-10
1.0132092e-05
3.53418e-09
4.9756657e-05
1.1775551e-08
0.00014230903
3.1146669e-08
0.00034280378
7.2050263e-08
0.00075168817
1.5074223e-07
0.0015366793
2.8640777e-07
0.0029412079
4.846818e-07
0.0052387715
6.9538105e-07
0.0085747938
7.6674446e-07
0.012687229
5.2320601e-07
0.01667895
3.3603266e-12
0.0192026
-5.2319786e-07
0.0192026
-7.6673384e-07
0.01667895
-6.9537062e-07
0.012687229
-4.8467728e-07
0.0085747938
-2.8641381e-07
0.0052387715
-1.5075774e-07
0.0029412079
-7.2068618e-08
0.0015366793
-3.1160995e-08
0.00075168817
-1.1783332e-08
0.00034280378
-3.5369647e-09
0.00014230903
-6.0466219e-10
4.9756657e-05
1.0132092e-05
5.6369202e-10
1.0131528e-05
3.2962902e-09
4.9753924e-05
1.0983849e-08
0.00014230134
2.9056295e-08
0.0003427857
6.7228716e-08
0.00075165
1.407066e-07
0.0015366059
2.6752855e-07
0.0029410811
4.5337242e-07
0.0052385856
6.5227592e-07
0.0085745949
7.2263684e-07
0.012687158
4.9567576e-07
0.016679177
3.4834307e-12
0.019203096
-4.9566735e-07
0.019203096
-7.2262593e-07
0.016679177
-6.5226533e-07
0.012687158
-4.5336807e-07
0.0085745949
-2.6753507e-07
0.0052385856
-1.4072269e-07
0.0029410811
-6.724753e-08
0.0015366059
-2.9070874e-08
0.00075165
-1.0991721e-08
0.0003427857
-3.2990877e-09
0.00014230134
-5.6392931e-10
4.9753924e-05
1.0131528e-05
5.2656356e-10
1.0131002e-05
3.0793645e-09
4.9751372e-05
1.0261797e-08
0.00014229416
2.7149329e-08
0.00034276882
6.2828303e-08
0.00075161432
1.3154031e-07
0.0015365372
2.5025792e-07
0.0029409624
4.2463802e-07
0.0052384112
6.1245359e-07
0.0085744071
6.814238e-07
0.012687089
4.6965913e-07
0.016679388
3.5781455e-12
0.019203565
-4.6965053e-07
0.019203565
-6.8141273e-07
0.016679388
-6.12443e-07
0.012687089
-4.2463392e-07
0.0085744071
-2.5026485e-07
0.0052384112
-1.3155674e-07
0.0029409624
-6.2847279e-08
0.0015365372
-2.7163914e-08
0.00075161432
-1.0269618e-08
0.00034276882
-3.0821209e-09
0.00014229416
-5.2678278e-10
4.9751371e-05
1.0131002e-05
4.9258389e-10
1.0130509e-05
2.8808123e-09
4.9748983e-05
9.6008003e-09
0.00014228744
2.5403203e-08
0.00034275301
5.8797456e-08
0.00075158092
1.2313787e-07
0.0015364728
2.3440445e-07
0.0029408511
3.9818566e-07
0.0052382475
5.7557759e-07
0.0085742297
6.4285317e-07
0.012687022
4.4503476e-07
0.016679586
3.641195e-12
0.01920401
-4.4502606e-07
0.01920401
-6.4284209e-07
0.016679586
-5.7556716e-07
0.012687022
-3.9818189e-07
0.0085742297
-2.3441169e-07
0.0052382475
-1.2315437e-07
0.0029408511
-5.8816235e-08
0.0015364728
-2.5417498e-08
0.00075158092
-9.6084024e-09
0.00034275301
-2.8834633e-09
0.00014228744
-4.9277665e-10
4.9748983e-05
1.0130509e-05
4.6138149e-10
1.0130048e-05
2.6984686e-09
4.9746746e-05
8.9936767e-09
0.00014228114
2.3799037e-08
0.00034273821
5.5092961e-08
0.00075154963
1.1541065e-07
0.0015364125
2.1980637e-07
0.0029407467
3.7376395e-07
0.0052380935
5.4135039e-07
0.0085740621
6.0672475e-07
0.012686957
4.2174314e-07
0.016679771
3.6758418e-12
0.019204432
-4.2173443e-07
0.019204432
-6.0671381e-07
0.016679771
-5.413403e-07
0.012686957
-3.737606e-07
0.0085740621
-2.198138e-07
0.0052380935
-1.1542687e-07
0.0029407467
-5.5111107e-08
0.0015364125
-2.3812687e-08
0.00075154963
-9.0008582e-09
0.00034273821
-2.7009376e-09
0.00014228114
-4.6153783e-10
4.9746746e-05
1.0130048e-05
4.3264397e-10
1.0129615e-05
2.5305119e-09
4.9744649e-05
8.4343815e-09
0.00014227524
2.2320952e-08
0.00034272432
5.1678501e-08
0.00075152027
1.0828422e-07
0.0015363559
2.0632791e-07
0.0029406487
3.5116284e-07
0.0052379487
5.0952388e-07
0.0085739038
5.7283076e-07
0.012686893
3.9966971e-07
0.016679944
3.6651209e-12
0.019204832
-3.9966109e-07
0.019204832
-5.7282012e-07
0.016679944
-5.0951431e-07
0.012686893
-3.5116001e-07
0.0085739038
-2.0633537e-07
0.0052379487
-1.0829974e-07
0.0029406487
-5.1695502e-08
0.0015363559
-2.2333539e-08
0.00075152027
-8.4409051e-09
0.00034272432
-2.5327087e-09
0.00014227524
-4.3275228e-10
4.9744648e-05
1.0129615e-05
4.061061e-10
1.0129209e-05
2.3753969e-09
4.9742679e-05
7.9177855e-09
0.0001422697
2.0955447e-08
0.00034271129
4.8523114e-08
0.0007514927
1.0169487e-07
0.0015363027
1.9385203e-07
0.0029405565
3.3019775e-07
0.0052378123
4.7987299e-07
0.0085737541
5.4102457e-07
0.012686832
3.7878665e-07
0.016680107
3.6068801e-12
0.01920521
-3.7877825e-07
0.01920521
-5.4101444e-07
0.016680107
-4.7986419e-07
0.012686832
-3.3019554e-07
0.0085737541
-1.9385934e-07
0.0052378123
-1.017092e-07
0.0029405565
-4.8538365e-08
0.0015363027
-2.096648e-08
0.00075149271
-7.9233734e-09
0.00034271129
-2.3772165e-09
0.00014226969
-4.0615296e-10
4.9742679e-05
1.0129209e-05
3.8154028e-10
1.0128828e-05
2.2317947e-09
4.9740829e-05
7.4394777e-09
0.00014226449
1.9690942e-08
0.00034269903
4.5600326e-08
0.0007514668
9.5588267e-08
0.0015362527
1.8227931e-07
0.0029404698
3.1071348e-07
0.0052376839
4.5220929e-07
0.0085736126
5.1112297e-07
0.012686773
3.5897274e-07
0.016680259
3.5094907e-12
0.019205569
-3.5896469e-07
0.019205569
-5.1111358e-07
0.016680259
-4.5220152e-07
0.012686773
-3.1071202e-07
0.0085736126
-1.8228626e-07
0.0052376839
-9.5600847e-08
0.0029404698
-4.5613124e-08
0.0015362527
-1.969985e-08
0.0007514668
-7.4438081e-09
0.00034269903
-2.2331156e-09
0.00014226449
-3.8151048e-10
4.9740829e-05
1.0128828e-05
3.5875238e-10
1.0128469e-05
2.0985764e-09
4.9739089e-05
6.9957087e-09
0.00014225959
1.8517541e-08
0.00034268751
4.2887355e-08
0.00075144243
8.9917343e-08
0.0015362057
1.7152275e-07
0.0029403882
2.9257106e-07
0.0052375628
4.2635995e-07
0.0085734788
4.8302818e-07
0.012686717
3.402359e-07
0.016680402
3.3517084e-12
0.01920591
-3.4022838e-07
0.01920591
-4.8301981e-07
0.016680402
-4.2635355e-07
0.012686717
-2.9257051e-07
0.0085734788
-1.7152908e-07
0.0052375628
-8.9927517e-08
0.0029403882
-4.2896891e-08
0.0015362057
-1.8523669e-08
0.00075144243
-6.9984116e-09
0.00034268751
-2.0992594e-09
0.00014225959
-3.5862892e-10
4.9739089e-05
1.0128469e-05
3.3757031e-10
1.0128131e-05
1.9747334e-09
4.9737452e-05
6.583131e-09
0.00014225498
1.7426481e-08
0.00034267667
4.0364238e-08
0.00075141949
8.4641208e-08
0.0015361614
1.6150724e-07
0.0029403113
2.756521e-07
0.0052374487
4.0217586e-07
0.0085733523
4.5656295e-07
0.012686662
3.2243352e-07
0.016680536
3.0659182e-12
0.019206232
-3.2242677e-07
0.019206232
-4.5655596e-07
0.016680536
-4.0217123e-07
0.012686662
-2.7565265e-07
0.0085733523
-1.6151269e-07
0.0052374487
-8.4648228e-08
0.0029403113
-4.0369586e-08
0.0015361614
-1.7429079e-08
0.00075141949
-6.5837849e-09
0.00034267667
-1.9746208e-09
0.00014225498
-3.3733443e-10
4.9737452e-05
1.0128131e-05
3.178512e-10
1.0127813e-05
1.8594399e-09
4.9735911e-05
6.1989989e-09
0.00014225064
1.6410466e-08
0.00034266646
3.8014016e-08
0.00075139789
7.9724507e-08
0.0015361197
1.5216711e-07
0.0029402389
2.5985109e-07
0.005237341
3.7952637e-07
0.0085732326
4.3168257e-07
0.01268661
3.0562018e-07
0.016680662
2.7303767e-12
0.019206538
-3.0561446e-07
0.019206538
-4.3167741e-07
0.016680662
-3.7952398e-07
0.01268661
-2.5985298e-07
0.0085732326
-1.5217138e-07
0.005237341
-7.9727525e-08
0.0029402389
-3.8014126e-08
0.0015361197
-1.6408685e-08
0.00075139789
-6.197129e-09
0.00034266646
-1.8583549e-09
0.00014225064
-3.1748247e-10
4.9735911e-05
1.0127813e-05
2.9945793e-10
1.0127514e-05
1.751884e-09
4.9734458e-05
5.8406188e-09
0.00014224655
1.5462505e-08
0.00034265684
3.5820964e-08
0.00075137753
7.5135302e-08
0.0015360804
1.4344347e-07
0.0029401706
2.4507319e-07
0.0052372394
3.5828378e-07
0.0085731194
4.0819341e-07
0.01268656
2.8961252e-07
0.01668078
2.3106386e-12
0.019206827
-2.8960813e-07
0.019206827
-4.0819057e-07
0.01668078
-3.5828419e-07
0.01268656
-2.4507668e-07
0.0085731194
-1.4344621e-07
0.0052372394
-7.5133362e-08
0.0029401706
-3.5814658e-08
0.0015360804
-1.5455397e-08
0.00075137753
-5.8356954e-09
0.00034265684
-1.7496301e-09
0.00014224655
-2.989343e-10
4.9734458e-05
1.0127514e-05
2.8229066e-10
1.0127232e-05
1.6515015e-09
4.9733089e-05
5.5061097e-09
0.0001422427
1.4577483e-08
0.00034264777
3.3772819e-08
0.00075135833
7.084743e-08
0.0015360433
1.3528754e-07
0.0029401061
2.3124146e-07
0.0052371434
3.3836003e-07
0.0085730123
3.8612002e-07
0.012686512
2.745319e-07
0.016680892
1.75819e-12
0.019207102
-2.7452922e-07
0.019207102
-3.8612007e-07
0.016680892
-3.3836385e-07
0.012686512
-2.3124685e-07
0.0085730123
-1.3528835e-07
0.0052371434
-7.0839465e-08
0.0029401061
-3.3758791e-08
0.0015360433
-1.4564005e-08
0.00075135833
-5.4975537e-09
0.00034264777
-1.6478661e-09
0.0001422427
-2.8158944e-10
4.9733089e-05
1.0127232e-05
2.6622827e-10
1.0126965e-05
1.5575564e-09
4.9731798e-05
5.1930346e-09
0.00014223906
1.3749226e-08
0.00034263921
3.1856167e-08
0.00075134023
6.6834342e-08
0.0015360083
1.2764995e-07
0.0029400453
2.1827198e-07
0.0052370528
3.1962715e-07
0.0085729109
3.6522e-07
0.012686467
2.6012596e-07
0.016680997
1.0532052e-12
0.019207362
-2.601254e-07
0.019207362
-3.6522358e-07
0.016680997
-3.1963508e-07
0.012686467
-2.1827958e-07
0.0085729109
-1.276484e-07
0.0052370528
-6.6819166e-08
0.0029400453
-3.1832985e-08
0.0015360083
-1.3728241e-08
0.00075134022
-5.18022e-09
0.00034263921
-1.5523116e-09
0.00014223906
-2.6532665e-10
4.9731798e-05
1.0126966e-05
2.5122082e-10
1.0126714e-05
1.4698013e-09
4.9730579e-05
4.9005521e-09
0.00014223563
1.2975116e-08
0.00034263113
3.0063735e-08
0.00075132314
6.307901e-08
0.0015359753
1.2049897e-07
0.0029399879
2.0612036e-07
0.0052369672
3.0205548e-07
0.008572815
3.4562214e-07
0.012686423
2.4661664e-07
0.016681096
1.5981995e-13
0.019207609
-2.4661866e-07
0.019207609
-3.4562991e-07
0.016681096
-3.0206822e-07
0.012686423
-2.0613047e-07
0.008572815
-1.2049451e-07
0.0052369672
-6.3055319e-08
0.0029399879
-3.002985e-08
0.0015359753
-1.2945406e-08
0.00075132313
-4.8828121e-09
0.00034263113
-1.4627064e-09
0.00014223563
-2.5009547e-10
4.973058e-05
1.0126714e-05
2.3713464e-10
1.0126477e-05
1.3873857e-09
4.9729429e-05
4.6258627e-09
0.0001422324
1.2248393e-08
0.00034262351
2.8381896e-08
0.000751307
5.9556159e-08
0.0015359442
1.1378702e-07
0.0029399337
1.9469629e-07
0.0052368863
2.854821e-07
0.0085727242
3.269838e-07
0.012686382
2.3364015e-07
0.016681189
-9.0651448e-13
0.019207842
-2.3364521e-07
0.019207842
-3.2699644e-07
0.016681189
-2.8550035e-07
0.012686382
-1.9470915e-07
0.0085727242
-1.1377903e-07
0.0052368863
-5.9522547e-08
0.0029399337
-2.8335682e-08
0.0015359441
-1.2208702e-08
0.000751307
-4.6025211e-09
0.00034262351
-1.3782012e-09
0.0001422324
-2.3576508e-10
4.9729429e-05
1.0126477e-05
2.2401091e-10
1.0126253e-05
1.310656e-09
4.9728342e-05
4.3700567e-09
0.00014222934
1.1570893e-08
0.00034261631
2.6811646e-08
0.00075129176
5.6262665e-08
0.0015359147
1.0750796e-07
0.0029398824
1.8400885e-07
0.0052368098
2.6998099e-07
0.0085726382
3.0960609e-07
0.012686342
2.2157487e-07
0.016681277
-2.1302243e-12
0.019208064
-2.2158336e-07
0.019208064
-3.0962421e-07
0.016681277
-2.7000535e-07
0.012686342
-1.8402455e-07
0.0085726383
-1.0749567e-07
0.0052368098
-5.6217598e-08
0.0029398824
-2.6751423e-08
0.0015359147
-1.151997e-08
0.00075129176
-4.3404588e-09
0.00034261631
-1.2991594e-09
0.00014222934
-2.2238368e-10
4.9728343e-05
1.0126253e-05
2.1163069e-10
1.0126041e-05
1.2381643e-09
4.9727316e-05
4.1284172e-09
0.00014222645
1.0931831e-08
0.00034260951
2.5333301e-08
0.00075127736
5.316591e-08
0.0015358869
1.0160104e-07
0.002939834
1.7392805e-07
0.0052367374
2.5529001e-07
0.0085725569
2.9296291e-07
0.012686304
2.0988292e-07
0.01668136
-3.4588472e-12
0.019208274
-2.0989515e-07
0.019208274
-2.92987e-07
0.01668136
-2.5532093e-07
0.012686304
-1.7394652e-07
0.0085725569
-1.0158349e-07
0.0052367374
-5.3107774e-08
0.002939834
-2.5257395e-08
0.0015358869
-1.0868475e-08
0.00075127736
-4.0919596e-09
0.00034260951
-1.2241604e-09
0.00014222645
-2.0974028e-10
4.9727317e-05
1.0126042e-05
2.0027593e-10
1.0125841e-05
1.1718144e-09
4.9726344e-05
3.9070524e-09
0.00014222371
1.0344415e-08
0.00034260307
2.3968243e-08
0.00075126374
5.0295132e-08
0.0015358605
9.6116501e-08
0.0029397882
1.6457716e-07
0.005236669
2.4169354e-07
0.0085724797
2.7765705e-07
0.012686268
1.9919367e-07
0.016681439
-4.8099271e-12
0.019208473
-1.9920975e-07
0.019208473
-2.7768731e-07
0.016681439
-2.4173107e-07
0.012686268
-1.6459793e-07
0.0085724798
-9.609251e-08
0.005236669
-5.0222313e-08
0.0029397882
-2.3875162e-08
0.0015358605
-1.0267642e-08
0.00075126373
-3.8632801e-09
0.00034260307
-1.1551752e-09
0.00014222371
-1.9813231e-10
4.9726345e-05
1.0125841e-05
1.8934479e-10
1.0125652e-05
1.107685e-09
4.9725426e-05
3.6933758e-09
0.00014222112
9.7805689e-09
0.00034259698
2.2667779e-08
0.00075125085
4.7576989e-08
0.0015358356
9.0931002e-08
0.0029397448
1.5570317e-07
0.0052366042
2.2870397e-07
0.0085724067
2.6285576e-07
0.012686234
1.8871357e-07
0.016681513
-6.1303458e-12
0.019208662
-1.8873348e-07
0.019208662
-2.6289216e-07
0.016681513
-2.2874776e-07
0.012686234
-1.557253e-07
0.0085724068
-9.0899063e-08
0.0052366042
-4.748789e-08
0.0029397448
-2.2556397e-08
0.0015358356
-9.6898811e-09
0.00075125084
-3.6422056e-09
0.00034259698
-1.0884684e-09
0.00014222113
-1.8700763e-10
4.9725427e-05
1.0125652e-05
1.7997369e-10
1.0125472e-05
1.0530292e-09
4.9724553e-05
3.5104457e-09
0.00014221867
9.2914225e-09
0.0003425912
2.1519823e-08
0.00075123862
4.5140803e-08
0.001535812
8.6250593e-08
0.0029397037
1.4770416e-07
0.0052365427
2.1705371e-07
0.0085723374
2.4971082e-07
0.012686202
1.794934e-07
0.016681583
-7.1795603e-12
0.019208841
-1.7951676e-07
0.019208841
-2.4975317e-07
0.016681583
-2.1710301e-07
0.012686202
-1.4772585e-07
0.0085723375
-8.6208416e-08
0.0052365428
-4.5033505e-08
0.0029397037
-2.1389078e-08
0.001535812
-9.1865467e-09
0.00075123861
-3.4519808e-09
0.0003425912
-1.0313702e-09
0.00014221867
-1.7749893e-10
4.9724554e-05
1.0125472e-05
1.6887311e-10
1.0125303e-05
9.881062e-10
4.9723734e-05
3.2970125e-09
0.00014221636
8.7418072e-09
0.00034258576
2.0292532e-08
0.00075122707
4.2660268e-08
0.0015357896
8.1638777e-08
0.0029396647
1.3992281e-07
0.0052364845
2.0572027e-07
0.0085722716
2.3676651e-07
0.012686171
1.7031743e-07
0.01668165
-7.3445031e-12
0.019209011
-1.7034338e-07
0.019209011
-2.3681444e-07
0.01668165
-2.0577439e-07
0.012686171
-1.3994268e-07
0.0085722717
-8.1585485e-08
0.0052364845
-4.2535811e-08
0.0029396647
-2.0145209e-08
0.0015357896
-8.6258104e-09
0.00075122706
-3.2333944e-09
0.00034258576
-9.6501344e-10
0.00014221636
-1.6651982e-10
4.9723735e-05
1.0125303e-05
1.6408377e-10
1.0125139e-05
9.6020395e-10
4.9722937e-05