/*--------------------------------*- C++ -*----------------------------------*\
| =========                 |                                                 |
| \\      /  F ield         | OpenFOAM: The Open Source CFD Toolbox           |
|  \\    /   O peration     | Version:  2406                                  |
|   \\  /    A nd           | Website:  www.openfoam.com                      |
|    \\/     M anipulation  |                                                 |
\*---------------------------------------------------------------------------*/
FoamFile
{
    version     2.0;
    format      ascii;
    arch        "LSB;label=32;scalar=64";
    class       volVectorField;
    location    "28";
    object      U;
}
// * * * * * * * * * * * * * * * * * * * * * * * * * * * * * * * * * * * * * //

dimensions      [0 1 -1 0 0 0 0];

internalField   nonuniform List<vector> 
1176
(
(0.019493789 7.0786367e-07 0)
(0.066677318 8.16966e-06 0)
(0.13357994 3.950317e-05 0)
(0.22724701 0.00010873577 0)
(0.35591522 0.0002117603 0)
(0.52772023 0.00030396292 0)
(0.74780387 0.0003181803 0)
(1.0136216 0.00024904603 0)
(1.3093323 0.00016667012 0)
(1.6017081 0.00011264693 0)
(1.8421723 7.0214123e-05 0)
(1.9793239 2.3940663e-05 0)
(1.9793239 -2.3940832e-05 0)
(1.8421723 -7.0213705e-05 0)
(1.6017081 -0.00011264476 0)
(1.3093323 -0.00016666378 0)
(1.0136216 -0.00024903274 0)
(0.74780387 -0.0003181601 0)
(0.52772024 -0.00030394058 0)
(0.35591524 -0.00021174336 0)
(0.22724703 -0.00010872557 0)
(0.13357996 -3.9499963e-05 0)
(0.066677331 -8.1669362e-06 0)
(0.019493794 -7.0793569e-07 0)
(0.020187017 -3.7419181e-06 0)
(0.068813532 -2.4638636e-05 0)
(0.13732107 -9.6548547e-05 0)
(0.23247391 -0.00024839458 0)
(0.36204617 -0.00047268777 0)
(0.53373556 -0.00067421174 0)
(0.75267407 -0.00069486926 0)
(1.0170176 -0.00049687341 0)
(1.3116385 -0.00023345883 0)
(1.6034438 -4.982404e-05 0)
(1.8436588 1.9765005e-05 0)
(1.9807026 1.3427592e-05 0)
(1.9807026 -1.3428856e-05 0)
(1.8436588 -1.9767684e-05 0)
(1.6034438 4.9818136e-05 0)
(1.3116385 0.00023344817 0)
(1.0170176 0.00049685705 0)
(0.75267405 0.00069484823 0)
(0.53373554 0.00067419115 0)
(0.36204616 0.00047267344 0)
(0.23247391 0.00024838687 0)
(0.13732108 9.6545645e-05 0)
(0.068813538 2.4637633e-05 0)
(0.020187019 3.7417679e-06 0)
(0.020018442 2.0918365e-06 0)
(0.068327405 1.2720777e-05 0)
(0.13655404 4.6877262e-05 0)
(0.23159544 0.0001138974 0)
(0.36138708 0.00019769273 0)
(0.53366969 0.00023903246 0)
(0.75344344 0.00020559833 0)
(1.0184881 0.00011361143 0)
(1.3134639 7.4313934e-05 0)
(1.6053464 7.9533285e-05 0)
(1.8455118 7.0517092e-05 0)
(1.9825245 2.7826651e-05 0)
(1.9825245 -2.7823558e-05 0)
(1.8455118 -7.0512723e-05 0)
(1.6053464 -7.9526828e-05 0)
(1.3134639 -7.430565e-05 0)
(1.0184882 -0.00011360289 0)
(0.75344346 -0.00020559271 0)
(0.53366971 -0.00023902856 0)
(0.36138709 -0.00019769184 0)
(0.23159544 -0.00011389769 0)
(0.13655404 -4.6877643e-05 0)
(0.068327402 -1.2720943e-05 0)
(0.020018441 -2.0918988e-06 0)
(0.019966547 7.0076393e-07 0)
(0.068159231 4.6870507e-06 0)
(0.13624021 1.9355445e-05 0)
(0.2311194 5.6456187e-05 0)
(0.36078093 0.0001344457 0)
(0.53306293 0.00025829328 0)
(0.75295637 0.00035344759 0)
(1.0181104 0.00036912029 0)
(1.313184 0.00030758905 0)
(1.6051633 0.00022777269 0)
(1.8453995 0.00014555959 0)
(1.9824491 4.999715e-05 0)
(1.9824491 -4.9997711e-05 0)
(1.8453995 -0.00014556054 0)
(1.6051633 -0.0002277742 0)
(1.313184 -0.00030759186 0)
(1.0181104 -0.00036912305 0)
(0.75295636 -0.00035344822 0)
(0.53306292 -0.00025829372 0)
(0.36078092 -0.00013444527 0)
(0.23111939 -5.6455744e-05 0)
(0.1362402 -1.9355459e-05 0)
(0.06815923 -4.686688e-06 0)
(0.019966547 -7.0083657e-07 0)
(0.019942203 2.9076766e-07 0)
(0.068078703 1.9872073e-06 0)
(0.13608628 8.2361194e-06 0)
(0.23087699 2.3699341e-05 0)
(0.36044744 5.6881672e-05 0)
(0.53266448 0.00012306896 0)
(0.75256878 0.00022681838 0)
(1.017808 0.00032272252 0)
(1.3129044 0.00034572505 0)
(1.604912 0.00030730027 0)
(1.8452029 0.00021095361 0)
(1.9822898 7.4614949e-05 0)
(1.9822898 -7.4614159e-05 0)
(1.8452029 -0.0002109527 0)
(1.604912 -0.00030729923 0)
(1.3129044 -0.00034572396 0)
(1.017808 -0.00032272229 0)
(0.75256878 -0.00022681881 0)
(0.53266448 -0.00012307 0)
(0.36044744 -5.6882514e-05 0)
(0.23087699 -2.3699806e-05 0)
(0.13608628 -8.236437e-06 0)
(0.068078703 -1.9871192e-06 0)
(0.019942204 -2.9083159e-07 0)
(0.019933132 1.7181407e-07 0)
(0.068047755 1.1940798e-06 0)
(0.13602488 5.0652009e-06 0)
(0.23077535 1.4968876e-05 0)
(0.36029898 3.621959e-05 0)
(0.5324792 7.6944344e-05 0)
(0.75239427 0.0001471379 0)
(1.0177222 0.00023749056 0)
(1.3129292 0.00028525634 0)
(1.6049746 0.00027441533 0)
(1.8452865 0.00019644665 0)
(1.9823834 7.1177438e-05 0)
(1.9823834 -7.1176475e-05 0)
(1.8452865 -0.00019644548 0)
(1.6049746 -0.00027441395 0)
(1.3129292 -0.00028525485 0)
(1.0177222 -0.00023748962 0)
(0.75239427 -0.00014713756 0)
(0.5324792 -7.6944608e-05 0)
(0.36029899 -3.6220037e-05 0)
(0.23077535 -1.4969201e-05 0)
(0.13602488 -5.065457e-06 0)
(0.068047755 -1.1940257e-06 0)
(0.019933132 -1.7186357e-07 0)
(0.0199234 1.5587501e-07 0)
(0.068015507 1.0700777e-06 0)
(0.13596286 4.4934644e-06 0)
(0.23067607 1.319547e-05 0)
(0.36015773 3.1857152e-05 0)
(0.53230178 6.6958293e-05 0)
(0.75221429 0.00012411899 0)
(1.0176105 0.00019917068 0)
(1.3129358 0.00025490867 0)
(1.6050904 0.00024595197 0)
(1.8454579 0.00018127926 0)
(1.9825798 6.6548828e-05 0)
(1.9825798 -6.6548229e-05 0)
(1.8454579 -0.00018127865 0)
(1.6050904 -0.00024595156 0)
(1.3129358 -0.00025490848 0)
(1.0176105 -0.00019917078 0)
(0.75221429 -0.00012411937 0)
(0.53230178 -6.6958805e-05 0)
(0.36015773 -3.1857582e-05 0)
(0.23067607 -1.3195716e-05 0)
(0.13596286 -4.4936618e-06 0)
(0.068015506 -1.0700113e-06 0)
(0.0199234 -1.5591615e-07 0)
(0.019915697 1.275861e-07 0)
(0.067989792 8.7801734e-07 0)
(0.13591293 3.6959998e-06 0)
(0.23059503 1.0901604e-05 0)
(0.36003987 2.6613353e-05 0)
(0.53214753 5.723713e-05 0)
(0.75204133 0.0001091105 0)
(1.0174723 0.00017936631 0)
(1.3128926 0.00023802483 0)
(1.6051414 0.00023746762 0)
(1.8455877 0.00017750689 0)
(1.9827514 6.5539525e-05 0)
(1.9827514 -6.5539352e-05 0)
(1.8455877 -0.00017750678 0)
(1.6051414 -0.0002374677 0)
(1.3128926 -0.00023802512 0)
(1.0174723 -0.00017936672 0)
(0.75204133 -0.00010911106 0)
(0.53214753 -5.7237718e-05 0)
(0.36003987 -2.6613815e-05 0)
(0.23059503 -1.0901867e-05 0)
(0.13591293 -3.6961916e-06 0)
(0.067989792 -8.7796745e-07 0)
(0.019915697 -1.2762299e-07 0)
(0.019909217 1.0465856e-07 0)
(0.067968141 7.2313637e-07 0)
(0.13587084 3.0521044e-06 0)
(0.23052654 9.0118302e-06 0)
(0.35993984 2.1999876e-05 0)
(0.53201542 4.7473426e-05 0)
(0.75188901 9.2014032e-05 0)
(1.0173341 0.00015618183 0)
(1.3128278 0.00021699669 0)
(1.6051595 0.00022709622 0)
(1.8456699 0.00017232629 0)
(1.982868 6.4147699e-05 0)
(1.982868 -6.4147776e-05 0)
(1.8456699 -0.00017232647 0)
(1.6051595 -0.00022709657 0)
(1.3128278 -0.00021699711 0)
(1.0173341 -0.00015618222 0)
(0.75188901 -9.2014479e-05 0)
(0.53201542 -4.7473912e-05 0)
(0.35993984 -2.2000279e-05 0)
(0.23052654 -9.0120694e-06 0)
(0.13587084 -3.0522863e-06 0)
(0.067968141 -7.230899e-07 0)
(0.019909217 -1.0469359e-07 0)
(0.019903971 8.6127578e-08 0)
(0.067950552 5.9696244e-07 0)
(0.13583649 2.5273802e-06 0)
(0.2304703 7.4916164e-06 0)
(0.35985692 1.83763e-05 0)
(0.53190436 3.9835681e-05 0)
(0.75175836 7.7712126e-05 0)
(1.0172122 0.00013432428 0)
(1.3127613 0.0001932336 0)
(1.6051772 0.00021058337 0)
(1.8457533 0.00016272964 0)
(1.9829863 6.1084189e-05 0)
(1.9829863 -6.1084386e-05 0)
(1.8457533 -0.00016272994 0)
(1.6051772 -0.00021058376 0)
(1.3127613 -0.00019323396 0)
(1.0172122 -0.0001343246 0)
(0.75175836 -7.771251e-05 0)
(0.53190436 -3.9836127e-05 0)
(0.35985692 -1.8376685e-05 0)
(0.2304703 -7.4918517e-06 0)
(0.13583649 -2.5275679e-06 0)
(0.067950552 -5.9691248e-07 0)
(0.019903971 -8.6164296e-08 0)
(0.019899543 7.3357647e-08 0)
(0.067935688 5.089615e-07 0)
(0.13580742 2.1568912e-06 0)
(0.23042259 6.4027674e-06 0)
(0.35978626 1.5747595e-05 0)
(0.5318089 3.4277819e-05 0)
(0.75164409 6.7204576e-05 0)
(1.0171021 0.00011722988 0)
(1.3126976 0.00017262454 0)
(1.6051928 0.00019308893 0)
(1.8458371 0.00015219857 0)
(1.9831061 5.7544723e-05 0)
(1.9831061 -5.7544899e-05 0)
(1.8458371 -0.0001521988 0)
(1.6051928 -0.00019308918 0)
(1.3126976 -0.00017262472 0)
(1.017102 -0.00011723007 0)
(0.75164409 -6.7204908e-05 0)
(0.5318089 -3.427827e-05 0)
(0.35978626 -1.5748009e-05 0)
(0.23042259 -6.4030285e-06 0)
(0.13580742 -2.1571044e-06 0)
(0.067935688 -5.0890557e-07 0)
(0.019899543 -7.3399575e-08 0)
(0.019895721 6.3728027e-08 0)
(0.06792285 4.4252046e-07 0)
(0.13578228 1.876741e-06 0)
(0.23038125 5.5765322e-06 0)
(0.35972483 1.3738688e-05 0)
(0.53172535 2.9998004e-05 0)
(0.75154264 5.9111539e-05 0)
(1.0170011 0.00010388814 0)
(1.3126344 0.00015540273 0)
(1.6052015 0.00017849518 0)
(1.8459125 0.00014271547 0)
(1.9832185 5.4330556e-05 0)
(1.9832185 -5.4330668e-05 0)
(1.8459125 -0.00014271557 0)
(1.6052015 -0.00017849522 0)
(1.3126344 -0.00015540271 0)
(1.0170011 -0.00010388821 0)
(0.75154264 -5.9111834e-05 0)
(0.53172535 -2.9998488e-05 0)
(0.35972483 -1.3739155e-05 0)
(0.23038125 -5.5768333e-06 0)
(0.13578228 -1.8769918e-06 0)
(0.06792285 -4.4245389e-07 0)
(0.019895721 -6.377791e-08 0)
(0.019892371 5.6090847e-08 0)
(0.067911586 3.8977702e-07 0)
(0.13576021 1.6541279e-06 0)
(0.2303449 4.9187706e-06 0)
(0.35967069 1.2132019e-05 0)
(0.53165136 2.6542441e-05 0)
(0.7514519 5.2498765e-05 0)
(1.0169086 9.2875663e-05 0)
(1.3125728 0.00014061484 0)
(1.605205 0.00016529613 0)
(1.8459798 0.00013398924 0)
(1.9833221 5.1387422e-05 0)
(1.9833221 -5.1387447e-05 0)
(1.8459798 -0.0001339892 0)
(1.605205 -0.00016529598 0)
(1.3125728 -0.00014061467 0)
(1.0169086 -9.2875648e-05 0)
(0.7514519 -5.2499061e-05 0)
(0.53165136 -2.654299e-05 0)
(0.35967069 -1.2132563e-05 0)
(0.2303449 -4.9191237e-06 0)
(0.13576021 -1.654425e-06 0)
(0.067911586 -3.8969625e-07 0)
(0.019892371 -5.6150629e-08 0)
(0.019889403 4.9849598e-08 0)
(0.067901607 3.4661681e-07 0)
(0.13574064 1.4717671e-06 0)
(0.23031264 4.3793959e-06 0)
(0.35962253 1.081232e-05 0)
(0.53158531 2.3691417e-05 0)
(0.75137029 4.6984141e-05 0)
(1.016824 8.3546296e-05 0)
(1.3125139 0.00012773746 0)
(1.6052051 0.00015293347 0)
(1.8460415 0.00012582038 0)
(1.9834196 4.8616515e-05 0)
(1.9834196 -4.8616433e-05 0)
(1.8460415 -0.0001258202 0)
(1.6052051 -0.00015293316 0)
(1.3125139 -0.00012773715 0)
(1.016824 -8.3546228e-05 0)
(0.75137029 -4.698447e-05 0)
(0.53158531 -2.3692058e-05 0)
(0.35962253 -1.0812959e-05 0)
(0.23031264 -4.3798108e-06 0)
(0.13574064 -1.4721168e-06 0)
(0.067901606 -3.4651998e-07 0)
(0.019889403 -4.9920506e-08 0)
(0.019886752 4.4699343e-08 0)
(0.067892685 3.1094348e-07 0)
(0.13572313 1.3208208e-06 0)
(0.23028375 3.9322127e-06 0)
(0.35957935 9.7158924e-06 0)
(0.53152592 2.131561e-05 0)
(0.75129648 4.2360283e-05 0)
(1.0167465 7.5619923e-05 0)
(1.3124581 0.00011654238 0)
(1.6052027 0.00014169877 0)
(1.8460982 0.00011827105 0)
(1.9835117 4.6031622e-05 0)
(1.9835117 -4.6031434e-05 0)
(1.8460982 -0.00011827075 0)
(1.6052027 -0.00014169834 0)
(1.3124581 -0.00011654199 0)
(1.0167465 -7.5619828e-05 0)
(0.75129648 -4.2360668e-05 0)
(0.53152592 -2.1316363e-05 0)
(0.35957935 -9.7166401e-06 0)
(0.23028375 -3.9326956e-06 0)
(0.13572313 -1.3212268e-06 0)
(0.067892685 -3.1082967e-07 0)
(0.019886752 -4.4782056e-08 0)
(0.019884362 4.0386751e-08 0)
(0.067884644 2.8103944e-07 0)
(0.13570735 1.1941587e-06 0)
(0.23025769 3.5564935e-06 0)
(0.35954035 8.7929088e-06 0)
(0.53147216 1.9310059e-05 0)
(0.75122934 3.8440208e-05 0)
(1.0166753 6.8839009e-05 0)
(1.3124053 0.00010678362 0)
(1.6051983 0.00013155238 0)
(1.8461504 0.00011132809 0)
(1.9835985 4.3631241e-05 0)
(1.9835985 -4.363096e-05 0)
(1.8461504 -0.00011132768 0)
(1.6051983 -0.00013155184 0)
(1.3124053 -0.00010678315 0)
(1.0166753 -6.8838906e-05 0)
(0.75122934 -3.8440666e-05 0)
(0.53147216 -1.9310937e-05 0)
(0.35954035 -8.793773e-06 0)
(0.23025769 -3.5570484e-06 0)
(0.13570735 -1.1946229e-06 0)
(0.067884643 -2.8090831e-07 0)
(0.019884362 -4.0481564e-08 0)
(0.019882195 3.6711672e-08 0)
(0.067877349 2.5553883e-07 0)
(0.13569303 1.0860813e-06 0)
(0.23023403 3.2356361e-06 0)
(0.3595049 8.0035984e-06 0)
(0.5314232 1.7590962e-05 0)
(0.75116796 3.5067281e-05 0)
(1.0166096 6.2964227e-05 0)
(1.3123553 9.8203317e-05 0)
(1.6051923 0.00012233373 0)
(1.8461982 0.00010491325 0)
(1.9836803 4.1390578e-05 0)
(1.9836803 -4.1390219e-05 0)
(1.8461982 -0.00010491276 0)
(1.6051923 -0.00012233312 0)
(1.3123553 -9.8202796e-05 0)
(1.0166096 -6.2964128e-05 0)
(0.75116797 -3.5067821e-05 0)
(0.5314232 -1.7591971e-05 0)
(0.3595049 -8.0045828e-06 0)
(0.23023403 -3.2362644e-06 0)
(0.13569303 -1.0866044e-06 0)
(0.067877348 -2.5539041e-07 0)
(0.019882195 -3.6818586e-08 0)
(0.019880219 3.3538973e-08 0)
(0.067870695 2.3351107e-07 0)
(0.13567996 9.9267578e-07 0)
(0.23021243 2.9581597e-06 0)
(0.35947252 7.3203109e-06 0)
(0.53137842 1.6100169e-05 0)
(0.75111164 3.2133062e-05 0)
(1.0165488 5.782348e-05 0)
(1.3123082 9.0602587e-05 0)
(1.6051852 0.00011395354 0)
(1.8462423 9.8956081e-05 0)
(1.9837576 3.9289087e-05 0)
(1.9837576 -3.9288666e-05 0)
(1.8462423 -9.8955517e-05 0)
(1.6051852 -0.00011395286 0)
(1.3123082 -9.0602018e-05 0)
(1.0165488 -5.7823392e-05 0)
(0.75111164 -3.2133687e-05 0)
(0.53137842 -1.610131e-05 0)
(0.35947252 -7.321415e-06 0)
(0.23021243 -2.9588607e-06 0)
(0.13567996 -9.9325652e-07 0)
(0.067870695 -2.3334561e-07 0)
(0.019880219 -3.3657734e-08 0)
(0.019878409 3.0774537e-08 0)
(0.0678646 2.1430696e-07 0)
(0.13566798 9.112052e-07 0)
(0.23019263 2.7159959e-06 0)
(0.35944282 6.7234456e-06 0)
(0.53133728 1.4796048e-05 0)
(0.75105976 2.9559746e-05 0)
(1.0164925 5.3292626e-05 0)
(1.3122638 8.3831696e-05 0)
(1.6051772 0.00010632418 0)
(1.846283 9.3403354e-05 0)
(1.9838307 3.7312569e-05 0)
(1.9838307 -3.7312095e-05 0)
(1.846283 -9.3402728e-05 0)
(1.6051772 -0.00010632343 0)
(1.3122638 -8.3831083e-05 0)
(1.0164925 -5.329255e-05 0)
(0.75105977 -2.9560456e-05 0)
(0.53133728 -1.4797319e-05 0)
(0.35944282 -6.7246658e-06 0)
(0.23019263 -2.7167668e-06 0)
(0.13566798 -9.1184116e-07 0)
(0.067864599 -2.1412499e-07 0)
(0.019878409 -3.090464e-08 0)
(0.019876745 2.8344547e-08 0)
(0.067858993 1.9741841e-07 0)
(0.13565697 8.3953062e-07 0)
(0.23017441 2.502844e-06 0)
(0.35941547 6.197679e-06 0)
(0.53129936 1.3645845e-05 0)
(0.75101183 2.7285381e-05 0)
(1.0164401 4.9271824e-05 0)
(1.3122219 7.7767832e-05 0)
(1.6051688 9.935626e-05 0)
(1.8463207 8.8213681e-05 0)
(1.9838998 3.5449651e-05 0)
(1.9838998 -3.544913e-05 0)
(1.8463207 -8.8212999e-05 0)
(1.6051688 -9.9355452e-05 0)
(1.3122219 -7.7767178e-05 0)
(1.0164401 -4.9271761e-05 0)
(0.75101183 -2.7286173e-05 0)
(0.53129936 -1.3647239e-05 0)
(0.35941547 -6.1990089e-06 0)
(0.23017441 -2.5036805e-06 0)
(0.13565697 -8.4021793e-07 0)
(0.067858993 -1.9722085e-07 0)
(0.019876745 -2.8485221e-08 0)
(0.019875208 2.6190948e-08 0)
(0.067853818 1.8244521e-07 0)
(0.1356468 7.7596535e-07 0)
(0.23015758 2.3137323e-06 0)
(0.3593902 5.7309106e-06 0)
(0.5312643 1.2623626e-05 0)
(0.75096742 2.5260435e-05 0)
(1.0163914 4.5679658e-05 0)
(1.3121824 7.2308203e-05 0)
(1.6051599 9.2973527e-05 0)
(1.8463555 8.3350454e-05 0)
(1.9839652 3.3689679e-05 0)
(1.9839652 -3.3689117e-05 0)
(1.8463555 -8.3349721e-05 0)
(1.6051599 -9.2972662e-05 0)
(1.3121824 -7.2307511e-05 0)
(1.0163914 -4.5679611e-05 0)
(0.75096742 -2.5261307e-05 0)
(0.5312643 -1.2625135e-05 0)
(0.3593902 -5.7323414e-06 0)
(0.23015758 -2.3146282e-06 0)
(0.1356468 -7.7669869e-07 0)
(0.067853817 -1.8223344e-07 0)
(0.019875208 -2.6341128e-08 0)
(0.019873786 2.4268531e-08 0)
(0.067849027 1.6907503e-07 0)
(0.13563738 7.1919062e-07 0)
(0.230142 2.1447655e-06 0)
(0.35936679 5.3136369e-06 0)
(0.53123178 1.1708967e-05 0)
(0.75092616 2.3445683e-05 0)
(1.016346 4.2450677e-05 0)
(1.3121452 6.7367775e-05 0)
(1.6051509 8.7107702e-05 0)
(1.8463878 7.8785335e-05 0)
(1.9840271 3.2024076e-05 0)
(1.9840271 -3.2023475e-05 0)
(1.8463878 -7.8784554e-05 0)
(1.6051509 -8.7106786e-05 0)
(1.3121452 -6.7367052e-05 0)
(1.016346 -4.2450647e-05 0)
(0.75092616 -2.344663e-05 0)
(0.53123178 -1.1710581e-05 0)
(0.35936679 -5.3151571e-06 0)
(0.230142 -2.145713e-06 0)
(0.13563738 -7.1996316e-07 0)
(0.067849027 -1.6885093e-07 0)
(0.019873786 -2.4426828e-08 0)
(0.019872467 2.2541708e-08 0)
(0.067844581 1.5706172e-07 0)
(0.13562864 6.6816602e-07 0)
(0.23012754 1.9928662e-06 0)
(0.35934505 4.9383352e-06 0)
(0.53120156 1.0885659e-05 0)
(0.75088776 2.1809902e-05 0)
(1.0163035 3.9532359e-05 0)
(1.31211 6.2876681e-05 0)
(1.6051418 8.1702279e-05 0)
(1.8464178 7.4492091e-05 0)
(1.9840857 3.0444698e-05 0)
(1.9840857 -3.0444063e-05 0)
(1.8464178 -7.4491267e-05 0)
(1.6051418 -8.1701319e-05 0)
(1.31211 -6.2875935e-05 0)
(1.0163035 -3.9532351e-05 0)
(0.75088776 -2.181092e-05 0)
(0.53120156 -1.0887364e-05 0)
(0.35934505 -4.9399305e-06 0)
(0.23012754 -1.9938557e-06 0)
(0.13562864 -6.6896925e-07 0)
(0.067844581 -1.568277e-07 0)
(0.019872467 -2.2706382e-08 0)
(0.01987124 2.0982002e-08 0)
(0.067840446 1.4620814e-07 0)
(0.13562051 6.2205791e-07 0)
(0.23011408 1.8555664e-06 0)
(0.35932481 4.5989614e-06 0)
(0.53117342 1.0140642e-05 0)
(0.75085195 2.0327838e-05 0)
(1.0162638 3.6882011e-05 0)
(1.3120768 5.8777208e-05 0)
(1.6051327 7.6706986e-05 0)
(1.8464458 7.0451606e-05 0)
(1.9841412 2.89455e-05 0)
(1.9841412 -2.8944837e-05 0)
(1.8464458 -7.0450745e-05 0)
(1.6051327 -7.6705993e-05 0)
(1.3120768 -5.8776449e-05 0)
(1.0162638 -3.6882029e-05 0)
(0.75085195 -2.0328918e-05 0)
(0.53117342 -1.0142421e-05 0)
(0.35932481 -4.6006137e-06 0)
(0.23011408 -1.856586e-06 0)
(0.13562051 -6.228814e-07 0)
(0.067840445 -1.4596717e-07 0)
(0.01987124 -2.115092e-08 0)
(0.019870096 1.9566385e-08 0)
(0.067836592 1.3635483e-07 0)
(0.13561293 5.8019145e-07 0)
(0.23010153 1.7308674e-06 0)
(0.35930594 4.2906173e-06 0)
(0.53114716 9.4633161e-06 0)
(0.75081849 1.8978932e-05 0)
(1.0162266 3.4464642e-05 0)
(1.3120455 5.5021224e-05 0)
(1.6051237 7.2081034e-05 0)
(1.8464718 6.6643106e-05 0)
(1.9841938 2.752005e-05 0)
(1.9841938 -2.7519365e-05 0)
(1.8464718 -6.6642217e-05 0)
(1.6051237 -7.2080019e-05 0)
(1.3120455 -5.5020463e-05 0)
(1.0162266 -3.446469e-05 0)
(0.75081849 -1.8980064e-05 0)
(0.53114716 -9.4651477e-06 0)
(0.35930594 -4.2923042e-06 0)
(0.23010153 -1.7319022e-06 0)
(0.13561293 -5.8102258e-07 0)
(0.067836592 -1.3611044e-07 0)
(0.019870096 -1.9736976e-08 0)
(0.019869029 1.8276014e-08 0)
(0.067832994 1.2737123e-07 0)
(0.13560586 5.4201402e-07 0)
(0.23008981 1.617131e-06 0)
(0.35928831 4.009283e-06 0)
(0.53112262 8.8449661e-06 0)
(0.75078719 1.7746235e-05 0)
(1.0161917 3.225131e-05 0)
(1.3120159 5.156853e-05 0)
(1.6051149 6.7786583e-05 0)
(1.846496 6.3053371e-05 0)
(1.9842436 2.6164317e-05 0)
(1.9842436 -2.6163616e-05 0)
(1.846496 -6.3052463e-05 0)
(1.6051149 -6.7785559e-05 0)
(1.3120159 -5.156778e-05 0)
(1.0161917 -3.225139e-05 0)
(0.75078719 -1.7747406e-05 0)
(0.53112262 -8.8468224e-06 0)
(0.35928831 -4.010977e-06 0)
(0.23008981 -1.6181631e-06 0)
(0.13560586 -5.4283763e-07 0)
(0.067832994 -1.271276e-07 0)
(0.019869029 -1.8445204e-08 0)
(0.019868031 1.7095359e-08 0)
(0.067829631 1.1914971e-07 0)
(0.13559924 5.0706976e-07 0)
(0.23007886 1.5130056e-06 0)
(0.35927183 3.751642e-06 0)
(0.53109965 8.2783991e-06 0)
(0.75075787 1.6615737e-05 0)
(1.0161589 3.0217927e-05 0)
(1.311988 4.8385096e-05 0)
(1.6051063 6.3794019e-05 0)
(1.8465187 5.9664203e-05 0)
(1.9842909 2.4872939e-05 0)
(1.9842909 -2.487223e-05 0)
(1.8465187 -5.9663288e-05 0)
(1.6051063 -6.3793002e-05 0)
(1.311988 -4.8384369e-05 0)
(1.0161589 -3.021804e-05 0)
(0.75075787 -1.6616927e-05 0)
(0.53109966 -8.2802462e-06 0)
(0.35927183 -3.7533098e-06 0)
(0.23007886 -1.5140135e-06 0)
(0.13559924 -5.0786773e-07 0)
(0.067829631 -1.1891175e-07 0)
(0.019868031 -1.7259497e-08 0)
(0.019867097 1.6011445e-08 0)
(0.067826482 1.1160035e-07 0)
(0.13559305 4.7497781e-07 0)
(0.2300686 1.4173614e-06 0)
(0.35925639 3.5149164e-06 0)
(0.53107814 7.7575754e-06 0)
(0.75073038 1.5575647e-05 0)
(1.0161281 2.8344238e-05 0)
(1.3119617 4.5442268e-05 0)
(1.6050979 6.0073829e-05 0)
(1.8465398 5.646716e-05 0)
(1.9843356 2.3643601e-05 0)
(1.9843356 -2.3642892e-05 0)
(1.8465398 -5.6466246e-05 0)
(1.6050979 -6.0072833e-05 0)
(1.3119617 -4.5441577e-05 0)
(1.0161281 -2.8344383e-05 0)
(0.75073038 -1.5576832e-05 0)
(0.53107814 -7.7593721e-06 0)
(0.35925639 -3.5165181e-06 0)
(0.2300686 -1.4183193e-06 0)
(0.13559305 -4.757287e-07 0)
(0.067826482 -1.1137385e-07 0)
(0.019867096 -1.6166214e-08 0)
(0.019866221 1.5013364e-08 0)
(0.067823531 1.046475e-07 0)
(0.13558724 4.4541755e-07 0)
(0.23005898 1.3292474e-06 0)
(0.35924191 3.296772e-06 0)
(0.53105796 7.2774268e-06 0)
(0.75070457 1.4616058e-05 0)
(1.0160992 2.6613054e-05 0)
(1.3119367 4.2715204e-05 0)
(1.6050897 5.6604342e-05 0)
(1.8465596 5.3444663e-05 0)
(1.984378 2.2471323e-05 0)
(1.984378 -2.2470621e-05 0)
(1.8465596 -5.3443761e-05 0)
(1.6050897 -5.6603383e-05 0)
(1.3119367 -4.2714564e-05 0)
(1.0160992 -2.6613229e-05 0)
(0.75070457 -1.461721e-05 0)
(0.53105796 -7.2791241e-06 0)
(0.35924191 -3.2982602e-06 0)
(0.23005898 -1.330125e-06 0)
(0.13558724 -4.460961e-07 0)
(0.06782353 -1.0443924e-07 0)
(0.019866221 -1.5153684e-08 0)
(0.0198654 1.4091855e-08 0)
(0.067820761 9.8226998e-08 0)
(0.1355818 4.1811726e-07 0)
(0.23004995 1.2478564e-06 0)
(0.35922832 3.0952202e-06 0)
(0.531039 6.8336168e-06 0)
(0.75068032 1.3728477e-05 0)
(1.0160719 2.5009742e-05 0)
(1.3119132 4.0183012e-05 0)
(1.6050818 5.3361626e-05 0)
(1.8465781 5.0592896e-05 0)
(1.9844182 2.1355352e-05 0)
(1.9844182 -2.1354663e-05 0)
(1.8465781 -5.0592021e-05 0)
(1.6050818 -5.3360723e-05 0)
(1.3119132 -4.0182439e-05 0)
(1.0160719 -2.5009945e-05 0)
(0.75068032 -1.3729563e-05 0)
(0.53103901 -6.8351572e-06 0)
(0.35922832 -3.0965394e-06 0)
(0.23004995 -1.2486181e-06 0)
(0.1355818 -4.1869393e-07 0)
(0.067820761 -9.8044954e-08 0)
(0.019865399 -1.4211786e-08 0)
(0.019864628 1.3238976e-08 0)
(0.067818161 9.2283662e-08 0)
(0.13557668 3.9284287e-07 0)
(0.23004148 1.1724948e-06 0)
(0.35921555 2.9085598e-06 0)
(0.5310212 6.4224533e-06 0)
(0.75065752 1.2905668e-05 0)
(1.0160463 2.35216e-05 0)
(1.3118909 3.7826874e-05 0)
(1.6050743 5.0329856e-05 0)
(1.8465955 4.789312e-05 0)
(1.9844563 2.0290377e-05 0)
(1.9844563 -2.0289709e-05 0)
(1.8465955 -4.7892289e-05 0)
(1.6050743 -5.0329034e-05 0)
(1.3118909 -3.7826388e-05 0)
(1.0160463 -2.3521829e-05 0)
(0.75065752 -1.2906648e-05 0)
(0.5310212 -6.42377e-06 0)
(0.35921555 -2.9096455e-06 0)
(0.23004148 -1.1730993e-06 0)
(0.13557668 -3.932834e-07 0)
(0.06781816 -9.2137145e-08 0)
(0.019864628 -1.3331609e-08 0)
(0.019863903 1.244795e-08 0)
(0.067815716 8.6770672e-08 0)
(0.13557187 3.6939606e-07 0)
(0.23003351 1.102572e-06 0)
(0.35920355 2.73533e-06 0)
(0.53100445 6.040735e-06 0)
(0.75063606 1.2141341e-05 0)
(1.0160221 2.2137822e-05 0)
(1.3118699 3.5631406e-05 0)
(1.6050669 4.7488991e-05 0)
(1.8466118 4.5346851e-05 0)
(1.9844924 1.9277354e-05 0)
(1.9844924 -1.9276717e-05 0)
(1.8466118 -4.5346084e-05 0)
(1.6050669 -4.7488278e-05 0)
(1.3118699 -3.5631033e-05 0)
(1.0160221 -2.2138075e-05 0)
(0.75063606 -1.2142171e-05 0)
(0.53100445 -6.0417509e-06 0)
(0.35920355 -2.7361077e-06 0)
(0.23003351 -1.1029717e-06 0)
(0.13557187 -3.6966103e-07 0)
(0.067815716 -8.6670488e-08 0)
(0.019863903 -1.2505321e-08 0)
(0.019863221 1.171277e-08 0)
(0.067813416 8.1646109e-08 0)
(0.13556735 3.4759887e-07 0)
(0.23002601 1.0375619e-06 0)
(0.35919225 2.5742465e-06 0)
(0.53098868 5.6856863e-06 0)
(0.75061585 1.1430042e-05 0)
(1.0159993 2.0848661e-05 0)
(1.31185 3.3581655e-05 0)
(1.6050599 4.4827507e-05 0)
(1.8466272 4.293218e-05 0)
(1.9845266 1.8309853e-05 0)
(1.9845266 -1.8309258e-05 0)
(1.8466272 -4.2931505e-05 0)
(1.6050599 -4.4826937e-05 0)
(1.31185 -3.3581423e-05 0)
(1.0159993 -2.0848937e-05 0)
(0.75061585 -1.1430671e-05 0)
(0.53098868 -5.6863132e-06 0)
(0.35919226 -2.5746313e-06 0)
(0.23002601 -1.0377026e-06 0)
(0.13556735 -3.4764337e-07 0)
(0.067813416 -8.1604684e-08 0)
(0.019863221 -1.1725782e-08 0)
(0.019862579 1.1028452e-08 0)
(0.067811252 7.6875812e-08 0)
(0.13556309 3.273067e-07 0)
(0.23001895 9.7703129e-07 0)
(0.35918162 2.424226e-06 0)
(0.53097384 5.3549069e-06 0)
(0.75059681 1.076704e-05 0)
(1.0159778 1.9646103e-05 0)
(1.3118312 3.1666544e-05 0)
(1.6050532 4.2328422e-05 0)
(1.8466415 4.0657528e-05 0)
(1.984559 1.7391055e-05 0)
(1.984559 -1.7390518e-05 0)
(1.8466415 -4.0656979e-05 0)
(1.6050532 -4.2328037e-05 0)
(1.3118312 -3.1666491e-05 0)
(1.0159778 -1.9646403e-05 0)
(0.75059681 -1.0767411e-05 0)
(0.53097384 -5.3550446e-06 0)
(0.35918162 -2.4241217e-06 0)
(0.23001895 -9.7685178e-07 0)
(0.13556309 -3.2708013e-07 0)
(0.067811252 -7.6907256e-08 0)
(0.019862579 -1.0986829e-08 0)
(0.019861974 1.0390205e-08 0)
(0.067809213 7.2425963e-08 0)
(0.13555907 3.0837557e-07 0)
(0.2300123 9.2055784e-07 0)
(0.3591716 2.2842526e-06 0)
(0.53095985 5.0462303e-06 0)
(0.75057886 1.014807e-05 0)
(1.0159575 1.852228e-05 0)
(1.3118134 2.9873265e-05 0)
(1.6050467 3.9982971e-05 0)
(1.8466551 3.8495182e-05 0)
(1.9845898 1.6512394e-05 0)
(1.9845898 -1.6511938e-05 0)
(1.8466551 -3.8494796e-05 0)
(1.6050467 -3.998282e-05 0)
(1.3118134 -2.9873432e-05 0)
(1.0159575 -1.8522603e-05 0)
(0.75057886 -1.0148118e-05 0)
(0.53095985 -5.0457663e-06 0)
(0.3591716 -2.2835513e-06 0)
(0.2300123 -9.1998974e-07 0)
(0.13555907 -3.0782157e-07 0)
(0.067809213 -7.2546058e-08 0)
(0.019861974 -1.0282486e-08 0)
(0.019861404 9.7945505e-09 0)
(0.067807291 6.8273395e-08 0)
(0.13555529 2.9070782e-07 0)
(0.23000603 8.6784293e-07 0)
(0.35916216 2.1535522e-06 0)
(0.53094666 4.757886e-06 0)
(0.75056194 9.5696238e-06 0)
(1.0159384 1.7471504e-05 0)
(1.3117965 2.8194769e-05 0)
(1.6050405 3.7777472e-05 0)
(1.8466677 3.6463181e-05 0)
(1.9846188 1.5680291e-05 0)
(1.9846188 -1.5679946e-05 0)
(1.8466678 -3.6462998e-05 0)
(1.6050405 -3.777761e-05 0)
(1.3117965 -2.8195202e-05 0)
(1.0159384 -1.7471849e-05 0)
(0.75056194 -9.5692751e-06 0)
(0.53094666 -4.7566953e-06 0)
(0.35916216 -2.152135e-06 0)
(0.23000603 -8.668112e-07 0)
(0.13555529 -2.8976467e-07 0)
(0.067807292 -6.8499697e-08 0)
(0.019861404 -9.6081211e-09 0)
(0.019860867 9.2372435e-09 0)
(0.067805479 6.4387277e-08 0)
(0.13555173 2.7417143e-07 0)
(0.23000012 8.1850692e-07 0)
(0.35915325 2.0312464e-06 0)
(0.53093421 4.4880703e-06 0)
(0.75054596 9.0281564e-06 0)
(1.0159203 1.6486836e-05 0)
(1.3117806 2.6618588e-05 0)
(1.6050346 3.5703688e-05 0)
(1.8466798 3.4524262e-05 0)
(1.9846465 1.488259e-05 0)
(1.9846465 -1.488239e-05 0)
(1.8466798 -3.4524329e-05 0)
(1.6050346 -3.5704177e-05 0)
(1.3117806 -2.6619336e-05 0)
(1.0159203 -1.6487201e-05 0)
(0.75054596 -9.0273293e-06 0)
(0.53093421 -4.4860148e-06 0)
(0.35915325 -2.0289832e-06 0)
(0.23000012 -8.1693007e-07 0)
(0.13555173 -2.7277267e-07 0)
(0.067805479 -6.4738796e-08 0)
(0.019860867 -8.9584825e-09 0)
(0.01986036 8.7165643e-09 0)
(0.06780377 6.0757925e-08 0)
(0.13554837 2.5872662e-07 0)
(0.22999455 7.724111e-07 0)
(0.35914485 1.9169023e-06 0)
(0.53092248 4.2356495e-06 0)
(0.75053089 8.5213646e-06 0)
(1.0159032 1.5565089e-05 0)
(1.3117655 2.5142628e-05 0)
(1.605029 3.3753267e-05 0)
(1.846691 3.2710454e-05 0)
(1.9846726 1.4130705e-05 0)
(1.9846726 -1.4130685e-05 0)
(1.846691 -3.2710819e-05 0)
(1.605029 -3.375417e-05 0)
(1.3117655 -2.5143745e-05 0)
(1.0159032 -1.5565468e-05 0)
(0.75053089 -8.5199672e-06 0)
(0.53092248 -4.2325787e-06 0)
(0.35914485 -1.9136529e-06 0)
(0.22999455 -7.7020186e-07 0)
(0.13554837 -2.5680217e-07 0)
(0.067803771 -6.1254396e-08 0)
(0.01986036 -8.3311859e-09 0)
(0.019859881 8.2277902e-09 0)
(0.067802156 5.7349275e-08 0)
(0.13554519 2.442178e-07 0)
(0.22998928 7.291246e-07 0)
(0.35913691 1.8095962e-06 0)
(0.53091139 3.9988848e-06 0)
(0.75051664 8.0458973e-06 0)
(1.0158871 1.4699061e-05 0)
(1.3117512 2.3752152e-05 0)
(1.6050236 3.1914488e-05 0)
(1.8467017 3.096949e-05 0)
(1.9846975 1.3406682e-05 0)
(1.9846975 -1.3406876e-05 0)
(1.8467017 -3.0970203e-05 0)
(1.6050236 -3.1915872e-05 0)
(1.3117512 -2.3753686e-05 0)
(1.0158871 -1.4699441e-05 0)
(0.75051664 -8.043828e-06 0)
(0.53091139 -3.9946395e-06 0)
(0.35913691 -1.8052154e-06 0)
(0.22998928 -7.2619365e-07 0)
(0.13554519 -2.4169662e-07 0)
(0.067802157 -5.8011002e-08 0)
(0.019859882 -7.7212458e-09 0)
(0.01985943 7.7724585e-09 0)
(0.067800634 5.4177254e-08 0)
(0.13554219 2.3071511e-07 0)
(0.22998431 6.8880329e-07 0)
(0.35912943 1.7094849e-06 0)
(0.53090093 3.7776479e-06 0)
(0.7505032 7.6012545e-06 0)
(1.0158719 1.3889449e-05 0)
(1.3117377 2.245322e-05 0)
(1.6050185 3.01898e-05 0)
(1.8467117 2.935438e-05 0)
(1.9847208 1.2729856e-05 0)
(1.9847208 -1.2730293e-05 0)
(1.8467117 -2.9355486e-05 0)
(1.6050185 -3.019172e-05 0)
(1.3117377 -2.2455207e-05 0)
(1.0158719 -1.38898e-05 0)
(0.7505032 -7.5983973e-06 0)
(0.53090093 -3.77206e-06 0)
(0.35912942 -1.703826e-06 0)
(0.22998431 -6.8506227e-07 0)
(0.13554219 -2.2752944e-07 0)
(0.067800635 -5.5023637e-08 0)
(0.01985943 -7.1307089e-09 0)
(0.019859002 7.3427105e-09 0)
(0.067799193 5.1179426e-08 0)
(0.13553936 2.1794903e-07 0)
(0.22997961 6.5073e-07 0)
(0.35912233 1.6151604e-06 0)
(0.53089102 3.569601e-06 0)
(0.75049046 7.1832131e-06 0)
(1.0158574 1.3126515e-05 0)
(1.3117249 2.1224051e-05 0)
(1.6050136 2.8556474e-05 0)
(1.8467212 2.7790048e-05 0)
(1.9847433 1.2073169e-05 0)
(1.9847433 -1.207387e-05 0)
(1.8467212 -2.7791581e-05 0)
(1.6050136 -2.8558975e-05 0)
(1.3117249 -2.1226514e-05 0)
(1.0158574 -1.3126794e-05 0)
(0.75049046 -7.1794393e-06 0)
(0.53089102 -3.562498e-06 0)
(0.35912233 -1.6080792e-06 0)
(0.22997961 -6.4609556e-07 0)
(0.13553936 -2.1403802e-07 0)
(0.067799194 -5.2228515e-08 0)
(0.019859003 -6.5528555e-09 0)
(0.0198586 6.9488451e-09 0)
(0.067797836 4.8439581e-08 0)
(0.13553669 2.0627806e-07 0)
(0.22997518 6.1582388e-07 0)
(0.35911566 1.5282727e-06 0)
(0.5308817 3.3770535e-06 0)
(0.75047849 6.7953689e-06 0)
(1.0158438 1.2419206e-05 0)
(1.3117128 2.0087026e-05 0)
(1.6050089 2.7040007e-05 0)
(1.84673 2.6361917e-05 0)
(1.9847642 1.146885e-05 0)
(1.9847642 -1.1469823e-05 0)
(1.84673 -2.636389e-05 0)
(1.605009 -2.7043101e-05 0)
(1.3117128 -2.0089949e-05 0)
(1.0158438 -1.2419336e-05 0)
(0.75047848 -6.7905385e-06 0)
(0.53088169 -3.3682747e-06 0)