/*--------------------------------*- C++ -*----------------------------------*\
| =========                 |                                                 |
| \\      /  F ield         | OpenFOAM: The Open Source CFD Toolbox           |
|  \\    /   O peration     | Version:  2406                                  |
|   \\  /    A nd           | Website:  www.openfoam.com                      |
|    \\/     M anipulation  |                                                 |
\*---------------------------------------------------------------------------*/
FoamFile
{
    version     2.0;
    format      ascii;
    arch        "LSB;label=32;scalar=64";
    class       volScalarField;
    location    "17";
    object      p;
}
// * * * * * * * * * * * * * * * * * * * * * * * * * * * * * * * * * * * * * //

dimensions      [0 2 -2 0 0 0 0];

internalField   nonuniform List<scalar> 
1176
(
0.79699982
0.79702269
0.79704636
0.79705402
0.79702249
0.7969278
0.79677057
0.7965844
0.7964052
0.79623805
0.79608342
0.79598782
0.79598781
0.79608342
0.79623803
0.79640516
0.79658433
0.79677045
0.7969276
0.7970222
0.7970536
0.7970458
0.79702202
0.79699907
0.77385139
0.77380443
0.77375667
0.77373978
0.77380228
0.77400464
0.77436996
0.77483436
0.77526522
0.77555132
0.77567072
0.77570498
0.77570498
0.77567073
0.77555135
0.77526527
0.77483443
0.77437004
0.77400473
0.77380239
0.77373992
0.77375685
0.77380464
0.77385162
0.75676664
0.75678865
0.75680844
0.75680653
0.75674747
0.7565863
0.75631453
0.75598658
0.75568037
0.75546757
0.75535677
0.75530795
0.75530795
0.75535677
0.75546758
0.75568037
0.75598658
0.75631452
0.75658628
0.75674745
0.75680652
0.75680843
0.75678863
0.75676663
0.74009474
0.74010387
0.74011593
0.74013233
0.74015487
0.74017244
0.74014021
0.7400068
0.73977468
0.73950212
0.73927791
0.73915741
0.73915741
0.73927792
0.73950213
0.7397747
0.74000681
0.74014021
0.74017245
0.74015487
0.74013232
0.74011592
0.74010385
0.74009472
0.72367569
0.72367965
0.72368464
0.7236907
0.7237004
0.72372068
0.72375686
0.72379837
0.72382004
0.72379617
0.72373405
0.72368141
0.72368141
0.72373405
0.72379617
0.72382004
0.72379837
0.72375686
0.72372068
0.72370041
0.72369072
0.72368466
0.72367967
0.72367572
0.70721404
0.70721645
0.7072197
0.70722374
0.70722865
0.70723548
0.70724965
0.70728096
0.70733095
0.7073882
0.70743091
0.70744756
0.70744756
0.70743091
0.7073882
0.70733095
0.70728096
0.70724965
0.70723548
0.70722865
0.70722374
0.7072197
0.70721645
0.70721404
0.69080823
0.69081037
0.69081318
0.6908166
0.6908205
0.69082401
0.69082608
0.69082826
0.6908368
0.69085403
0.69087193
0.69088365
0.69088365
0.69087193
0.69085403
0.6908368
0.69082825
0.69082608
0.69082401
0.6908205
0.6908166
0.69081317
0.69081036
0.69080822
0.67442836
0.67443012
0.67443245
0.67443537
0.67443904
0.67444341
0.67444786
0.67445102
0.67445225
0.67445387
0.67445092
0.67444841
0.67444841
0.67445092
0.67445387
0.67445225
0.67445102
0.67444786
0.67444341
0.67443904
0.67443536
0.67443244
0.67443011
0.67442836
0.65807408
0.65807553
0.65807746
0.65807987
0.65808289
0.65808667
0.65809172
0.65809877
0.65810745
0.65811748
0.65812525
0.65812883
0.65812883
0.65812525
0.65811748
0.65810745
0.65809877
0.65809172
0.65808667
0.65808289
0.65807987
0.65807746
0.65807553
0.65807407
0.64173639
0.64173759
0.6417392
0.64174123
0.6417438
0.64174697
0.64175113
0.64175752
0.64176768
0.64178082
0.64179515
0.64180445
0.64180445
0.64179515
0.64178082
0.64176768
0.64175753
0.64175113
0.64174697
0.64174379
0.64174123
0.64173919
0.64173759
0.64173638
0.625412
0.62541303
0.62541441
0.62541615
0.62541836
0.62542109
0.62542449
0.62542933
0.62543719
0.62544785
0.62546041
0.62546955
0.62546955
0.62546042
0.62544786
0.62543719
0.62542933
0.62542449
0.62542109
0.62541837
0.62541615
0.62541441
0.62541303
0.62541201
0.60909853
0.60909942
0.60910062
0.60910214
0.60910408
0.60910648
0.60910944
0.60911345
0.60911967
0.60912833
0.6091389
0.60914635
0.60914635
0.6091389
0.60912833
0.60911967
0.60911345
0.60910944
0.60910648
0.60910409
0.60910215
0.60910062
0.60909943
0.60909853
0.59279433
0.59279512
0.59279618
0.59279752
0.59279924
0.59280137
0.59280401
0.59280755
0.59281295
0.5928207
0.59283039
0.59283707
0.59283707
0.59283039
0.5928207
0.59281295
0.59280755
0.59280401
0.59280138
0.59279925
0.59279753
0.59279618
0.59279513
0.59279434
0.57649811
0.57649881
0.57649975
0.57650095
0.57650249
0.5765044
0.57650675
0.57650988
0.57651465
0.57652163
0.57653029
0.57653638
0.57653638
0.57653029
0.57652162
0.57651465
0.57650988
0.57650675
0.5765044
0.5765025
0.57650096
0.57649976
0.57649882
0.57649812
0.56020884
0.56020947
0.56021031
0.5602114
0.56021278
0.5602145
0.5602166
0.56021936
0.56022352
0.56022965
0.56023718
0.56024258
0.56024258
0.56023717
0.56022965
0.56022352
0.56021936
0.5602166
0.5602145
0.56021279
0.5602114
0.56021033
0.56020948
0.56020886
0.54392572
0.54392629
0.54392705
0.54392803
0.54392928
0.54393084
0.54393274
0.54393519
0.54393883
0.5439442
0.54395074
0.54395553
0.54395553
0.54395074
0.5439442
0.54393882
0.54393519
0.54393274
0.54393084
0.54392929
0.54392804
0.54392707
0.5439263
0.54392574
0.52764809
0.52764861
0.5276493
0.5276502
0.52765134
0.52765276
0.52765448
0.52765668
0.5276599
0.52766466
0.52767039
0.52767468
0.52767468
0.52767039
0.52766466
0.5276599
0.52765668
0.52765448
0.52765276
0.52765135
0.52765021
0.52764932
0.52764863
0.52764811
0.51137541
0.51137589
0.51137652
0.51137734
0.51137838
0.51137968
0.51138125
0.51138324
0.51138612
0.51139037
0.51139542
0.51139928
0.51139928
0.51139542
0.51139036
0.51138612
0.51138324
0.51138125
0.51137969
0.51137839
0.51137735
0.51137654
0.51137591
0.51137544
0.49510722
0.49510765
0.49510823
0.49510898
0.49510995
0.49511114
0.49511258
0.49511439
0.49511696
0.49512077
0.49512527
0.49512875
0.49512875
0.49512526
0.49512077
0.49511696
0.49511438
0.49511258
0.49511114
0.49510996
0.495109
0.49510826
0.49510768
0.49510725
0.47884311
0.47884351
0.47884404
0.47884473
0.47884562
0.47884672
0.47884805
0.47884969
0.47885202
0.47885544
0.47885948
0.47886263
0.47886263
0.47885947
0.47885544
0.47885201
0.47884969
0.47884805
0.47884673
0.47884563
0.47884475
0.47884407
0.47884353
0.47884314
0.46258273
0.4625831
0.4625836
0.46258424
0.46258506
0.46258608
0.4625873
0.46258881
0.46259091
0.46259401
0.46259766
0.46260053
0.46260053
0.46259766
0.46259401
0.46259091
0.46258881
0.4625873
0.46258608
0.46258507
0.46258426
0.46258363
0.46258314
0.46258277
0.4463258
0.44632614
0.4463266
0.4463272
0.44632796
0.4463289
0.44633003
0.44633142
0.44633334
0.44633615
0.44633947
0.44634208
0.44634208
0.44633947
0.44633615
0.44633333
0.44633142
0.44633003
0.44632891
0.44632797
0.44632722
0.44632663
0.44632618
0.44632584
0.43007203
0.43007235
0.43007278
0.43007333
0.43007404
0.43007492
0.43007597
0.43007725
0.430079
0.43008157
0.43008461
0.43008699
0.43008699
0.4300846
0.43008157
0.43007899
0.43007724
0.43007597
0.43007492
0.43007406
0.43007336
0.43007282
0.43007239
0.43007208
0.4138212
0.41382149
0.41382189
0.41382241
0.41382307
0.41382388
0.41382486
0.41382605
0.41382766
0.41383001
0.4138328
0.41383499
0.41383498
0.4138328
0.41383001
0.41382765
0.41382604
0.41382486
0.41382389
0.41382308
0.41382244
0.41382193
0.41382154
0.41382126
0.39757308
0.39757336
0.39757373
0.39757421
0.39757482
0.39757559
0.3975765
0.3975776
0.39757908
0.39758124
0.39758382
0.39758583
0.39758583
0.39758381
0.39758124
0.39757907
0.39757759
0.3975765
0.3975756
0.39757484
0.39757424
0.39757378
0.39757341
0.39757315
0.38132749
0.38132774
0.38132809
0.38132854
0.38132912
0.38132983
0.38133068
0.38133171
0.38133307
0.38133507
0.38133745
0.3813393
0.3813393
0.38133744
0.38133506
0.38133306
0.3813317
0.38133068
0.38132984
0.38132914
0.38132858
0.38132815
0.38132781
0.38132757
0.36508424
0.36508448
0.36508481
0.36508523
0.36508577
0.36508644
0.36508723
0.36508819
0.36508945
0.3650913
0.36509351
0.36509522
0.36509522
0.3650935
0.36509129
0.36508944
0.36508818
0.36508723
0.36508645
0.3650858
0.36508528
0.36508487
0.36508457
0.36508434
0.34884319
0.34884342
0.34884372
0.34884411
0.34884462
0.34884524
0.34884599
0.34884688
0.34884806
0.34884977
0.34885182
0.3488534
0.3488534
0.34885182
0.34884976
0.34884805
0.34884687
0.34884599
0.34884526
0.34884465
0.34884417
0.3488438
0.34884351
0.3488433
0.33260418
0.3326044
0.33260468
0.33260505
0.33260552
0.33260611
0.33260681
0.33260765
0.33260874
0.33261033
0.33261224
0.33261371
0.33261371
0.33261224
0.33261031
0.33260872
0.33260763
0.33260681
0.33260613
0.33260556
0.33260512
0.33260477
0.33260451
0.33260432
0.31636709
0.31636729
0.31636756
0.31636791
0.31636835
0.3163689
0.31636956
0.31637034
0.31637136
0.31637283
0.31637462
0.31637599
0.31637599
0.31637462
0.31637282
0.31637134
0.31637032
0.31636956
0.31636892
0.3163684
0.31636798
0.31636767
0.31636743
0.31636725
0.30013179
0.30013198
0.30013223
0.30013256
0.30013298
0.3001335
0.30013411
0.30013484
0.3001358
0.30013717
0.30013884
0.30014012
0.30014011
0.30013884
0.30013716
0.30013577
0.30013482
0.30013411
0.30013352
0.30013303
0.30013265
0.30013236
0.30013214
0.30013198
0.28389818
0.28389835
0.28389859
0.28389889
0.28389929
0.28389978
0.28390036
0.28390104
0.28390193
0.28390321
0.28390478
0.28390597
0.28390597
0.28390477
0.2839032
0.28390191
0.28390102
0.28390035
0.2838998
0.28389935
0.283899
0.28389874
0.28389854
0.28389839
0.26766614
0.2676663
0.26766652
0.26766681
0.26766718
0.26766764
0.26766819
0.26766883
0.26766967
0.26767086
0.26767233
0.26767344
0.26767344
0.26767233
0.26767084
0.26766964
0.2676688
0.26766818
0.26766767
0.26766726
0.26766694
0.2676667
0.26766652
0.26766638
0.25143558
0.25143573
0.25143594
0.25143621
0.25143656
0.25143699
0.25143751
0.25143811
0.2514389
0.25144001
0.25144139
0.25144243
0.25144243
0.25144138
0.25143999
0.25143886
0.25143808
0.2514375
0.25143703
0.25143665
0.25143636
0.25143614
0.25143598
0.25143586
0.23520641
0.23520655
0.23520675
0.23520701
0.23520734
0.23520774
0.23520823
0.2352088
0.23520953
0.23521058
0.23521188
0.23521285
0.23521285
0.23521187
0.23521055
0.23520949
0.23520876
0.23520822
0.23520778
0.23520744
0.23520717
0.23520698
0.23520684
0.23520673
0.21897855
0.21897869
0.21897888
0.21897912
0.21897943
0.21897981
0.21898027
0.2189808
0.21898149
0.21898247
0.21898369
0.2189846
0.2189846
0.21898368
0.21898244
0.21898144
0.21898076
0.21898026
0.21897986
0.21897954
0.2189793
0.21897914
0.21897901
0.21897892
0.20275193
0.20275206
0.20275223
0.20275246
0.20275275
0.20275311
0.20275354
0.20275405
0.2027547
0.20275562
0.20275677
0.20275763
0.20275763
0.20275676
0.20275558
0.20275464
0.202754
0.20275353
0.20275316
0.20275288
0.20275267
0.20275253
0.20275242
0.20275234
0.18652647
0.18652659
0.18652675
0.18652697
0.18652724
0.18652758
0.18652799
0.18652847
0.18652908
0.18652994
0.18653102
0.18653182
0.18653182
0.186531
0.18652989
0.18652901
0.18652841
0.18652798
0.18652764
0.18652739
0.1865272
0.18652708
0.18652699
0.18652693
0.1703021
0.17030221
0.17030237
0.17030257
0.17030283
0.17030315
0.17030353
0.17030398
0.17030456
0.17030537
0.17030639
0.17030715
0.17030715
0.17030637
0.17030532
0.17030448
0.17030392
0.17030352
0.17030321
0.17030299
0.17030283
0.17030273
0.17030266
0.17030261
0.15407876
0.15407887
0.15407902
0.15407921
0.15407946
0.15407976
0.15408012
0.15408054
0.15408108
0.15408184
0.15408279
0.1540835
0.1540835
0.15408277
0.15408178
0.154081
0.15408047
0.1540801
0.15407983
0.15407963
0.1540795
0.15407942
0.15407937
0.15407933
0.1378564
0.1378565
0.13785664
0.13785682
0.13785705
0.13785734
0.13785768
0.13785808
0.13785858
0.1378593
0.1378602
0.13786087
0.13786087
0.13786018
0.13785924
0.13785849
0.13785799
0.13785766
0.13785741
0.13785724
0.13785714
0.13785708
0.13785705
0.13785702
0.12163497
0.12163507
0.1216352
0.12163537
0.12163559
0.12163586
0.12163618
0.12163655
0.12163702
0.12163768
0.12163851
0.12163912
0.12163912
0.12163848
0.12163761
0.12163692
0.12163646
0.12163615
0.12163594
0.12163579
0.12163571
0.12163567
0.12163566
0.12163564
0.10541438
0.10541448
0.1054146
0.10541476
0.10541497
0.10541522
0.10541553
0.10541588
0.10541632
0.10541694
0.10541771
0.10541829
0.10541828
0.10541768
0.10541686
0.1054162
0.10541578
0.1054155
0.10541531
0.10541519
0.10541513
0.10541511
0.10541511
0.10541511
0.089194669
0.089194756
0.089194874
0.089195026
0.089195221
0.089195462
0.089195746
0.089196074
0.089196476
0.089197022
0.08919769
0.089198173
0.089198166
0.089197655
0.089196935
0.089196351
0.089195966
0.089195716
0.089195555
0.08919546
0.08919542
0.089195418
0.089195428
0.089195433
0.072975663
0.072975744
0.072975855
0.072975998
0.072976184
0.072976415
0.072976688
0.072976999
0.072977375
0.072977875
0.072978474
0.07297889
0.072978883
0.072978438
0.072977783
0.072977241
0.072976883
0.072976655
0.072976513
0.072976435
0.07297641
0.07297642
0.072976441
0.072976454
0.056757541
0.056757621
0.056757727
0.056757863
0.056758037
0.05675825
0.056758498
0.056758779
0.056759098
0.056759478
0.056759871
0.056760105
0.0567601
0.056759836
0.056759382
0.056758957
0.056758656
0.056758464
0.056758349
0.05675829
0.056758277
0.056758292
0.056758314
0.056758327
0.040539752
0.040539822
0.040539918
0.040540046
0.040540219
0.040540441
0.040540702
0.040540989
0.040541311
0.040541722
0.040542207
0.040542536
0.040542533
0.040542176
0.04054163
0.040541171
0.040540865
0.040540666
0.040540536
0.040540464
0.040540442
0.040540453
0.040540475
0.040540489
0.02432348
0.024323562
0.024323668
0.024323793
0.024323938
0.024324096
0.024324266
0.024324444
0.024324606
0.024324686
0.024324614
0.024324405
0.024324405
0.024324592
0.024324606
0.024324479
0.024324333
0.024324238
0.024324188
0.024324158
0.024324137
0.024324121
0.024324104
0.024324084
0.0081053791
0.0081054483
0.0081055397
0.0081056594
0.0081058184
0.008106016
0.0081062342
0.0081064704
0.0081068452
0.0081076812
0.008109168
0.0081105499
0.0081105527
0.0081091617
0.0081076396
0.0081067717
0.0081064043
0.0081062188
0.0081060737
0.0081059526
0.0081058644
0.0081058049
0.0081057608
0.0081057237
)
;

boundaryField
{
    INLET
    {
        type            zeroGradient;
    }
    OUTLET
    {
        type            fixedValue;
        value           uniform 0;
    }
    WALL
    {
        type            zeroGradient;
    }
    frontAndBackPlanes
    {
        type            empty;
    }
}


// ************************************************************************* //
