/*--------------------------------*- C++ -*----------------------------------*\
| =========                 |                                                 |
| \\      /  F ield         | OpenFOAM: The Open Source CFD Toolbox           |
|  \\    /   O peration     | Version:  2406                                  |
|   \\  /    A nd           | Website:  www.openfoam.com                      |
|    \\/     M anipulation  |                                                 |
\*---------------------------------------------------------------------------*/
FoamFile
{
    version     2.0;
    format      ascii;
    arch        "LSB;label=32;scalar=64";
    class       surfaceScalarField;
    location    "17";
    object      phi;
}
// * * * * * * * * * * * * * * * * * * * * * * * * * * * * * * * * * * * * * //

dimensions      [0 3 -1 0 0 0 0];

oriented        oriented;

internalField   nonuniform List<scalar> 
2279
(
2.3617469e-08
1.0148926e-05
2.0509761e-07
4.982375e-05
6.933176e-07
0.00014252872
1.5784716e-06
0.00034353082
2.6788479e-06
0.00075378089
3.3472918e-06
0.0015415573
3.0435206e-06
0.0029497096
2.1516847e-06
0.005249171
1.4318045e-06
0.008582269
9.8959319e-07
0.012685995
5.1266996e-07
0.016666385
5.9226995e-12
0.01918202
-5.1265367e-07
0.01918202
-9.8956232e-07
0.016666385
-1.4317446e-06
0.012685995
-2.151592e-06
0.008582269
-3.0433473e-06
0.0052491709
-3.3469388e-06
0.0029497095
-2.6782475e-06
0.0015415572
-1.5777188e-06
0.00075378076
-6.92609e-07
0.00034353073
-2.0461488e-07
0.00014252867
-2.3393773e-08
4.9823728e-05
1.0148921e-05
-9.5248503e-08
1.0244175e-05
-5.3794013e-07
5.0266441e-05
-1.6230012e-06
0.00014361378
-3.5389523e-06
0.00034544677
-5.9201862e-06
0.00075616213
-7.4055017e-06
0.0015430426
-6.5847261e-06
0.0029488888
-3.9361582e-06
0.0052465224
-1.3883871e-06
0.0085797213
-6.5116493e-08
0.012684671
2.4240927e-07
0.016666078
2.0379888e-13
0.019182263
-2.4241217e-07
0.019182263
6.5103015e-08
0.016666078
1.3883526e-06
0.012684671
3.9361182e-06
0.0085797213
6.5847004e-06
0.0052465225
7.4054753e-06
0.0029488889
5.9200992e-06
0.0015430427
3.5388001e-06
0.00075616216
1.6228396e-06
0.00034544679
5.3782752e-07
0.00014361379
9.5198695e-08
5.0266444e-05
1.0244176e-05
5.0139796e-08
1.0194035e-05
2.633449e-07
5.0053236e-05
7.4910708e-07
0.00014312802
1.5314584e-06
0.00034466442
2.336656e-06
0.00075535693
2.5476628e-06
0.0015428316
1.8390978e-06
0.0029495974
9.7567715e-07
0.0052473859
6.7696123e-07
0.00858002
6.7178946e-07
0.012684677
4.841659e-07
0.016666266
-2.1369081e-12
0.019182747
-4.841774e-07
0.019182747
-6.7181606e-07
0.016666266
-6.7700214e-07
0.012684677
-9.7569658e-07
0.00858002
-1.8390784e-06
0.0052473858
-2.5476278e-06
0.0029495974
-2.3366318e-06
0.0015428316
-1.5314495e-06
0.00075535693
-7.4911209e-07
0.00034466442
-2.6335552e-07
0.00014312802
-5.0147898e-08
5.0053237e-05
1.0194035e-05
1.9586667e-08
1.0174448e-05
1.1184916e-07
4.9960974e-05
3.6128421e-07
0.00014287858
9.0504787e-07
0.00034412066
1.8716604e-06
0.00075439032
3.0948246e-06
0.0015416085
3.8987259e-06
0.0029487935
3.7285579e-06
0.005247556
2.924214e-06
0.0085808243
1.9733784e-06
0.012685627
1.0127742e-06
0.016667226
9.9034692e-13
0.01918376
-1.012777e-06
0.01918376
-1.9733885e-06
0.016667226
-2.924219e-06
0.012685627
-3.7285467e-06
0.0085808243
-3.8987019e-06
0.005247556
-3.0947982e-06
0.0029487935
-1.8716301e-06
0.0015416085
-9.0501714e-07
0.00075439032
-3.6125574e-07
0.00034412066
-1.1182926e-07
0.00014287858
-1.9577102e-08
4.9960973e-05
1.0174448e-05
8.083991e-09
1.0166364e-05
4.714161e-08
4.9921916e-05
1.5494717e-07
0.00014277078
3.9846367e-07
0.00034387714
8.7979556e-07
0.00075390899
1.7015179e-06
0.0015407867
2.7512775e-06
0.0029477437
3.4623647e-06
0.0052468449
3.4708661e-06
0.0085808158
2.8006916e-06
0.012686298
1.5505202e-06
0.016668476
3.7336419e-12
0.01918531
-1.5505148e-06
0.01918531
-2.800689e-06
0.016668476
-3.4708648e-06
0.012686298
-3.4623617e-06
0.0085808158
-2.7512854e-06
0.0052468449
-1.701543e-06
0.0029477437
-8.7983157e-07
0.0015407867
-3.9849976e-07
0.00075390899
-1.5497552e-07
0.00034387714
-4.7158587e-08
0.00014277078
-8.0911453e-09
4.9921917e-05
1.0166365e-05
4.93599e-09
1.0161429e-05
2.8699137e-08
4.9898153e-05
9.512195e-08
0.00014270436
2.4921511e-07
0.00034372305
5.6361046e-07
0.00075359459
1.1213764e-06
0.001540229
1.9184595e-06
0.0029469467
2.6588232e-06
0.0052461046
2.8930625e-06
0.0085805816
2.4787706e-06
0.012686712
1.4344303e-06
0.016669521
3.3618165e-12
0.019186745
-1.4344238e-06
0.019186745
-2.4787638e-06
0.016669521
-2.8930553e-06
0.012686712
-2.6588215e-06
0.0085805816
-1.9184678e-06
0.0052461046
-1.1213892e-06
0.0029469467
-5.636226e-07
0.001540229
-2.492244e-07
0.00075359459
-9.5128347e-08
0.00034372305
-2.8702799e-08
0.00014270436
-4.9375934e-09
4.9898153e-05
1.0161429e-05
4.4124816e-09
1.0157016e-05
2.5525962e-08
4.987704e-05
8.3830615e-08
0.00014264605
2.1689483e-07
0.00034358999
4.8450193e-07
0.00075332698
9.563617e-07
0.0015397571
1.6413748e-06
0.0029462616
2.3245841e-06
0.0052454214
2.5939556e-06
0.0085803122
2.2393651e-06
0.012687066
1.3066747e-06
0.016670453
-3.6952665e-14
0.019188051
-1.3066742e-06
0.019188051
-2.2393631e-06
0.016670453
-2.5939532e-06
0.012687066
-2.3245877e-06
0.0085803122
-1.6413824e-06
0.0052454214
-9.5636759e-07
0.0029462616
-4.84503e-07
0.0015397571
-2.16892e-07
0.00075332698
-8.382651e-08
0.00034358998
-2.5522678e-08
0.00014264605
-4.4108302e-09
4.987704e-05
1.0157016e-05
3.6257233e-09
1.0153391e-05
2.1037e-08
4.9859629e-05
6.9438763e-08
0.00014259765
1.8114225e-07
0.00034347828
4.0971506e-07
0.00075309841
8.2390438e-07
0.0015393429
1.453993e-06
0.0029456316
2.1430766e-06
0.0052447323
2.4674745e-06
0.0085799878
2.1883944e-06
0.012687346
1.2866424e-06
0.016671355
-1.3588607e-12
0.019189338
-1.2866442e-06
0.019189338
-2.1883951e-06
0.016671355
-2.4674762e-06
0.012687346
-2.1430823e-06
0.0085799878
-1.4539987e-06
0.0052447323
-8.2390586e-07
0.0029456316
-4.0971209e-07
0.0015393429
-1.8113712e-07
0.00075309841
-6.9433888e-08
0.00034347828
-2.1033707e-08
0.00014259765
-3.6241873e-09
4.9859629e-05
1.0153391e-05
2.9834018e-09
1.0150408e-05
1.7347585e-08
4.9845265e-05
5.7378173e-08
0.00014255762
1.5007483e-07
0.00034338559
3.4097196e-07
0.00075290751
6.9193228e-07
0.001538992
1.2441092e-06
0.0029450794
1.9041869e-06
0.0052440722
2.3016018e-06
0.0085795904
2.0975087e-06
0.01268755
1.2520096e-06
0.016672201
-1.9556061e-12
0.01919059
-1.2520128e-06
0.01919059
-2.0975111e-06
0.016672201
-2.301605e-06
0.01268755
-1.9041909e-06
0.0085795904
-1.2441109e-06
0.0052440722
-6.9193006e-07
0.0029450794
-3.4096699e-07
0.001538992
-1.5006936e-07
0.00075290751
-5.7373848e-08
0.00034338558
-1.7344994e-08
0.00014255762
-2.98229e-09
4.9845265e-05
1.0150408e-05
2.4657116e-09
1.0147942e-05
1.4363725e-08
4.9833367e-05
4.7627377e-08
0.00014252436
1.2502964e-07
0.00034330818
2.8558968e-07
0.00075274695
5.8417987e-07
0.0015386934
1.0641849e-06
0.0029445994
1.6641591e-06
0.0052434722
2.0898762e-06
0.0085791647
1.9528956e-06
0.012687687
1.1802444e-06
0.016672973
-1.227577e-12
0.01919177
-1.1802463e-06
0.01919177
-1.9528967e-06
0.016672973
-2.0898775e-06
0.012687687
-1.6641601e-06
0.0085791647
-1.0641841e-06
0.0052434722
-5.8417731e-07
0.0029445994
-2.8558668e-07
0.0015386934
-1.2502732e-07
0.00075274695
-4.7626038e-08
0.00034330818
-1.4363188e-08
0.00014252436
-2.4655675e-09
4.9833367e-05
1.0147942e-05
2.1026616e-09
1.014584e-05
1.2258503e-08
4.9823212e-05
4.0688877e-08
0.00014249593
1.0699078e-07
0.00034324188
2.4507879e-07
0.00075260886
5.0385307e-07
0.0015384346
9.2623515e-07
0.002944177
1.4715126e-06
0.0052429269
1.8909107e-06
0.0085787453
1.8050246e-06
0.012687772
1.103691e-06
0.016673675
2.6033759e-13
0.019192874
-1.10369e-06
0.019192874
-1.805023e-06
0.016673675
-1.8909089e-06
0.012687772
-1.4715109e-06
0.0085787453
-9.2623334e-07
0.005242927
-5.0385227e-07
0.002944177
-2.4507975e-07
0.0015384346
-1.0699325e-07
0.00075260886
-4.0691773e-08
0.00034324188
-1.2260777e-08
0.00014249593
-2.1038221e-09
4.9823212e-05
1.014584e-05
1.8283272e-09
1.0144011e-05
1.0665669e-08
4.9814374e-05
3.5430489e-08
0.00014247116
9.3283045e-08
0.00034318403
2.1413892e-07
0.00075248801
4.4192716e-07
0.0015382068
8.1811356e-07
0.0029438008
1.3163819e-06
0.0052424287
1.7244965e-06
0.0085783372
1.6780457e-06
0.012687819
1.0378068e-06
0.016674315
1.7304249e-12
0.019193912
-1.037803e-06
0.019193912
-1.6780414e-06
0.016674315
-1.7244921e-06
0.012687819
-1.3163782e-06
0.0085783372
-8.1811176e-07
0.0052424287
-4.4192868e-07
0.0029438008
-2.1414393e-07
0.0015382068
-9.3290136e-08
0.00075248801
-3.5437401e-08
0.00034318403
-1.06706e-08
0.00014247116
-1.8307234e-09
4.9814374e-05
1.0144011e-05
1.6104746e-09
1.0142401e-05
9.3996091e-09
4.9806585e-05
3.1244253e-08
0.00014244932
8.2340032e-08
0.00034313293
1.8932007e-07
0.00075238103
3.9182233e-07
0.0015380043
7.2924129e-07
0.0029434634
1.1851467e-06
0.0052419728
1.578178e-06
0.0085779441
1.5623427e-06
0.012687835
9.7670127e-07
0.0166749
2.8314172e-12
0.019194888
-9.7669539e-07
0.019194888
-1.5623364e-06
0.0166749
-1.5781716e-06
0.012687835
-1.1851419e-06
0.0085779442
-7.2923998e-07
0.0052419728
-3.9182611e-07
0.0029434634
-1.8932866e-07
0.0015380043
-8.2351153e-08
0.00075238103
-3.1254681e-08
0.00034313293
-9.4068802e-09
0.00014244932
-1.6139651e-09
4.9806585e-05
1.0142401e-05
1.4322399e-09
1.0140969e-05
8.3628443e-09
4.9799654e-05
2.7812298e-08
0.00014242987
7.335229e-08
0.00034308739
1.6886814e-07
0.00075228551
3.5026742e-07
0.0015378229
6.5458294e-07
0.0029431591
1.0720603e-06
0.0052415553
1.446436e-06
0.0085775698
1.4548796e-06
0.012687826
9.1881297e-07
0.016675437
3.4390192e-12
0.019195807
-9.1880584e-07
0.019195807
-1.454872e-06
0.016675437
-1.4464284e-06
0.012687826
-1.0720549e-06
0.0085775698
-6.5458225e-07
0.0052415553
-3.5027315e-07
0.0029431591
-1.6887978e-07
0.0015378229
-7.3366898e-08
0.00075228551
-2.7825816e-08
0.00034308739
-8.3721967e-09
0.00014242987
-1.4367112e-09
4.9799655e-05
1.0140969e-05
1.2849164e-09
1.0139684e-05
7.5048937e-09
4.9793434e-05
2.4968538e-08
0.0001424124
6.5890708e-08
0.00034304647
1.5183761e-07
0.00075219957
3.1548507e-07
0.0015376593
5.9149682e-07
0.0029428831
9.7478804e-07
0.005241172
1.329707e-06
0.0085772149
1.3567902e-06
0.012687799
8.6525538e-07
0.016675928
3.5537855e-12
0.019196672
-8.6524791e-07
0.019196672
-1.356782e-06
0.016675928
-1.3296989e-06
0.012687799
-9.747825e-07
0.0085772149
-5.9149678e-07
0.005241172
-3.1549254e-07
0.0029428831
-1.5185198e-07
0.0015376593
-6.5908486e-08
0.00075219957
-2.4984896e-08
0.00034304647
-7.5161732e-09
0.0001424124
-1.2903e-09
4.9793434e-05
1.0139684e-05
1.1614174e-09
1.0138522e-05
6.7850597e-09
4.9787811e-05
2.2580234e-08
0.00014239661
5.9615125e-08
0.00034300944
1.3748086e-07
0.0007521217
2.8604661e-07
0.0015375107
5.3771137e-07
0.0029426314
8.9070698e-07
0.005240819
1.2263995e-06
0.0085768792
1.2674921e-06
0.012687758
8.1592958e-07
0.01667638
3.2638259e-12
0.019197488
-8.1592254e-07
0.019197488
-1.2674841e-06
0.01667638
-1.2263914e-06
0.012687758
-8.9070159e-07
0.0085768792
-5.3771205e-07
0.005240819
-2.8605579e-07
0.0029426314
-1.3749791e-07
0.0015375107
-5.9636031e-08
0.0007521217
-2.2599398e-08
0.00034300944
-6.798246e-09
0.00014239661
-1.1677041e-09
4.9787811e-05
1.0138522e-05
1.0561017e-09
1.0137466e-05
6.1708906e-09
4.9782696e-05
2.054121e-08
0.00014238224
5.425196e-08
0.00034297572
1.2519065e-07
0.00075205076
2.60768e-07
0.0015373751
4.9125199e-07
0.0029424009
8.1722571e-07
0.005240493
1.1341846e-06
0.0085765622
1.1857922e-06
0.012687707
7.7021681e-07
0.016676795
2.6682892e-12
0.019198259
-7.7021077e-07
0.019198259
-1.1857847e-06
0.016676795
-1.1341768e-06
0.012687707
-8.1722065e-07
0.0085765622
-4.912535e-07
0.005240493
-2.6077899e-07
0.0029424009
-1.2521051e-07
0.0015373751
-5.4276131e-08
0.00075205076
-2.0563301e-08
0.00034297573
-6.1860665e-09
0.00014238224
-1.0633305e-09
4.9782696e-05
1.0137466e-05
9.6512391e-10
1.0136501e-05
5.6401252e-09
4.9778021e-05
1.8778203e-08
0.0001423691
4.9611156e-08
0.00034294489
1.1454156e-07
0.00075198583
2.3881093e-07
0.0015372509
4.5070399e-07
0.002942189
7.5248277e-07
0.0052401913
1.0514999e-06
0.0085762632
1.110832e-06
0.012687647
7.2768955e-07
0.016677178
1.8605126e-12
0.019198986
-7.2768492e-07
0.019198986
-1.1108255e-06
0.016677178
-1.0514926e-06
0.012687647
-7.5247808e-07
0.0085762632
-4.5070637e-07
0.0052401913
-2.3882384e-07
0.002942189
-1.1456442e-07
0.0015372509
-4.963883e-08
0.00075198583
-1.8803442e-08
0.00034294489
-5.657444e-09
0.0001423691
-9.7336828e-10
4.9778021e-05
1.0136501e-05
8.8580255e-10
1.0135615e-05
5.1771968e-09
4.9773729e-05
1.7239827e-08
0.00014235704
4.5558843e-08
0.00034291657
1.0523212e-07
0.00075192616
2.1957629e-07
0.0015371365
4.1504189e-07
0.0029419936
6.9508843e-07
0.0052399112
9.7709316e-07
0.0085759812
1.0418665e-06
0.012687582
6.8800467e-07
0.016677532
9.18828e-13
0.019199674
-6.8800167e-07
0.019199674
-1.041861e-06
0.016677532
-9.7708644e-07
0.012687582
-6.9508409e-07
0.0085759812
-4.1504517e-07
0.0052399112
-2.1959125e-07
0.0029419936
-1.0525823e-07
0.0015371365
-4.5590338e-08
0.00075192616
-1.7268521e-08
0.00034291657
-5.1968758e-09
0.00014235704
-8.9516844e-10
4.9773729e-05
1.0135615e-05
8.1604337e-10
1.0134799e-05
4.769947e-09
4.9769776e-05
1.5885966e-08
0.00014234592
4.199051e-08
0.00034289047
9.7026645e-08
0.00075187112
2.025932e-07
0.0015370309
3.8344812e-07
0.0029418127
6.4389423e-07
0.0052396508
9.0984071e-07
0.0085757152
9.7823372e-07
0.012687514
6.508646e-07
0.01667786
-3.9566129e-14
0.019200325
-6.5086326e-07
0.019200325
-9.7822931e-07
0.01667786
-9.0983437e-07
0.012687514
-6.4389012e-07
0.0085757152
-3.8345227e-07
0.0052396508
-2.0261037e-07
0.0029418127
-9.7056328e-08
0.0015370309
-4.2026262e-08
0.00075187112
-1.5918538e-08
0.00034289047
-4.7922897e-09
0.00014234592
-8.26679e-10
4.9769776e-05
1.0134799e-05
7.5419736e-10
1.0134045e-05
4.4087917e-09
4.9766121e-05
1.4684962e-08
0.00014233564
3.8823546e-08
0.00034286633
8.973833e-08
0.00075182021
1.8748642e-07
0.0015369332
3.5526424e-07
0.0029416449
5.9795627e-07
0.0052394081
8.4878542e-07
0.0085754644
9.1936333e-07
0.012687443
6.1600756e-07
0.016678163
-9.6450848e-13
0.019200941
-6.1600778e-07
0.019200941
-9.1935977e-07
0.016678163
-8.4877923e-07
0.012687443
-5.9795219e-07
0.0085754644
-3.5526925e-07
0.0052394081
-1.8750601e-07
0.0029416449
-8.977206e-08
0.0015369332
-3.8864181e-08
0.00075182021
-1.4722013e-08
0.00034286633
-4.434224e-09
0.00014233565
-7.6630986e-10
4.9766121e-05
1.0134045e-05
6.989757e-10
1.0133346e-05
4.0862357e-09
4.9762734e-05
1.3612021e-08
0.00014232612
3.5993121e-08
0.00034284395
8.3220058e-08
0.00075177298
1.739588e-07
0.0015368425
3.2996372e-07
0.0029414889
5.5650473e-07
0.0052391815
7.9311694e-07
0.0085752278
8.6476383e-07
0.012687372
5.832276e-07
0.016678444
-1.7863489e-12
0.019201524
-5.8322918e-07
0.019201524
-8.6476085e-07
0.016678444
-7.9311059e-07
0.012687372
-5.5650048e-07
0.0085752278
-3.2996959e-07
0.0052391815
-1.7398117e-07
0.0029414889
-8.325853e-08
0.0015368425
-3.6039524e-08
0.00075177298
-1.3654387e-08
0.00034284395
-4.1153453e-09
0.00014232612
-7.1284893e-10
4.9762734e-05
1.0133346e-05
6.4936082e-10
1.0132697e-05
3.7963626e-09
4.9759587e-05
1.2647563e-08
0.00014231727
3.3447963e-08
0.00034282315
7.7355241e-08
0.00075172907
1.61774e-07
0.001536758
3.0712498e-07
0.0029413436
5.1891641e-07
0.0052389697
7.4216842e-07
0.0085750045
8.1400871e-07
0.0126873
5.5233766e-07
0.016678706
-2.4913215e-12
0.019202077
-5.5234032e-07
0.019202077
-8.1400597e-07
0.016678706
-7.4216158e-07
0.0126873
-5.1891177e-07
0.0085750046
-3.0713178e-07
0.0052389697
-1.6179965e-07
0.0029413436
-7.7399412e-08
0.001536758
-3.3501335e-08
0.00075172908
-1.2696363e-08
0.00034282315
-3.82993e-09
0.00014231727
-6.6536981e-10
4.9759587e-05
1.0132697e-05
6.0453675e-10
1.0132092e-05
3.5344297e-09
4.9756657e-05
1.1775881e-08
0.00014230903
3.1146909e-08
0.00034280378
7.2050102e-08
0.00075168817
1.5074127e-07
0.0015366793
2.8640562e-07
0.0029412079
4.8467815e-07
0.0052387715
6.9537583e-07
0.0085747938
7.6673799e-07
0.012687229
5.23199e-07
0.01667895
-3.0810165e-12
0.0192026
-5.2320245e-07
0.0192026
-7.6673516e-07
0.01667895
-6.9536815e-07
0.012687229
-4.8467289e-07
0.0085747939
-2.8641347e-07
0.0052387715
-1.5077089e-07
0.0029412079
-7.2101229e-08
0.0015366794
-3.1208803e-08
0.00075168817
-1.1832551e-08
0.00034280378
-3.5734481e-09
0.00014230903
-6.2315699e-10
4.9756657e-05
1.0132092e-05
5.6384332e-10
1.0131529e-05
3.2965981e-09
4.9753925e-05
1.098426e-08
0.00014230134
2.9056608e-08
0.00034278571
6.7228574e-08
0.00075165
1.4070556e-07
0.0015366059
2.6752621e-07
0.0029410811
4.5336848e-07
0.0052385856
6.5227026e-07
0.0085745949
7.2262975e-07
0.012687158
4.95668e-07
0.016679177
-3.5814121e-12
0.019203096
-4.9567202e-07
0.019203096
-7.226265e-07
0.016679177
-6.5226136e-07
0.012687158
-4.5336234e-07
0.0085745949
-2.6753529e-07
0.0052385856
-1.4074003e-07
0.0029410811
-6.7288225e-08
0.0015366059
-2.9128943e-08
0.00075165
-1.1050561e-08
0.00034278571
-3.3422831e-09
0.00014230134
-5.8565499e-10
4.9753925e-05
1.0131528e-05
5.2674051e-10
1.0131002e-05
3.0797253e-09
4.9751372e-05
1.0262281e-08
0.00014229416
2.7149709e-08
0.00034276882
6.2828182e-08
0.00075161432
1.3153921e-07
0.0015365372
2.5025542e-07
0.0029409624
4.2463381e-07
0.0052384112
6.1244752e-07
0.0085744071
6.814161e-07
0.012687089
4.6965064e-07
0.016679388
-4.0408911e-12
0.019203565
-4.6965509e-07
0.019203565
-6.8141213e-07
0.016679388
-6.1243699e-07
0.012687089
-4.2462652e-07
0.0085744071
-2.5026595e-07
0.0052384112
-1.3157959e-07
0.0029409624
-6.2898242e-08
0.0015365372
-2.7234772e-08
0.00075161432
-1.0340305e-08
0.00034276882
-3.1335138e-09
0.00014229416
-5.5242814e-10
4.9751372e-05
1.0131002e-05
4.9278394e-10
1.0130509e-05
2.8812209e-09
4.9748984e-05
9.6013519e-09
0.00014228744
2.5403646e-08
0.00034275302
5.879736e-08
0.00075158093
1.2313672e-07
0.0015364728
2.344018e-07
0.0029408511
3.9818117e-07
0.0052382475
5.7557107e-07
0.0085742297
6.4284482e-07
0.012687022
4.450255e-07
0.016679586
-4.5152563e-12
0.01920401
-4.4503033e-07
0.01920401
-6.4283986e-07
0.016679586
-5.755585e-07
0.012687022
-3.9817243e-07
0.0085742297
-2.3441408e-07
0.0052382475
-1.2318427e-07
0.0029408511
-5.8880022e-08
0.0015364728
-2.5504084e-08
0.00075158093
-9.6935054e-09
0.00034275302
-2.9447628e-09
0.00014228744
-5.2313221e-10
4.9748984e-05
1.0130509e-05
4.6160309e-10
1.0130048e-05
2.6989222e-09
4.9746747e-05
8.9942926e-09
0.00014228114
2.3799543e-08
0.00034273821
5.5092891e-08
0.00075154963
1.1540945e-07
0.0015364125
2.1980356e-07
0.0029407467
3.7375915e-07
0.0052380935
5.4134335e-07
0.0085740621
6.0671562e-07
0.012686957
4.2173297e-07
0.016679771
-5.0716707e-12
0.019204432
-4.2173821e-07
0.019204432
-6.0670944e-07
0.016679771
-5.4132828e-07
0.012686957
-3.7374865e-07
0.0085740622
-2.1981795e-07
0.0052380935
-1.1546563e-07
0.0029407467
-5.5190642e-08
0.0015364125
-2.3918334e-08
0.00075154964
-9.1032773e-09
0.00034273821
-2.7740643e-09
0.00014228114
-4.9748897e-10
4.9746747e-05
1.0130048e-05
4.328873e-10
1.0129615e-05
2.5310113e-09
4.9744649e-05
8.4350644e-09
0.00014227524
2.2321526e-08
0.00034272432
5.1678465e-08
0.00075152028
1.0828298e-07
0.0015363559
2.0632492e-07
0.0029406487
3.5115768e-07
0.0052379487
5.0951619e-07
0.0085739038
5.7282065e-07
0.012686893
3.996584e-07
0.016679944
-5.7719041e-12
0.019204832
-3.9966418e-07
0.019204832
-5.7281302e-07
0.016679944
-5.0949814e-07
0.012686893
-3.511451e-07
0.0085739038
-2.0634185e-07
0.0052379487
-1.0834939e-07
0.0029406487
-5.1794057e-08
0.0015363559
-2.2461949e-08
0.00075152028
-8.5638439e-09
0.00034272433
-2.6197749e-09
0.00014227524
-4.7526928e-10
4.9744649e-05
1.0129615e-05
4.0637356e-10
1.0129209e-05
2.3759481e-09
4.974268e-05
7.9185455e-09
0.0001422697
2.0956103e-08
0.00034271129
4.8523124e-08
0.00075149271
1.0169357e-07
0.0015363027
1.9384885e-07
0.0029405565
3.3019216e-07
0.0052378123
4.7986451e-07
0.0085737541
5.4101324e-07
0.012686832
3.7877394e-07
0.016680107
-6.6544778e-12
0.01920521
-3.7878046e-07
0.01920521
-5.4100396e-07
0.016680107
-4.7984296e-07
0.012686832
-3.3017713e-07
0.0085737541
-1.938688e-07
0.0052378123
-1.01772e-07
0.0029405565
-4.8659543e-08
0.0015363027
-2.1121695e-08
0.00075149271
-8.0703039e-09
0.00034271129
-2.4804997e-09
0.0001422697
-4.5627764e-10
4.9742679e-05
1.0129209e-05
3.8183687e-10
1.0128828e-05
2.2324092e-09
4.9740829e-05
7.4403341e-09
0.00014226449
1.9691703e-08
0.00034269904
4.5600403e-08
0.0007514668
9.5586938e-08
0.0015362527
1.8227592e-07
0.0029404698
3.1070738e-07
0.0052376839
4.5219985e-07
0.0085736126
5.1111015e-07
0.012686773
3.5895831e-07
0.016680259
-7.741252e-12
0.019205569
-3.589658e-07
0.019205569
-5.1109897e-07
0.016680259
-4.5217423e-07
0.012686773
-3.1068955e-07
0.0085736126
-1.8229941e-07
0.0052376839
-9.5679292e-08
0.0029404698
-4.5760824e-08
0.0015362527
-1.9886202e-08
0.0007514668
-7.6184243e-09
0.00034269904
-2.3550249e-09
0.00014226449
-4.403394e-10
4.9740829e-05
1.0128828e-05
3.5908587e-10
1.0128469e-05
2.099272e-09
4.973909e-05
6.9966905e-09
0.00014225959
1.8518445e-08
0.00034268752
4.2887534e-08
0.00075144243
8.9915994e-08
0.0015362057
1.7151911e-07
0.0029403882
2.9256438e-07
0.0052375629
4.2634939e-07
0.0085734788
4.8301358e-07
0.012686717
3.402194e-07
0.016680402
-9.0752965e-12
0.01920591
-3.4022809e-07
0.01920591
-4.8300023e-07
0.016680402
-4.2631906e-07
0.012686717
-2.9254336e-07
0.0085734788
-1.7154674e-07
0.0052375628
-9.0024293e-08
0.0029403882
-4.3075273e-08
0.0015362057
-1.8745728e-08
0.00075144244
-7.2045784e-09
0.00034268752
-2.2422989e-09
0.00014225959
-4.27295e-10
4.9739089e-05
1.0128469e-05
3.3795129e-10
1.0128131e-05
1.9755342e-09
4.9737453e-05
6.5842778e-09
0.00014225498
1.7427578e-08
0.00034267667
4.0364569e-08
0.00075141949
8.4639872e-08
0.0015361614
1.6150337e-07
0.0029403113
2.7564478e-07
0.0052374487
4.0216402e-07
0.0085733523
4.5654627e-07
0.012686662
3.2241461e-07
0.016680536
-1.0658931e-11
0.019206232
-3.2242475e-07
0.019206232
-4.5653045e-07
0.016680536
-4.0212833e-07
0.012686662
-2.7562018e-07
0.0085733523
-1.6153576e-07
0.0052374487
-8.4766206e-08
0.0029403113
-4.0583022e-08
0.0015361614
-1.7691592e-08
0.0007514195
-6.8254767e-09
0.00034267667
-2.1413453e-09
0.00014225498
-4.1698551e-10
4.9737452e-05
1.0128131e-05
3.1829298e-10
1.0127814e-05
1.8603766e-09
4.9735911e-05
6.2003612e-09
0.00014225064
1.6411822e-08
0.00034266646
3.8014568e-08
0.00075139789
7.972324e-08
0.0015361197
1.5216304e-07
0.0029402389
2.5984311e-07
0.005237341
3.7951312e-07
0.0085732326
4.3166355e-07
0.01268661
3.0559852e-07
0.016680662
-1.2469389e-11
0.019206538
-3.0561031e-07
0.019206538
-4.3164489e-07
0.016680662
-3.7947134e-07
0.01268661
-2.5981452e-07
0.0085732326
-1.5220083e-07
0.005237341
-7.9869728e-08
0.0029402389
-3.8267142e-08
0.0015361197
-1.67165e-08
0.0007513979
-6.4783569e-09
0.00034266646
-2.0513192e-09
0.00014225064
-4.0925663e-10
4.9735911e-05
1.0127813e-05
2.9997643e-10
1.0127514e-05
1.7529932e-09
4.9734459e-05
5.8422579e-09
0.00014224656
1.5464202e-08
0.00034265684
3.5821829e-08
0.00075137753
7.5134189e-08
0.0015360804
1.4343925e-07
0.0029401706
2.4506455e-07
0.0052372394
3.5826902e-07
0.0085731194
4.0817181e-07
0.01268656
2.8958778e-07
0.01668078
-1.4498905e-11
0.019206827
-2.896014e-07
0.019206827
-4.081499e-07
0.01668078
-3.582204e-07
0.01268656
-2.4503156e-07
0.0085731194
-1.4348309e-07
0.0052372394
-7.530293e-08
0.0029401706
-3.6111864e-08
0.0015360804
-1.5813372e-08
0.00075137754
-6.1604265e-09
0.00034265684
-1.9713331e-09
0.00014224656
-4.0393287e-10
4.9734458e-05
1.0127514e-05
2.8290428e-10
1.0127232e-05
1.6528261e-09
4.973309e-05
5.5080977e-09
0.0001422427
1.457962e-08
0.00034264777
3.377411e-08
0.00075135834
7.0846584e-08
0.0015360433
1.3528326e-07
0.0029401062
2.3123222e-07
0.0052371434
3.3834371e-07
0.0085730123
3.8609563e-07
0.012686512
2.7450383e-07
0.016680892
-1.6689064e-11
0.019207102
-2.7451934e-07
0.019207102
-3.8606995e-07
0.016680892
-3.3828743e-07
0.012686512
-2.3119439e-07
0.0085730123
-1.353338e-07
0.0052371434
-7.1039609e-08
0.0029401061
-3.4104804e-08
0.0015360433
-1.497692e-08
0.00075135835
-5.869631e-09
0.00034264777
-1.9006972e-09
0.0001422427
-4.0085209e-10
4.9733089e-05
1.0127232e-05
2.669577e-10
1.0126966e-05
1.5591446e-09
4.9731798e-05
5.195454e-09
0.00014223907
1.3751918e-08
0.00034263921
3.1858022e-08
0.00075134023
6.6833909e-08
0.0015360084
1.2764577e-07
0.0029400453
2.1826223e-07
0.0052370528
3.1960927e-07
0.0085729109
3.6519266e-07
0.012686467
2.6009434e-07
0.016680997
-1.899766e-11
0.019207362
-2.6011173e-07
0.019207362
-3.6516265e-07
0.016680997
-3.1954448e-07
0.012686467
-2.1821909e-07
0.0085729109
-1.2770356e-07
0.0052370528
-6.7053106e-08
0.0029400453
-3.2232329e-08
0.0015360084
-1.4200682e-08
0.00075134024
-5.6032594e-09
0.00034263922
-1.8384809e-09
0.00014223907
-3.9979835e-10
4.9731798e-05
1.0126965e-05
2.5208901e-10
1.0126714e-05
1.4717072e-09
4.973058e-05
4.9034961e-09
0.00014223564
1.2978496e-08
0.00034263114
3.0066317e-08
0.00075132314
6.307917e-08
0.0015359753
1.2049506e-07
0.0029399879
2.0611027e-07
0.0052369672
3.0203609e-07
0.008572815
3.4559173e-07
0.012686423
2.465813e-07
0.016681096
-2.1247631e-11
0.019207609
-2.4660041e-07
0.019207609
-3.455567e-07
0.016681096
-3.0196186e-07
0.012686423
-2.0606132e-07
0.008572815
-1.2056059e-07
0.0052369672
-6.3326186e-08
0.0029399879
-3.0486782e-08
0.0015359754
-1.3481549e-08
0.00075132316
-5.360002e-09
0.00034263114
-1.7841077e-09
0.00014223564
-4.0056191e-10
4.973058e-05
1.0126714e-05
2.3816685e-10
1.0126477e-05
1.389669e-09
4.9729429e-05
4.629435e-09
0.0001422324
1.2252607e-08
0.00034262352
2.838539e-08
0.00075130701
5.9557125e-08
0.0015359442
1.137836e-07
0.0029399337
1.9468605e-07
0.0052368863
2.854613e-07
0.0085727242
3.2695027e-07
0.012686382
2.3360095e-07
0.016681189
-2.3395662e-11
0.019207842
-2.3362158e-07
0.019207842
-3.2690948e-07
0.016681189
-2.8537665e-07
0.012686382
-1.9463074e-07
0.0085727242
-1.1385724e-07
0.0052368862
-5.9833345e-08
0.0029399337
-2.8854138e-08
0.0015359442
-1.2812271e-08
0.00075130702
-5.1366064e-09
0.00034262352
-1.7364078e-09
0.0001422324
-4.0285197e-10
4.9729429e-05
1.0126477e-05
2.2523475e-10
1.0126253e-05
1.3133822e-09
4.9728343e-05
4.3743713e-09
0.00014222934
1.1576108e-08
0.00034261632
2.6816259e-08
0.00075129177
5.6264675e-08
0.0015359147
1.0750531e-07
0.0029398824
1.8399871e-07
0.0052368098
2.6995894e-07
0.0085726383
3.0956942e-07
0.012686342
2.2153176e-07
0.016681277
-2.540972e-11
0.019208064
-2.2155334e-07
0.019208064
-3.0952193e-07
0.016681277
-2.6986283e-07
0.012686342
-1.8393646e-07
0.0085726382
-1.075873e-07
0.0052368097
-5.6571166e-08
0.0029398824
-2.7334878e-08
0.0015359147
-1.2194058e-08
0.00075129179
-4.9335837e-09
0.00034261632
-1.6953272e-09
0.00014222934
-4.065169e-10
4.9728343e-05
1.0126253e-05
2.130762e-10
1.0126042e-05
1.2414047e-09
4.9727316e-05
4.1335979e-09
0.00014222645
1.0938223e-08
0.00034260951
2.5339258e-08
0.00075127737
5.3169223e-08
0.0015358869
1.0159943e-07
0.002939834
1.7391829e-07
0.0052367375
2.552669e-07
0.0085725569
2.9292315e-07
0.012686304
2.0983595e-07
0.01668136
-2.7302999e-11
0.019208274
-2.0985789e-07
0.019208274
-2.9286799e-07
0.01668136
-2.5515826e-07
0.012686304
-1.7384842e-07
0.0085725569
-1.016897e-07
0.0052367374
-5.3506289e-08
0.002939834
-2.5908008e-08
0.0015358869
-1.1614451e-08
0.00075127739
-4.7446049e-09
0.00034260952
-1.6582925e-09
0.00014222645
-4.1080205e-10
4.9727317e-05
1.0126041e-05
2.019754e-10
1.0125841e-05
1.1756454e-09
4.9726345e-05
3.9132318e-09
0.00014222371
1.0352175e-08
0.00034260307
2.3975779e-08
0.00075126374
5.0300015e-08
0.0015358606
9.6116208e-08
0.0029397882
1.6456804e-07
0.005236669
2.4166954e-07
0.0085724798
2.7761422e-07
0.012686268
1.9914285e-07
0.016681439
-2.8803246e-11
0.019208473
-1.9916417e-07
0.019208473
-2.7755031e-07
0.016681439
-2.4154751e-07
0.012686268
-1.644901e-07
0.0085724797
-9.621457e-08
0.0052366689
-5.0667289e-08
0.0029397882
-2.459378e-08
0.0015358606
-1.1085323e-08
0.00075126377
-4.5745616e-09
0.00034260309
-1.6263559e-09
0.00014222372
-4.1556289e-10
4.9726345e-05
1.0125841e-05
1.9133214e-10
1.0125652e-05
1.112187e-09
4.9725427e-05
3.7006941e-09
0.00014222113
9.7898979e-09
0.00034259699
2.2677148e-08
0.00075125086
4.7583725e-08
0.0015358357
9.0932314e-08
0.0029397448
1.5569492e-07
0.0052366042
2.2867918e-07
0.0085724068
2.628098e-07
0.012686234
1.8865885e-07
0.016681513
-2.9937813e-11
0.019208662
-1.8867873e-07
0.019208662
-2.6273624e-07
0.016681513
-2.2854319e-07
0.012686234
-1.5560887e-07
0.0085724067
-9.103884e-08
0.0052366042
-4.7980744e-08
0.0029397448
-2.3343042e-08
0.0015358357
-1.057787e-08
0.00075125088
-4.4101151e-09
0.000342597
-1.5950143e-09
0.00014222113
-4.1988846e-10
4.9725427e-05
1.0125652e-05
1.8227907e-10
1.0125472e-05
1.058276e-09
4.9724553e-05
3.5190375e-09
0.00014221867
9.302529e-09
0.00034259121
2.1531311e-08
0.00075123863
4.5149742e-08
0.001535812
8.6253882e-08
0.0029397037
1.4769708e-07
0.0052365428
2.1702821e-07
0.0085723374
2.4966147e-07
0.012686202
1.7943437e-07
0.016681583
-3.0721924e-11
0.019208841
-1.7945184e-07
0.019208841
-2.4957702e-07
0.016681583
-2.1687775e-07
0.012686202
-1.4760351e-07
0.0085723374
-8.6369227e-08
0.0052365427
-4.5575441e-08
0.0029397037
-2.2241147e-08
0.0015358121
-1.0138951e-08
0.00075123866
-4.2697221e-09
0.00034259122
-1.5680778e-09
0.00014221867
-4.2323177e-10
4.9724555e-05
1.0125472e-05
1.7150693e-10
1.0125303e-05
9.9412823e-10
4.9723734e-05
3.3069475e-09
0.00014221636
8.7548333e-09
0.00034258576
2.0306399e-08
0.00075122708
4.2671832e-08
0.0015357897
8.1644616e-08
0.0029396647
1.399175e-07
0.0052364845
2.0569446e-07
0.0085722716
2.3671375e-07
0.012686171
1.7025342e-07
0.01668165
-3.1743083e-11
0.019209011
-1.7026847e-07
0.019209011
-2.3661764e-07
0.01668165
-2.0552893e-07
0.012686171
-1.3981689e-07
0.0085722716
-8.1768669e-08
0.0052364844
-4.3121563e-08
0.0029396647
-2.1048268e-08
0.0015357897
-9.6220168e-09
0.00075122711
-4.0806228e-09
0.00034258578
-1.5174743e-09
0.00014221637
-4.1828268e-10
4.9723736e-05
1.0125303e-05
1.669987e-10
1.0125139e-05
9.6689537e-10
4.9722938e-05
3.2089545e-09
0.00014221412