/*--------------------------------*- C++ -*----------------------------------*\
| =========                 |                                                 |
| \\      /  F ield         | OpenFOAM: The Open Source CFD Toolbox           |
|  \\    /   O peration     | Version:  2406                                  |
|   \\  /    A nd           | Website:  www.openfoam.com                      |
|    \\/     M anipulation  |                                                 |
\*---------------------------------------------------------------------------*/
FoamFile
{
    version     2.0;
    format      ascii;
    arch        "LSB;label=32;scalar=64";
    class       volVectorField;
    location    "17";
    object      U;
}
// * * * * * * * * * * * * * * * * * * * * * * * * * * * * * * * * * * * * * //

dimensions      [0 1 -1 0 0 0 0];

internalField   nonuniform List<vector> 
1176
(
(0.019493789 7.078628e-07 0)
(0.066677318 8.1696537e-06 0)
(0.13357994 3.9503158e-05 0)
(0.22724701 0.00010873576 0)
(0.35591522 0.00021176027 0)
(0.52772023 0.00030396288 0)
(0.74780387 0.00031818024 0)
(1.0136216 0.00024904592 0)
(1.3093323 0.00016666998 0)
(1.6017081 0.00011264683 0)
(1.8421723 7.02142e-05 0)
(1.9793239 2.3941122e-05 0)
(1.9793239 -2.3939777e-05 0)
(1.8421723 -7.0211927e-05 0)
(1.6017081 -0.00011264238 0)
(1.3093323 -0.00016666246 0)
(1.0136215 -0.00024903311 0)
(0.74780383 -0.00031815452 0)
(0.52772018 -0.0003039144 0)
(0.35591517 -0.00021169012 0)
(0.22724695 -0.00010866112 0)
(0.1335799 -3.9443471e-05 0)
(0.066677294 -8.1365471e-06 0)
(0.019493781 -7.0071104e-07 0)
(0.020187017 -3.7419191e-06 0)
(0.068813532 -2.4638644e-05 0)
(0.13732107 -9.6548559e-05 0)
(0.23247391 -0.0002483946 0)
(0.36204617 -0.0004726878 0)
(0.53373556 -0.00067421179 0)
(0.75267407 -0.00069486936 0)
(1.0170176 -0.00049687359 0)
(1.3116385 -0.0002334591 0)
(1.6034438 -4.9824326e-05 0)
(1.8436588 1.9764821e-05 0)
(1.9807026 1.3427759e-05 0)
(1.9807026 -1.342806e-05 0)
(1.8436588 -1.9765776e-05 0)
(1.6034438 4.9822228e-05 0)
(1.3116385 0.00023345584 0)
(1.0170177 0.00049687043 0)
(0.75267409 0.00069486697 0)
(0.53373557 0.00067420607 0)
(0.36204616 0.00047267507 0)
(0.23247389 0.00024837826 0)
(0.13732105 9.6534795e-05 0)
(0.068813519 2.463107e-05 0)
(0.020187012 3.7403995e-06 0)
(0.020018442 2.0918356e-06 0)
(0.068327405 1.2720768e-05 0)
(0.13655404 4.6877249e-05 0)
(0.23159544 0.00011389738 0)
(0.36138709 0.00019769269 0)
(0.53366969 0.00023903241 0)
(0.75344344 0.00020559824 0)
(1.0184881 0.00011361127 0)
(1.3134639 7.4313704e-05 0)
(1.6053464 7.9532978e-05 0)
(1.8455118 7.0516601e-05 0)
(1.9825245 2.7825604e-05 0)
(1.9825245 -2.7826156e-05 0)
(1.8455118 -7.0518293e-05 0)
(1.6053464 -7.9536295e-05 0)
(1.3134639 -7.431715e-05 0)
(1.0184881 -0.00011361231 0)
(0.75344343 -0.00020559411 0)
(0.53366968 -0.00023903001 0)
(0.36138708 -0.000197691 0)
(0.23159544 -0.0001138972 0)
(0.13655405 -4.6878186e-05 0)
(0.068327408 -1.2721719e-05 0)
(0.020018443 -2.0921197e-06 0)
(0.019966547 7.0076334e-07 0)
(0.068159231 4.6870416e-06 0)
(0.13624021 1.9355434e-05 0)
(0.2311194 5.6456168e-05 0)
(0.36078093 0.00013444568 0)
(0.53306293 0.00025829323 0)
(0.75295637 0.0003534475 0)
(1.0181104 0.00036912015 0)
(1.313184 0.00030758892 0)
(1.6051633 0.00022777267 0)
(1.8453995 0.00014555975 0)
(1.9824491 4.9997484e-05 0)
(1.9824491 -4.9997396e-05 0)
(1.8453995 -0.00014556032 0)
(1.6051633 -0.00022777388 0)
(1.313184 -0.00030758834 0)
(1.0181104 -0.00036911786 0)
(0.75295637 -0.00035344615 0)
(0.53306293 -0.00025828983 0)
(0.36078093 -0.00013444255 0)
(0.2311194 -5.6453205e-05 0)
(0.13624021 -1.9353002e-05 0)
(0.068159232 -4.6856498e-06 0)
(0.019966547 -7.0045425e-07 0)
(0.019942203 2.9077117e-07 0)
(0.068078703 1.9872151e-06 0)
(0.13608628 8.2361421e-06 0)
(0.23087699 2.3699368e-05 0)
(0.36044744 5.6881695e-05 0)
(0.53266448 0.00012306895 0)
(0.75256878 0.00022681829 0)
(1.017808 0.00032272234 0)
(1.3129044 0.00034572484 0)
(1.604912 0.00030730013 0)
(1.8452029 0.00021095358 0)
(1.9822898 7.4614991e-05 0)
(1.9822898 -7.4614285e-05 0)
(1.8452029 -0.00021095315 0)
(1.604912 -0.00030729988 0)
(1.3129044 -0.00034572505 0)
(1.017808 -0.00032272233 0)
(0.75256878 -0.00022682005 0)
(0.53266448 -0.00012307193 0)
(0.36044744 -5.6885406e-05 0)
(0.23087699 -2.3702632e-05 0)
(0.13608628 -8.2383661e-06 0)
(0.068078702 -1.9883298e-06 0)
(0.019942203 -2.9099859e-07 0)
(0.019933132 1.7181926e-07 0)
(0.068047755 1.1940961e-06 0)
(0.13602489 5.0652397e-06 0)
(0.23077535 1.4968924e-05 0)
(0.36029899 3.6219635e-05 0)
(0.5324792 7.6944353e-05 0)
(0.75239427 0.00014713784 0)
(1.0177222 0.00023749044 0)
(1.3129292 0.00028525617 0)
(1.6049746 0.00027441522 0)
(1.8452865 0.0001964466 0)
(1.9823834 7.1177406e-05 0)
(1.9823834 -7.1176661e-05 0)
(1.8452865 -0.0001964459 0)
(1.6049746 -0.00027441449 0)
(1.3129292 -0.00028525593 0)
(1.0177222 -0.00023749078 0)
(0.75239427 -0.00014713892 0)
(0.5324792 -7.6945598e-05 0)
(0.36029899 -3.6220695e-05 0)
(0.23077535 -1.4969689e-05 0)
(0.13602489 -5.0657283e-06 0)
(0.068047756 -1.1943418e-06 0)
(0.019933132 -1.7187237e-07 0)
(0.0199234 1.5588001e-07 0)
(0.068015507 1.0700961e-06 0)
(0.13596286 4.4935048e-06 0)
(0.23067607 1.3195523e-05 0)
(0.36015773 3.1857202e-05 0)
(0.53230178 6.6958311e-05 0)
(0.75221429 0.00012411896 0)
(1.0176105 0.00019917063 0)
(1.3129358 0.00025490864 0)
(1.6050904 0.00024595197 0)
(1.8454579 0.0001812792 0)
(1.9825798 6.654867e-05 0)
(1.9825798 -6.6548567e-05 0)
(1.8454579 -0.0001812791 0)
(1.6050904 -0.0002459518 0)
(1.3129358 -0.0002549087 0)
(1.0176105 -0.00019917117 0)
(0.75221429 -0.00012411966 0)
(0.53230178 -6.6958651e-05 0)
(0.36015773 -3.1857081e-05 0)
(0.23067607 -1.3195148e-05 0)
(0.13596286 -4.4931234e-06 0)
(0.068015507 -1.0698613e-06 0)
(0.0199234 -1.558273e-07 0)
(0.019915697 1.2759248e-07 0)
(0.067989792 8.780454e-07 0)
(0.13591293 3.6960542e-06 0)
(0.23059503 1.0901675e-05 0)
(0.36003987 2.661342e-05 0)
(0.53214753 5.7237166e-05 0)
(0.75204133 0.0001091105 0)
(1.0174723 0.00017936632 0)
(1.3128926 0.0002380249 0)
(1.6051414 0.00023746771 0)
(1.8455877 0.00017750691 0)
(1.9827514 6.5539423e-05 0)
(1.9827514 -6.5539592e-05 0)
(1.8455877 -0.00017750706 0)
(1.6051414 -0.00023746784 0)
(1.3128926 -0.00023802523 0)
(1.0174723 -0.00017936688 0)
(0.75204133 -0.00010911087 0)
(0.53214753 -5.7237075e-05 0)
(0.36003987 -2.6612986e-05 0)
(0.23059503 -1.0901161e-05 0)
(0.13591293 -3.6956447e-06 0)
(0.067989792 -8.7781782e-07 0)
(0.019915697 -1.2754292e-07 0)
(0.019909217 1.0466709e-07 0)
(0.067968141 7.2317696e-07 0)
(0.13587084 3.0521782e-06 0)
(0.23052654 9.0119271e-06 0)
(0.35993984 2.199997e-05 0)
(0.53201542 4.7473487e-05 0)
(0.75188901 9.2014068e-05 0)
(1.0173341 0.0001561819 0)
(1.3128278 0.00021699684 0)
(1.6051595 0.00022709637 0)
(1.8456699 0.00017232636 0)
(1.982868 6.4147637e-05 0)
(1.982868 -6.4147938e-05 0)
(1.8456699 -0.00017232665 0)
(1.6051595 -0.00022709667 0)
(1.3128278 -0.00021699715 0)
(1.0173341 -0.0001561822 0)
(0.75188901 -9.2014052e-05 0)
(0.53201542 -4.7473112e-05 0)
(0.35993984 -2.1999427e-05 0)
(0.23052654 -9.0114328e-06 0)
(0.13587084 -3.0518383e-06 0)
(0.067968141 -7.2300435e-07 0)
(0.019909217 -1.0463126e-07 0)
(0.019903971 8.6136273e-08 0)
(0.067950552 5.9700522e-07 0)
(0.13583649 2.5274548e-06 0)
(0.2304703 7.4917118e-06 0)
(0.35985692 1.837639e-05 0)
(0.53190436 3.9835745e-05 0)
(0.75175836 7.7712184e-05 0)
(1.0172122 0.00013432441 0)
(1.3127613 0.00019323384 0)
(1.6051772 0.00021058364 0)
(1.8457533 0.00016272982 0)
(1.9829863 6.1084232e-05 0)
(1.9829863 -6.1084417e-05 0)
(1.8457533 -0.00016272997 0)
(1.6051772 -0.00021058376 0)
(1.3127613 -0.00019323393 0)
(1.0172122 -0.00013432444 0)
(0.75175836 -7.7712025e-05 0)
(0.53190436 -3.9835461e-05 0)
(0.35985692 -1.8376119e-05 0)
(0.2304703 -7.4915322e-06 0)
(0.13583649 -2.5273676e-06 0)
(0.067950552 -5.9697458e-07 0)
(0.019903971 -8.613152e-08 0)
(0.019899543 7.3363785e-08 0)
(0.067935688 5.0899308e-07 0)
(0.13580742 2.1569426e-06 0)
(0.23042259 6.4028288e-06 0)
(0.35978626 1.5747646e-05 0)
(0.5318089 3.4277853e-05 0)
(0.75164409 6.7204627e-05 0)
(1.0171021 0.00011723002 0)
(1.3126976 0.00017262484 0)
(1.6051928 0.0001930893 0)
(1.8458371 0.00015219887 0)
(1.9831061 5.754489e-05 0)
(1.9831061 -5.7544808e-05 0)
(1.8458371 -0.00015219874 0)
(1.6051928 -0.00019308913 0)
(1.3126976 -0.00017262466 0)
(1.0171021 -0.00011722987 0)
(0.75164409 -6.7204506e-05 0)
(0.5318089 -3.4277865e-05 0)
(0.35978626 -1.574783e-05 0)
(0.23042259 -6.4031086e-06 0)
(0.13580742 -2.1572067e-06 0)
(0.067935688 -5.0915562e-07 0)
(0.019899543 -7.340099e-08 0)
(0.019895721 6.3730226e-08 0)
(0.06792285 4.4253399e-07 0)
(0.13578228 1.8767578e-06 0)
(0.23038125 5.5765458e-06 0)
(0.35972483 1.3738686e-05 0)
(0.53172535 2.9997994e-05 0)
(0.75154264 5.9111561e-05 0)
(1.0170011 0.00010388827 0)
(1.3126344 0.00015540303 0)
(1.6052015 0.0001784956 0)
(1.8459125 0.00014271586 0)
(1.9832185 5.4330832e-05 0)
(1.9832185 -5.433048e-05 0)
(1.8459125 -0.00014271547 0)
(1.6052015 -0.00017849516 0)
(1.3126345 -0.00015540264 0)
(1.0170011 -0.00010388802 0)
(0.75154264 -5.9111555e-05 0)
(0.53172535 -2.9998335e-05 0)
(0.35972483 -1.3739319e-05 0)
(0.23038125 -5.5772633e-06 0)
(0.13578228 -1.8773545e-06 0)
(0.06792285 -4.4287925e-07 0)
(0.019895721 -6.3807213e-08 0)
(0.019892371 5.6089585e-08 0)
(0.067911586 3.8977436e-07 0)
(0.13576021 1.6541153e-06 0)
(0.2303449 4.9187455e-06 0)
(0.35967069 1.2131978e-05 0)
(0.53165136 2.6542397e-05 0)
(0.7514519 5.2498758e-05 0)
(1.0169086 9.287576e-05 0)
(1.3125728 0.00014061511 0)
(1.605205 0.00016529654 0)
(1.8459798 0.00013398966 0)
(1.9833221 5.1387761e-05 0)
(1.9833221 -5.1387202e-05 0)
(1.8459798 -0.00013398907 0)
(1.605205 -0.00016529591 0)
(1.3125728 -0.00014061458 0)
(1.0169086 -9.2875477e-05 0)
(0.7514519 -5.2498889e-05 0)
(0.53165136 -2.6543038e-05 0)
(0.35967069 -1.2133004e-05 0)
(0.2303449 -4.9198454e-06 0)
(0.13576021 -1.655004e-06 0)
(0.067911586 -3.9028091e-07 0)
(0.019892371 -5.6201791e-08 0)
(0.019889403 4.9846427e-08 0)
(0.067901607 3.4660477e-07 0)
(0.13574064 1.4717388e-06 0)
(0.23031264 4.3793519e-06 0)
(0.35962253 1.0812262e-05 0)
(0.53158531 2.369136e-05 0)
(0.75137029 4.6984118e-05 0)
(1.016824 8.3546357e-05 0)
(1.3125139 0.00012773766 0)
(1.6052051 0.00015293382 0)
(1.8460415 0.00012582077 0)
(1.9834196 4.8616858e-05 0)
(1.9834196 -4.8616182e-05 0)
(1.8460415 -0.00012582006 0)
(1.6052051 -0.00015293307 0)
(1.3125139 -0.00012773705 0)
(1.016824 -8.3546076e-05 0)
(0.75137029 -4.6984377e-05 0)
(0.53158531 -2.3692257e-05 0)
(0.35962253 -1.0813625e-05 0)
(0.23031264 -4.3807854e-06 0)
(0.13574064 -1.4728858e-06 0)
(0.067901607 -3.4725521e-07 0)
(0.019889403 -4.9990181e-08 0)
(0.019886752 4.4695819e-08 0)
(0.067892685 3.1092902e-07 0)
(0.13572313 1.32079e-06 0)
(0.23028375 3.9321677e-06 0)
(0.35957935 9.7158372e-06 0)
(0.53152592 2.1315557e-05 0)
(0.75129648 4.2360254e-05 0)
(1.0167465 7.5619952e-05 0)
(1.3124581 0.00011654252 0)
(1.6052027 0.00014169904 0)
(1.8460982 0.00011827138 0)
(1.9835117 4.6031919e-05 0)
(1.9835117 -4.6031216e-05 0)
(1.8460982 -0.00011827062 0)
(1.6052027 -0.00014169824 0)
(1.3124581 -0.00011654187 0)
(1.0167465 -7.5619695e-05 0)
(0.75129648 -4.2360631e-05 0)
(0.53152592 -2.1316682e-05 0)
(0.35957935 -9.7175056e-06 0)
(0.23028375 -3.9339061e-06 0)
(0.13572313 -1.3221753e-06 0)
(0.067892685 -3.1171294e-07 0)
(0.019886752 -4.486891e-08 0)
(0.019884362 4.0383808e-08 0)
(0.067884644 2.8102694e-07 0)
(0.13570735 1.194133e-06 0)
(0.23025769 3.5564572e-06 0)
(0.35954035 8.7928655e-06 0)
(0.53147216 1.9310017e-05 0)
(0.75122934 3.8440177e-05 0)
(1.0166753 6.8839006e-05 0)
(1.3124053 0.00010678368 0)
(1.6051983 0.00013155254 0)
(1.8461504 0.00011132832 0)
(1.9835985 4.3631458e-05 0)
(1.9835985 -4.3630805e-05 0)
(1.8461504 -0.00011132759 0)
(1.6051983 -0.00013155176 0)
(1.3124053 -0.00010678304 0)
(1.0166753 -6.8838793e-05 0)
(0.75122934 -3.8440673e-05 0)
(0.53147216 -1.9311365e-05 0)
(0.35954035 -8.7948337e-06 0)
(0.23025769 -3.5584967e-06 0)
(0.13570735 -1.1957539e-06 0)
(0.067884644 -2.8194293e-07 0)
(0.019884362 -4.0585928e-08 0)
(0.019882195 3.6709581e-08 0)
(0.067877349 2.555299e-07 0)
(0.13569303 1.0860631e-06 0)
(0.23023403 3.2356106e-06 0)
(0.3595049 8.0035677e-06 0)
(0.5314232 1.759093e-05 0)
(0.75116796 3.5067246e-05 0)
(1.0166096 6.296419e-05 0)
(1.3123553 9.8203305e-05 0)
(1.6051923 0.00012233378 0)
(1.8461982 0.00010491337 0)
(1.9836803 4.1390693e-05 0)
(1.9836803 -4.1390146e-05 0)
(1.8461982 -0.00010491271 0)
(1.6051923 -0.00012233306 0)
(1.3123553 -9.8202708e-05 0)
(1.0166096 -6.2964033e-05 0)
(0.75116797 -3.5067869e-05 0)
(0.5314232 -1.7592511e-05 0)
(0.3595049 -8.0058488e-06 0)
(0.23023403 -3.2379643e-06 0)
(0.13569303 -1.0879298e-06 0)
(0.067877349 -2.5658363e-07 0)
(0.019882195 -3.6941966e-08 0)
(0.019880219 3.3537646e-08 0)
(0.067870695 2.3350576e-07 0)
(0.13567996 9.9266434e-07 0)
(0.23021243 2.9581436e-06 0)
(0.35947252 7.3202897e-06 0)
(0.53137842 1.6100141e-05 0)
(0.75111164 3.2133017e-05 0)
(1.0165488 5.7823407e-05 0)
(1.3123082 9.0602498e-05 0)
(1.6051852 0.00011395348 0)
(1.8462423 9.8956073e-05 0)
(1.9837576 3.9289087e-05 0)
(1.9837576 -3.9288686e-05 0)
(1.8462423 -9.8955535e-05 0)
(1.6051852 -0.00011395284 0)
(1.3123082 -9.0601953e-05 0)
(1.0165488 -5.782331e-05 0)
(0.75111164 -3.2133775e-05 0)
(0.53137842 -1.6101971e-05 0)
(0.35947252 -7.3229059e-06 0)
(0.23021243 -2.9608348e-06 0)
(0.13567996 -9.9479556e-07 0)
(0.067870696 -2.3470791e-07 0)
(0.019880219 -3.3802653e-08 0)
(0.019878409 3.0773843e-08 0)
(0.0678646 2.143051e-07 0)
(0.13566798 9.1119967e-07 0)
(0.23019263 2.7159874e-06 0)
(0.35944282 6.7234308e-06 0)
(0.53133728 1.4796019e-05 0)
(0.75105977 2.9559686e-05 0)
(1.0164925 5.3292513e-05 0)
(1.3122638 8.3831531e-05 0)
(1.6051772 0.00010632401 0)
(1.846283 9.3403217e-05 0)
(1.9838307 3.7312447e-05 0)
(1.9838307 -3.7312214e-05 0)
(1.846283 -9.3402814e-05 0)
(1.6051772 -0.00010632345 0)
(1.3122638 -8.3831037e-05 0)
(1.0164925 -5.3292476e-05 0)
(0.75105977 -2.9560586e-05 0)
(0.53133728 -1.4798119e-05 0)
(0.35944282 -6.7264115e-06 0)
(0.23019263 -2.7190479e-06 0)
(0.13566798 -9.1362176e-07 0)
(0.0678646 -2.1567091e-07 0)
(0.019878409 -3.1074874e-08 0)
(0.019876745 2.8344452e-08 0)
(0.067858993 1.9742015e-07 0)
(0.13565697 8.3953085e-07 0)
(0.23017441 2.5028428e-06 0)
(0.35941547 6.1976691e-06 0)
(0.53129936 1.3645813e-05 0)
(0.75101183 2.7285303e-05 0)
(1.0164401 4.9271671e-05 0)
(1.3122219 7.7767597e-05 0)
(1.6051688 9.9355984e-05 0)
(1.8463207 8.8213417e-05 0)
(1.9838998 3.5449406e-05 0)
(1.9838998 -3.5449348e-05 0)
(1.8463207 -8.8213153e-05 0)
(1.6051688 -9.9355512e-05 0)
(1.3122219 -7.7767139e-05 0)
(1.0164401 -4.9271686e-05 0)
(0.75101183 -2.7286352e-05 0)
(0.53129936 -1.3648205e-05 0)
(0.35941547 -6.201054e-06 0)
(0.23017441 -2.5063166e-06 0)
(0.13565697 -8.4228049e-07 0)
(0.067858993 -1.9897092e-07 0)
(0.019876745 -2.8686271e-08 0)
(0.019875209 2.6191507e-08 0)
(0.067853818 1.82451e-07 0)
(0.1356468 7.7597182e-07 0)
(0.23015758 2.3137387e-06 0)
(0.3593902 5.7309053e-06 0)
(0.5312643 1.2623589e-05 0)
(0.75096742 2.5260338e-05 0)
(1.0163914 4.5679468e-05 0)
(1.3121824 7.2307905e-05 0)
(1.6051599 9.2973157e-05 0)
(1.8463555 8.3350072e-05 0)
(1.9839652 3.3689318e-05 0)
(1.9839652 -3.3689427e-05 0)
(1.8463555 -8.3349933e-05 0)
(1.6051599 -9.2972743e-05 0)
(1.3121824 -7.2307461e-05 0)
(1.0163914 -4.5679525e-05 0)
(0.75096742 -2.5261546e-05 0)
(0.5312643 -1.2626311e-05 0)
(0.3593902 -5.7347517e-06 0)
(0.23015759 -2.3176885e-06 0)
(0.1356468 -7.7910068e-07 0)
(0.067853818 -1.8421657e-07 0)
(0.019875209 -2.6580776e-08 0)
(0.019873787 2.4269818e-08 0)
(0.067849027 1.6908536e-07 0)
(0.13563738 7.1920394e-07 0)
(0.230142 2.1447801e-06 0)
(0.35936679 5.3136364e-06 0)
(0.53123178 1.1708925e-05 0)
(0.75092616 2.3445567e-05 0)
(1.016346 4.2450451e-05 0)
(1.3121452 6.7367422e-05 0)
(1.6051509 8.7107249e-05 0)
(1.8463878 7.8784848e-05 0)
(1.9840271 3.2023611e-05 0)
(1.9840271 -3.2023866e-05 0)
(1.8463878 -7.8784811e-05 0)
(1.6051509 -8.7106866e-05 0)
(1.3121452 -6.7366967e-05 0)
(1.016346 -4.2450542e-05 0)
(0.75092616 -2.3446954e-05 0)
(0.53123178 -1.171203e-05 0)
(0.35936679 -5.3180263e-06 0)
(0.230142 -2.1492938e-06 0)
(0.13563738 -7.2278359e-07 0)
(0.067849027 -1.7110676e-07 0)
(0.019873787 -2.4715666e-08 0)
(0.019872467 2.254376e-08 0)
(0.067844581 1.5707686e-07 0)
(0.13562864 6.6818654e-07 0)
(0.23012754 1.9928894e-06 0)
(0.35934505 4.9383398e-06 0)
(0.53120156 1.0885613e-05 0)
(0.75088776 2.1809769e-05 0)
(1.0163035 3.9532103e-05 0)
(1.31211 6.2876281e-05 0)
(1.6051418 8.1701758e-05 0)
(1.8464178 7.4491512e-05 0)
(1.9840857 3.0444143e-05 0)
(1.9840857 -3.0444519e-05 0)
(1.8464179 -7.449155e-05 0)
(1.6051418 -8.1701373e-05 0)
(1.31211 -6.2875791e-05 0)
(1.0163035 -3.9532221e-05 0)
(0.75088776 -2.1811363e-05 0)
(0.53120156 -1.0889176e-05 0)
(0.35934505 -4.9433852e-06 0)
(0.23012754 -1.9980853e-06 0)
(0.13562864 -6.7231236e-07 0)
(0.067844581 -1.5940848e-07 0)
(0.019872467 -2.3058245e-08 0)
(0.01987124 2.0984795e-08 0)
(0.067840446 1.4622809e-07 0)
(0.13562051 6.220855e-07 0)
(0.23011408 1.8555983e-06 0)
(0.35932481 4.5989714e-06 0)
(0.53117342 1.0140592e-05 0)
(0.75085195 2.0327689e-05 0)
(1.0162638 3.6881727e-05 0)
(1.3120768 5.8776767e-05 0)
(1.6051327 7.6706407e-05 0)
(1.8464458 7.045095e-05 0)
(1.9841412 2.894487e-05 0)
(1.9841412 -2.8945342e-05 0)
(1.8464458 -7.045103e-05 0)
(1.6051327 -7.6705987e-05 0)
(1.3120768 -5.8776215e-05 0)
(1.0162638 -3.6881869e-05 0)
(0.75085195 -2.032953e-05 0)
(0.53117342 -1.0144713e-05 0)
(0.35932481 -4.6048176e-06 0)
(0.23011408 -1.8616283e-06 0)
(0.13562051 -6.2687921e-07 0)
(0.067840446 -1.4893903e-07 0)
(0.01987124 -2.1583201e-08 0)
(0.019870096 1.9569844e-08 0)
(0.067836592 1.3637934e-07 0)
(0.13561293 5.8022561e-07 0)
(0.23010153 1.7309073e-06 0)
(0.35930594 4.2906325e-06 0)
(0.53114716 9.4632644e-06 0)
(0.75081849 1.897877e-05 0)
(1.0162266 3.4464335e-05 0)
(1.3120455 5.5020748e-05 0)
(1.6051237 7.2080404e-05 0)
(1.8464718 6.6642382e-05 0)
(1.9841938 2.7519355e-05 0)
(1.9841938 -2.7519904e-05 0)
(1.8464718 -6.6642479e-05 0)
(1.6051237 -7.2079917e-05 0)
(1.3120455 -5.5020105e-05 0)
(1.0162266 -3.4464497e-05 0)
(0.75081849 -1.898091e-05 0)
(0.53114716 -9.4680672e-06 0)
(0.35930594 -4.2974602e-06 0)
(0.23010153 -1.7379589e-06 0)
(0.13561293 -5.8583643e-07 0)
(0.067836592 -1.3955405e-07 0)
(0.019870096 -2.0270819e-08 0)
(0.019869029 1.8280041e-08 0)
(0.067832995 1.2739995e-07 0)
(0.13560586 5.4205409e-07 0)
(0.23008981 1.6171783e-06 0)
(0.35928832 4.0093033e-06 0)
(0.53112262 8.8449128e-06 0)
(0.75078719 1.7746063e-05 0)
(1.0161917 3.2250981e-05 0)
(1.312016 5.1568021e-05 0)
(1.6051149 6.7785904e-05 0)
(1.846496 6.3052582e-05 0)
(1.9842437 2.6163562e-05 0)
(1.9842437 -2.6164177e-05 0)
(1.846496 -6.3052674e-05 0)
(1.6051149 -6.7785318e-05 0)
(1.312016 -5.1567259e-05 0)
(1.0161917 -3.2251165e-05 0)
(0.75078719 -1.7748566e-05 0)
(0.53112262 -8.850549e-06 0)
(0.35928832 -4.0173283e-06 0)
(0.23008981 -1.6254741e-06 0)
(0.13560586 -5.486587e-07 0)
(0.067832995 -1.3113817e-07 0)
(0.019869029 -1.9105581e-08 0)
(0.019868031 1.7099865e-08 0)
(0.067829631 1.1918228e-07 0)
(0.13559924 5.0711512e-07 0)
(0.23007886 1.5130599e-06 0)
(0.35927183 3.7516672e-06 0)
(0.53109966 8.278345e-06 0)
(0.75075788 1.6615555e-05 0)
(1.0161589 3.0217578e-05 0)
(1.311988 4.8384552e-05 0)
(1.6051063 6.3793288e-05 0)
(1.8465187 5.9663346e-05 0)
(1.9842909 2.4872125e-05 0)
(1.9842909 -2.4872804e-05 0)
(1.8465187 -5.9663419e-05 0)
(1.6051063 -6.3792574e-05 0)
(1.311988 -4.8383639e-05 0)
(1.0161589 -3.0217784e-05 0)
(0.75075788 -1.6618498e-05 0)
(0.53109966 -8.2849908e-06 0)
(0.35927183 -3.7611399e-06 0)
(0.23007886 -1.5228568e-06 0)
(0.13559924 -5.1491666e-07 0)
(0.067829631 -1.2359848e-07 0)
(0.019868031 -1.8075183e-08 0)
(0.019867097 1.6016377e-08 0)
(0.067826482 1.1163657e-07 0)
(0.13559305 4.7502818e-07 0)
(0.2300686 1.4174224e-06 0)
(0.35925639 3.5149468e-06 0)
(0.53107814 7.7575208e-06 0)
(0.75073038 1.5575454e-05 0)
(1.0161281 2.8343866e-05 0)
(1.3119617 4.5441683e-05 0)
(1.6050979 6.0073035e-05 0)
(1.8465398 5.6466221e-05 0)
(1.9843356 2.3642717e-05 0)
(1.9843356 -2.3643473e-05 0)
(1.8465398 -5.6466267e-05 0)
(1.6050979 -6.0072164e-05 0)
(1.3119617 -4.5440588e-05 0)
(1.0161281 -2.8344097e-05 0)
(0.75073038 -1.5578926e-05 0)
(0.53107814 -7.7653766e-06 0)
(0.35925639 -3.5261497e-06 0)
(0.2300686 -1.4290091e-06 0)
(0.13559305 -4.8425424e-07 0)
(0.067826482 -1.1685879e-07 0)
(0.019867097 -1.7169648e-08 0)
(0.019866221 1.5018726e-08 0)
(0.067823531 1.0468741e-07 0)
(0.13558724 4.4547309e-07 0)
(0.23005898 1.3293154e-06 0)
(0.35924191 3.2968081e-06 0)
(0.53105796 7.2773721e-06 0)
(0.75070457 1.4615855e-05 0)
(1.0160992 2.6612656e-05 0)
(1.3119367 4.2714571e-05 0)
(1.6050897 5.660347e-05 0)
(1.8465596 5.3443623e-05 0)
(1.984378 2.2470355e-05 0)
(1.984378 -2.2471207e-05 0)
(1.8465596 -5.344364e-05 0)
(1.6050897 -5.6602413e-05 0)
(1.3119367 -4.2713257e-05 0)
(1.0160992 -2.6612917e-05 0)
(0.75070457 -1.4619955e-05 0)
(0.53105796 -7.2866608e-06 0)
(0.35924191 -3.310053e-06 0)
(0.23005898 -1.3430093e-06 0)
(0.13558724 -4.5637304e-07 0)
(0.067823531 -1.1085569e-07 0)
(0.019866221 -1.6380743e-08 0)
(0.0198654 1.4097729e-08 0)
(0.067820762 9.8270982e-08 0)
(0.1355818 4.1817876e-07 0)
(0.23004996 1.2479328e-06 0)
(0.35922832 3.0952634e-06 0)
(0.53103901 6.8335628e-06 0)
(0.75068032 1.3728263e-05 0)
(1.0160719 2.5009314e-05 0)
(1.3119132 4.018232e-05 0)
(1.6050818 5.3360658e-05 0)
(1.8465781 5.0591732e-05 0)
(1.9844182 2.1354279e-05 0)
(1.9844182 -2.1355255e-05 0)
(1.8465781 -5.0591722e-05 0)
(1.6050819 -5.3359384e-05 0)
(1.3119132 -4.018075e-05 0)
(1.0160719 -2.5009612e-05 0)
(0.75068032 -1.3733102e-05 0)
(0.53103901 -6.8445272e-06 0)
(0.35922832 -3.1108873e-06 0)
(0.23004996 -1.264075e-06 0)
(0.1355818 -4.3102017e-07 0)
(0.067820762 -1.0553534e-07 0)
(0.019865399 -1.5701449e-08 0)
(0.019864628 1.3245527e-08 0)
(0.067818161 9.2332481e-08 0)
(0.13557668 3.9291188e-07 0)
(0.23004148 1.1725817e-06 0)
(0.35921556 2.9086124e-06 0)
(0.5310212 6.4224016e-06 0)
(0.75065752 1.2905442e-05 0)
(1.0160463 2.3521137e-05 0)
(1.3118909 3.7826111e-05 0)
(1.6050743 5.0328772e-05 0)
(1.8465955 4.7891803e-05 0)
(1.9844563 2.0289174e-05 0)
(1.9844563 -2.0290308e-05 0)
(1.8465955 -4.789177e-05 0)
(1.6050743 -5.0327248e-05 0)
(1.3118909 -3.7824244e-05 0)
(1.0160463 -2.352148e-05 0)
(0.75065752 -1.2911138e-05 0)
(0.5310212 -6.4353007e-06 0)
(0.35921556 -2.9269726e-06 0)
(0.23004148 -1.1915323e-06 0)
(0.13557668 -4.0797613e-07 0)
(0.067818161 -1.0085042e-07 0)
(0.019864628 -1.5125521e-08 0)
(0.019863903 1.245544e-08 0)
(0.067815717 8.6825502e-08 0)
(0.13557187 3.694749e-07 0)
(0.23003351 1.1026727e-06 0)
(0.35920355 2.7353957e-06 0)
(0.53100445 6.0406883e-06 0)
(0.75063606 1.2141103e-05 0)
(1.0160221 2.2137319e-05 0)
(1.3118699 3.5630562e-05 0)
(1.6050669 4.7487769e-05 0)
(1.8466118 4.5345351e-05 0)
(1.9844924 1.9275993e-05 0)
(1.9844924 -1.9277322e-05 0)
(1.8466118 -4.5345298e-05 0)
(1.6050669 -4.7485959e-05 0)
(1.3118699 -3.5628353e-05 0)
(1.0160221 -2.2137717e-05 0)
(0.75063606 -1.2147785e-05 0)
(0.53100445 -6.0557938e-06 0)
(0.35920355 -2.7568635e-06 0)
(0.23003351 -1.1248045e-06 0)
(0.13557187 -3.8705246e-07 0)
(0.067815716 -9.6759288e-08 0)
(0.019863903 -1.4647288e-08 0)
(0.019863221 1.1721554e-08 0)
(0.067813417 8.1708546e-08 0)
(0.13556735 3.4769073e-07 0)
(0.23002601 1.0376809e-06 0)
(0.35919226 2.5743306e-06 0)
(0.53098869 5.6856489e-06 0)
(0.75061585 1.1429793e-05 0)
(1.0159993 2.0848116e-05 0)
(1.31185 3.3580719e-05 0)
(1.6050599 4.4826125e-05 0)
(1.8466272 4.2930467e-05 0)
(1.9845266 1.8308307e-05 0)
(1.9845266 -1.8309868e-05 0)
(1.8466272 -4.2930397e-05 0)
(1.6050599 -4.4823989e-05 0)
(1.31185 -3.3578122e-05 0)
(1.0159993 -2.0848579e-05 0)
(0.75061585 -1.1437592e-05 0)
(0.53098869 -5.7032401e-06 0)
(0.35919226 -2.5992851e-06 0)
(0.23002601 -1.0633724e-06 0)
(0.13556735 -3.6807559e-07 0)
(0.067813417 -9.322211e-08 0)
(0.019863221 -1.4261155e-08 0)
(0.019862579 1.103898e-08 0)
(0.067811252 7.6947864e-08 0)
(0.13556309 3.2741559e-07 0)
(0.23001895 9.7717444e-07 0)
(0.35918162 2.4243354e-06 0)
(0.53097384 5.3548852e-06 0)
(0.75059682 1.0766786e-05 0)
(1.0159778 1.9645517e-05 0)
(1.3118312 3.166551e-05 0)
(1.6050532 4.2326863e-05 0)
(1.8466415 4.0655576e-05 0)
(1.984559 1.7389297e-05 0)
(1.984559 -1.7391126e-05 0)
(1.8466415 -4.0655485e-05 0)
(1.6050532 -4.2324356e-05 0)
(1.3118312 -3.1662474e-05 0)
(1.0159778 -1.9646055e-05 0)
(0.75059681 -1.0775836e-05 0)
(0.53097384 -5.3752434e-06 0)
(0.35918163 -2.4531555e-06 0)
(0.23001895 -1.006802e-06 0)
(0.13556309 -3.5089898e-07 0)
(0.067811252 -9.0203197e-08 0)
(0.019862579 -1.3961753e-08 0)
(0.019861974 1.0403017e-08 0)
(0.067809213 7.251003e-08 0)
(0.13555908 3.0850636e-07 0)
(0.2300123 9.2073231e-07 0)
(0.3591716 2.2843961e-06 0)
(0.53095985 5.0462331e-06 0)
(0.75057887 1.0147817e-05 0)
(1.0159575 1.8521655e-05 0)
(1.3118134 2.9872128e-05 0)
(1.6050467 3.9981219e-05 0)
(1.8466551 3.8492966e-05 0)
(1.9845898 1.6510405e-05 0)
(1.9845898 -1.6512532e-05 0)
(1.8466551 -3.8492849e-05 0)
(1.6050467 -3.997829e-05 0)
(1.3118134 -2.9868601e-05 0)
(1.0159575 -1.8522279e-05 0)
(0.75057886 -1.0158253e-05 0)
(0.53095985 -5.0696354e-06 0)
(0.35917161 -2.3174516e-06 0)
(0.2300123 -9.5466124e-07 0)
(0.13555908 -3.3536977e-07 0)
(0.067809213 -8.7663269e-08 0)
(0.019861974 -1.374303e-08 0)
(0.019861404 9.8102762e-09 0)
(0.067807292 6.8372247e-08 0)
(0.1355553 2.9086619e-07 0)
(0.23000603 8.6805719e-07 0)
(0.35916216 2.1537406e-06 0)
(0.53094666 4.7579248e-06 0)
(0.75056194 9.5693814e-06 0)
(1.0159384 1.7470847e-05 0)
(1.3117965 2.8193529e-05 0)
(1.6050405 3.7775516e-05 0)
(1.8466678 3.646068e-05 0)
(1.9846188 1.5678057e-05 0)
(1.9846188 -1.5680504e-05 0)
(1.8466678 -3.6460518e-05 0)
(1.6050405 -3.7772109e-05 0)
(1.3117965 -2.8189455e-05 0)
(1.0159384 -1.7471565e-05 0)
(0.75056194 -9.5813336e-06 0)
(0.53094666 -4.784637e-06 0)
(0.35916216 -2.191384e-06 0)
(0.23000604 -9.0663363e-07 0)
(0.1355553 -3.2137518e-07 0)
(0.067807292 -8.5570183e-08 0)
(0.019861404 -1.359946e-08 0)
(0.019860867 9.2565978e-09 0)
(0.06780548 6.4504032e-08 0)
(0.13555173 2.7436385e-07 0)
(0.23000012 8.1877075e-07 0)
(0.35915325 2.0314924e-06 0)
(0.53093422 4.4881591e-06 0)
(0.75054596 9.0279391e-06 0)
(1.0159203 1.6486159e-05 0)
(1.3117806 2.6617251e-05 0)
(1.6050346 3.5701522e-05 0)
(1.8466798 3.4521461e-05 0)
(1.9846465 1.4880103e-05 0)
(1.9846465 -1.4882885e-05 0)
(1.8466798 -3.4521233e-05 0)
(1.6050346 -3.5697573e-05 0)
(1.3117806 -2.6612567e-05 0)
(1.0159203 -1.6486975e-05 0)
(0.75054596 -9.0415268e-06 0)
(0.53093422 -4.518428e-06 0)
(0.35915326 -2.0740481e-06 0)
(0.23000013 -8.6231097e-07 0)
(0.13555173 -3.0875963e-07 0)
(0.06780548 -8.3879355e-08 0)
(0.019860867 -1.3523699e-08 0)
(0.01986036 8.740349e-09 0)
(0.067803771 6.0896037e-08 0)
(0.13554837 2.5896038e-07 0)
(0.22999455 7.727356e-07 0)
(0.35914485 1.9172205e-06 0)
(0.53092248 4.2358054e-06 0)
(0.75053089 8.5211901e-06 0)
(1.0159032 1.5564409e-05 0)
(1.3117655 2.5141204e-05 0)
(1.605029 3.3750889e-05 0)
(1.846691 3.270734e-05 0)
(1.9846726 1.4127966e-05 0)
(1.9846726 -1.4131076e-05 0)
(1.846691 -3.2707005e-05 0)
(1.605029 -3.3746329e-05 0)
(1.3117655 -2.5135845e-05 0)
(1.0159032 -1.556532e-05 0)
(0.75053089 -8.5365164e-06 0)
(0.53092249 -4.2698442e-06 0)
(0.35914486 -1.9649652e-06 0)
(0.22999455 -8.2150548e-07 0)
(0.13554837 -2.974432e-07 0)
(0.067803771 -8.2557854e-08 0)
(0.01986036 -1.3508775e-08 0)
(0.019859882 8.2568973e-09 0)
(0.067802157 5.7512528e-08 0)
(0.13554519 2.44501e-07 0)
(0.22998928 7.2952218e-07 0)
(0.35913691 1.8100034e-06 0)
(0.53091139 3.9991274e-06 0)
(0.75051664 8.0457868e-06 0)
(1.0158871 1.4698399e-05 0)
(1.3117512 2.3750657e-05 0)
(1.6050236 3.1911902e-05 0)
(1.8467017 3.0966058e-05 0)
(1.9846975 1.3403697e-05 0)
(1.9846975 -1.3407119e-05 0)
(1.8467017 -3.0965576e-05 0)
(1.6050236 -3.1906652e-05 0)
(1.3117512 -2.3744551e-05 0)
(1.0158871 -1.4699392e-05 0)
(0.75051664 -8.0629363e-06 0)
(0.5309114 -4.0371149e-06 0)
(0.35913692 -1.8631664e-06 0)
(0.22998929 -7.8373863e-07 0)
(0.13554519 -2.8723149e-07 0)
(0.067802157 -8.1546871e-08 0)
(0.019859881 -1.3544733e-08 0)
(0.01985943 7.8078785e-09 0)
(0.067800635 5.4369773e-08 0)
(0.1355422 2.3105664e-07 0)
(0.22998432 6.8928763e-07 0)
(0.35912943 1.7099996e-06 0)
(0.53090093 3.7779994e-06 0)
(0.75050321 7.6012325e-06 0)
(1.0158719 1.3888829e-05 0)
(1.3117377 2.2451674e-05 0)
(1.6050185 3.0187015e-05 0)
(1.8467117 2.9350629e-05 0)
(1.9847208 1.2726636e-05 0)
(1.9847208 -1.2730329e-05 0)
(1.8467117 -2.9349926e-05 0)
(1.6050185 -3.0180986e-05 0)
(1.3117377 -2.2444742e-05 0)
(1.0158718 -1.3889885e-05 0)
(0.7505032 -7.6202682e-06 0)
(0.53090094 -3.8200706e-06 0)
(0.35912944 -1.7687488e-06 0)
(0.22998432 -7.491048e-07 0)
(0.1355422 -2.7814558e-07 0)
(0.067800635 -8.0833999e-08 0)
(0.01985943 -1.3626759e-08 0)
(0.019859003 7.3855377e-09 0)
(0.067799193 5.1405664e-08 0)
(0.13553936 2.1835862e-07 0)
(0.22997961 6.5131595e-07 0)
(0.35912234 1.6158027e-06 0)
(0.53089103 3.5700852e-06 0)
(0.75049047 7.1833056e-06 0)
(1.0158574 1.3125964e-05 0)
(1.3117249 2.1222477e-05 0)
(1.6050136 2.8553503e-05 0)
(1.8467212 2.7785987e-05 0)
(1.9847433 1.206973e-05 0)
(1.9847434 -1.2073652e-05 0)
(1.8467212 -2.7784998e-05 0)
(1.6050136 -2.85466e-05 0)
(1.3117249 -2.1214636e-05 0)
(1.0158574 -1.3127044e-05 0)
(0.75049046 -7.2042372e-06 0)
(0.53089103 -3.6162689e-06 0)
(0.35912235 -1.6801502e-06 0)
(0.22997962 -7.1671952e-07 0)
(0.13553936 -2.6977841e-07 0)
(0.067799194 -8.0277811e-08 0)
(0.019859002 -1.3729509e-08 0)
(0.0198586 7.0002769e-09 0)
(0.067797837 4.8704283e-08 0)
(0.13553669 2.0676616e-07 0)
(0.22997519 6.1652728e-07 0)
(0.35911567 1.5290639e-06 0)
(0.5308817 3.3776953e-06 0)
(0.75047849 6.7956025e-06 0)
(1.0158438 1.241875e-05 0)
(1.3117128 2.0085445e-05 0)
(1.605009 2.7036862e-05 0)
(1.84673 2.6357548e-05 0)
(1.9847642 1.1465214e-05 0)
(1.9847642 -1.1469281e-05 0)
(1.84673 -2.6356171e-05 0)
(1.605009 -2.7028994e-05 0)
(1.3117128 -2.0076627e-05 0)
(1.0158438 -1.2419817e-05 0)
(0.75047849 -6.8184006e-06 0)