/*--------------------------------*- C++ -*----------------------------------*\
| =========                 |                                                 |
| \\      /  F ield         | OpenFOAM: The Open Source CFD Toolbox           |
|  \\    /   O peration     | Version:  2406                                  |
|   \\  /    A nd           | Website:  www.openfoam.com                      |
|    \\/     M anipulation  |                                                 |
\*---------------------------------------------------------------------------*/
FoamFile
{
    version     2.0;
    format      ascii;
    arch        "LSB;label=32;scalar=64";
    class       volScalarField;
    location    "11";
    object      p;
}
// * * * * * * * * * * * * * * * * * * * * * * * * * * * * * * * * * * * * * //

dimensions      [0 2 -2 0 0 0 0];

internalField   nonuniform List<scalar> 
34560
(
-9.560492
-9.5530519
-9.5445699
-9.5345718
-9.5206701
-9.5007361
-9.4762338
-9.4515352
-9.4323983
-9.6084857
-9.6004034
-9.5910872
-9.5789
-9.5605256
-9.5342195
-9.503425
-9.4760739
-9.4578575
-9.631835
-9.6239329
-9.6155475
-9.6046542
-9.5866392
-9.5589176
-9.526275
-9.4975346
-9.4781975
-9.6480698
-9.6406997
-9.6335025
-9.6240394
-9.6069667
-9.5791747
-9.5455611
-9.5150952
-9.4940948
-9.6565687
-9.6499821
-9.6444695
-9.6370775
-9.6215842
-9.594267
-9.5599514
-9.5284611
-9.5058367
-9.6537368
-9.6485757
-9.645669
-9.6416387
-9.6291726
-9.6035302
-9.5694035
-9.5373992
-9.5130751
-9.6445154
-9.6408595
-9.6406265
-9.6401097
-9.6310764
-9.6076333
-9.5740456
-9.5418114
-9.5156411
-9.6297679
-9.6277586
-9.6303659
-9.6335916
-9.6283176
-9.6073226
-9.57426
-9.542059
-9.5139719
-9.6118238
-9.6114792
-9.6168544
-9.6237294
-9.6221517
-9.6033219
-9.5714339
-9.5392894
-9.5092086
-9.5933266
-9.5945664
-9.6024535
-9.6125506
-9.6141818
-9.5974796
-9.5674729
-9.5347508
-9.5028074
-9.57791
-9.5805016
-9.5903943
-9.6029306
-9.6069542
-9.5920844
-9.5634589
-9.5299099
-9.4964846
-9.5695295
-9.5727593
-9.5836196
-9.5973579
-9.6025976
-9.5887437
-9.5606735
-9.5265242
-9.4922048
-9.5695295
-9.5727592
-9.5836193
-9.5973576
-9.6025973
-9.5887434
-9.5606732
-9.5265238
-9.4922042
-9.5779096
-9.5805011
-9.5903937
-9.60293
-9.6069535
-9.5920838
-9.5634581
-9.5299086
-9.4964828
-9.5933257
-9.5945656
-9.6024528
-9.61255
-9.6141811
-9.5974787
-9.5674715
-9.5347487
-9.5028048
-9.6118231
-9.6114787
-9.6168539
-9.6237288
-9.6221509
-9.6033208
-9.5714319
-9.5392867
-9.5092057
-9.629768
-9.6277584
-9.6303654
-9.6335907
-9.6283163
-9.6073209
-9.5742577
-9.5420563
-9.513969
-9.6445144
-9.6408583
-9.6406252
-9.6401081
-9.6310745
-9.6076311
-9.5740431
-9.5418087
-9.5156382
-9.6537347
-9.6485734
-9.6456665
-9.6416361
-9.6291701
-9.6035277
-9.5694008
-9.5373962
-9.5130723
-9.6565646
-9.649978
-9.6444655
-9.6370739
-9.6215811
-9.5942643
-9.5599487
-9.528458
-9.5058339
-9.6480648
-9.640695
-9.6334982
-9.6240357
-9.6069635
-9.5791719
-9.5455585
-9.5150926
-9.4940926
-9.6318302
-9.6239284
-9.6155433
-9.6046503
-9.5866359
-9.558915
-9.5262732
-9.4975335
-9.4781972
-9.6084821
-9.6003998
-9.5910838
-9.578897
-9.5605233
-9.5342182
-9.5034248
-9.476075
-9.4578595
-9.5604896
-9.5530495
-9.5445678
-9.5345705
-9.52067
-9.5007373
-9.4762358
-9.4515382
-9.4324028
-8.9225458
-8.9221407
-8.9220988
-8.9223936
-8.922405
-8.9214234
-8.9194778
-8.9174097
-8.9153827
-8.9264677
-8.9259007
-8.9258073
-8.9261411
-8.9260186
-8.9244626
-8.9214322
-8.9177031
-8.913507
-8.9255712
-8.9248897
-8.9248895
-8.92549
-8.925489
-8.9235998
-8.9197753
-8.9148983
-8.9092878
-8.9191891
-8.9183915
-8.918541
-8.9195601
-8.9199084
-8.917945
-8.913603
-8.9077617
-8.9009189
-8.9075262
-8.9066029
-8.9069173
-8.9084112
-8.9092135
-8.9072848
-8.9024137
-8.8956786
-8.8876843
-8.8916859
-8.8905105
-8.890858
-8.8927281
-8.8938872
-8.8918669
-8.8863858
-8.8787719
-8.8697639
-8.8720539
-8.8705923
-8.8709042
-8.8730583
-8.8744768
-8.8722734
-8.8660863
-8.8575944
-8.8477877
-8.8501943
-8.8483929
-8.8485529
-8.8508223
-8.8523136
-8.8497606
-8.8427762
-8.8333937
-8.8230025
-8.8280645
-8.8258922
-8.8257954
-8.8280021
-8.8293579
-8.8262782
-8.8184709
-8.8081831
-8.7973982
-8.8081692
-8.8056142
-8.8051772
-8.8071605
-8.8082047
-8.8044984
-8.7958853
-8.7847519
-8.7737347
-8.7930034
-8.7901248
-8.7893614
-8.7910708
-8.7917623
-8.7874878
-8.7781744
-8.7663756
-8.755244
-8.7845606
-8.7815453
-8.7806309
-8.7821993
-8.7826952
-8.778098
-8.7683961
-8.7562265
-8.7450511
-8.7845605
-8.7815452
-8.7806308
-8.7821992
-8.7826951
-8.7780979
-8.7683961
-8.7562265
-8.7450511
-8.793003
-8.7901244
-8.789361
-8.7910704
-8.791762
-8.7874876
-8.7781743
-8.7663756
-8.7552442
-8.8081686
-8.8056136
-8.8051766
-8.80716
-8.8082042
-8.804498
-8.7958851
-8.7847518
-8.7737348
-8.8280636
-8.8258913
-8.8257946
-8.8280013
-8.8293572
-8.8262777
-8.8184706
-8.808183
-8.7973983
-8.850193
-8.8483917
-8.8485516
-8.8508211
-8.8523125
-8.8497597
-8.8427758
-8.8333936
-8.8230028
-8.8720522
-8.8705905
-8.8709024
-8.8730566
-8.8744753
-8.8722722
-8.8660856
-8.8575943
-8.8477883
-8.8916838
-8.8905083
-8.8908558
-8.8927259
-8.8938852
-8.8918652
-8.8863848
-8.8787716
-8.8697646
-8.9075236
-8.9066002
-8.9069146
-8.9084085
-8.9092111
-8.9072829
-8.9024124
-8.8956782
-8.887685
-8.9191862
-8.9183885
-8.918538
-8.9195571
-8.9199057
-8.9179429
-8.9136015
-8.9077612
-8.9009195
-8.925568
-8.9248866
-8.9248864
-8.9254871
-8.9254864
-8.9235976
-8.9197738
-8.9148977
-8.9092885
-8.9264648
-8.9258978
-8.9258046
-8.9261385
-8.9260164
-8.9244607
-8.9214308
-8.9177027
-8.9135085
-8.9225433
-8.9221383
-8.9220965
-8.9223916
-8.9224033
-8.9214222
-8.9194773
-8.9174104
-8.9153853
-8.6852951
-8.685315
-8.6853335
-8.6853012
-8.6852116
-8.6850708
-8.6848986
-8.6846976
-8.6841979
-8.6890368
-8.6890751
-8.6890688
-8.6889094
-8.6885667
-8.6880444
-8.6873679
-8.6865914
-8.6856501
-8.691903
-8.6919675
-8.6919906
-8.6918413
-8.6914561
-8.6907973
-8.6898677
-8.6887495
-8.6875421
-8.6943674
-8.694453
-8.6944962
-8.6943525
-8.6939489
-8.6932224
-8.6921434
-8.6907852
-8.6893195
-8.6963237
-8.6964265
-8.6964915
-8.6963665
-8.6959731
-8.695225
-8.6940573
-8.6925294
-8.6908554
-8.6977242
-8.6978476
-8.6979421
-8.697852
-8.6974973
-8.6967726
-8.6955758
-8.6939486
-8.6921287
-8.6986788
-8.6988118
-8.698924
-8.6988617
-8.6985489
-8.6978706
-8.6966898
-8.6950231
-8.6931144
-8.6992309
-8.6993671
-8.6994904
-8.6994518
-8.6991793
-8.6985592
-8.6974232
-8.6957599
-8.6938086
-8.6994701
-8.6996047
-8.6997315
-8.6997069
-8.6994756
-8.6989111
-8.6978304
-8.6961943
-8.6942264
-8.6995036
-8.699634
-8.6997602
-8.6997436
-8.6995406
-8.6990219
-8.6979941
-8.6963906
-8.6944219
-8.6994466
-8.6995724
-8.6996954
-8.6996801
-8.6994926
-8.6990053
-8.6980132
-8.6964324
-8.694478
-8.6993824
-8.6995055
-8.6996265
-8.6996111
-8.6994306
-8.6989587
-8.6979852
-8.6964162
-8.6944739
-8.6993822
-8.6995053
-8.6996263
-8.6996109
-8.6994304
-8.6989586
-8.6979851
-8.6964162
-8.6944741
-8.6994461
-8.6995719
-8.6996949
-8.6996796
-8.6994921
-8.6990049
-8.698013
-8.6964325
-8.6944784
-8.6995027
-8.6996331
-8.6997593
-8.6997427
-8.6995398
-8.6990213
-8.6979937
-8.6963907
-8.6944225
-8.6994689
-8.6996035
-8.6997303
-8.6997057
-8.6994745
-8.6989102
-8.6978298
-8.6961943
-8.6942272
-8.6992294
-8.6993656
-8.6994888
-8.6994502
-8.6991777
-8.6985579
-8.6974223
-8.6957598
-8.6938095
-8.6986768
-8.6988097
-8.6989219
-8.6988595
-8.6985468
-8.6978687
-8.6966884
-8.6950226
-8.6931151
-8.6977217
-8.6978449
-8.6979393
-8.6978492
-8.6974946
-8.6967701
-8.6955738
-8.6939475
-8.6921291
-8.6963205
-8.6964232
-8.696488
-8.696363
-8.6959697
-8.6952218
-8.6940546
-8.6925276
-8.6908554
-8.6943635
-8.6944491
-8.6944922
-8.6943483
-8.6939449
-8.6932184
-8.69214
-8.6907829
-8.6893194
-8.6918985
-8.691963
-8.6919859
-8.6918366
-8.6914514
-8.6907928
-8.6898638
-8.6887471
-8.6875421
-8.6890321
-8.6890704
-8.6890639
-8.6889045
-8.6885619
-8.6880399
-8.6873642
-8.6865895
-8.6856505
-8.6852903
-8.6853102
-8.6853287
-8.6852965
-8.6852072
-8.6850669
-8.6848958
-8.6846964
-8.6841985
-8.1103409
-8.11041
-8.1105002
-8.1106286
-8.1107642
-8.1108131
-8.1106772
-8.1103241
-8.1097866
-8.1101813
-8.1102485
-8.1103331
-8.1104525
-8.1105629
-8.1105498
-8.1102944
-8.1097333
-8.1089304
-8.1100306
-8.1100921
-8.1101684
-8.1102786
-8.110372
-8.1103232
-8.110004
-8.1093522
-8.1084615
-8.1096834
-8.1097378
-8.1098063
-8.1099124
-8.11
-8.1099334
-8.1095748
-8.1088661
-8.1078946
-8.1091577
-8.1092047
-8.1092642
-8.109364
-8.1094438
-8.1093594
-8.1089658
-8.1082082
-8.1071755
-8.1085074
-8.1085413
-8.1085861
-8.1086754
-8.1087449
-8.1086437
-8.1082219
-8.1074291
-8.1063609
-8.1077399
-8.1077598
-8.1077888
-8.1078696
-8.1079323
-8.1078201
-8.1073811
-8.1065746
-8.1055021
-8.1069295
-8.1069343
-8.1069466
-8.1070128
-8.1070716
-8.1069516
-8.1065037
-8.1056994
-8.1046522
-8.1061485
-8.1061377
-8.1061335
-8.1061878
-8.1062347
-8.1061107
-8.1056573
-8.1048482
-8.1037618
-8.1054765
-8.1054508
-8.1054299
-8.105472
-8.1055095
-8.1053799
-8.1049205
-8.1040983
-8.1029199
-8.1049797
-8.1049419
-8.1049086
-8.1049411
-8.1049717
-8.1048363
-8.1043673
-8.1035149
-8.1023141
-8.1047092
-8.1046667
-8.1046283
-8.1046567
-8.104684
-8.1045452
-8.1040653
-8.1031769
-8.1019985
-8.1047092
-8.1046666
-8.1046282
-8.1046566
-8.1046839
-8.1045451
-8.1040652
-8.1031769
-8.1019986
-8.1049795
-8.1049417
-8.1049083
-8.1049408
-8.1049714
-8.104836
-8.1043671
-8.1035148
-8.1023143
-8.1054761
-8.1054504
-8.1054294
-8.1054715
-8.1055089
-8.1053793
-8.1049201
-8.1040981
-8.1029201
-8.1061479
-8.1061371
-8.1061328
-8.1061871
-8.1062338
-8.1061099
-8.1056565
-8.1048478
-8.1037619
-8.1069286
-8.1069333
-8.1069456
-8.1070117
-8.1070704
-8.1069503
-8.1065026
-8.1056987
-8.1046521
-8.1077386
-8.1077584
-8.1077873
-8.107868
-8.1079306
-8.1078184
-8.1073796
-8.1065734
-8.1055016
-8.1085056
-8.1085394
-8.1085841
-8.1086733
-8.1087427
-8.1086415
-8.1082199
-8.1074275
-8.1063599
-8.1091555
-8.1092023
-8.1092617
-8.1093614
-8.1094411
-8.1093567
-8.1089631
-8.1082059
-8.1071738
-8.1096808
-8.109735
-8.1098034
-8.1099094
-8.109997
-8.1099303
-8.1095716
-8.1088632
-8.1078924
-8.1100276
-8.1100891
-8.1101653
-8.1102754
-8.1103688
-8.1103198
-8.1100005
-8.1093488
-8.1084587
-8.1101783
-8.1102455
-8.11033
-8.1104493
-8.1105597
-8.1105465
-8.1102911
-8.1097297
-8.1089268
-8.110338
-8.110407
-8.1104972
-8.1106256
-8.1107612
-8.1108101
-8.1106741
-8.1103206
-8.1097825
-7.8205785
-7.8206208
-7.8206714
-7.8207096
-7.8207439
-7.8208011
-7.8209073
-7.8210655
-7.8211157
-7.820834
-7.8208815
-7.8209286
-7.820942
-7.8209268
-7.8209103
-7.8209211
-7.8209687
-7.8209778
-7.8210986
-7.8211471
-7.8211912
-7.8211911
-7.8211504
-7.8211001
-7.8210753
-7.8210964
-7.8211434
-7.8213176
-7.821363
-7.8214016
-7.8213899
-7.821333
-7.8212667
-7.8212316
-7.82125
-7.8213134
-7.8214927
-7.8215343
-7.8215664
-7.8215425
-7.8214696
-7.8213897
-7.8213486
-7.8213686
-7.8214451
-7.8216336
-7.8216703
-7.8216952
-7.8216595
-7.8215713
-7.8214811
-7.8214382
-7.8214641
-7.8215506
-7.821735
-7.8217666
-7.8217853
-7.8217385
-7.8216393
-7.8215422
-7.8215023
-7.8215343
-7.8216147
-7.8218059
-7.8218331
-7.8218455
-7.8217882
-7.8216807
-7.8215801
-7.8215455
-7.821579
-7.8216421
-7.8218511
-7.821874
-7.8218803
-7.8218172
-7.8217035
-7.8216035
-7.8215782
-7.8216312
-7.821771
-7.8218798
-7.8218988
-7.8219003
-7.8218323
-7.8217154
-7.8216187
-7.8216067
-7.8217003
-7.8219819
-7.8218983
-7.8219143
-7.821912
-7.8218404
-7.8217218
-7.8216295
-7.821636
-7.8217923
-7.8221299
-7.8219048
-7.8219193
-7.8219154
-7.8218426
-7.8217243
-7.8216361
-7.8216596
-7.8218721
-7.8222042
-7.8219048
-7.8219193
-7.8219154
-7.8218425
-7.8217242
-7.821636
-7.8216595
-7.8218721
-7.8222043
-7.8218984
-7.8219143
-7.821912
-7.8218403
-7.8217216
-7.8216293
-7.8216359
-7.8217922
-7.8221301
-7.8218798
-7.8218988
-7.8219001
-7.8218321
-7.8217151
-7.8216184
-7.8216063
-7.8217002
-7.8219823
-7.8218511
-7.8218739
-7.82188
-7.8218168
-7.8217029
-7.8216029
-7.8215776
-7.8216309
-7.8217713
-7.8218057
-7.8218328
-7.821845
-7.8217875
-7.8216798
-7.8215792
-7.8215447
-7.8215785
-7.8216421
-7.8217344
-7.8217659
-7.8217845
-7.8217375
-7.8216382
-7.8215409
-7.8215012
-7.8215335
-7.8216144
-7.8216327
-7.8216692
-7.821694
-7.8216581
-7.8215697
-7.8214794
-7.8214366
-7.8214629
-7.8215498
-7.8214912
-7.8215328
-7.8215647
-7.8215406
-7.8214675
-7.8213876
-7.8213466
-7.8213668
-7.8214435
-7.8213155
-7.8213608
-7.8213993
-7.8213874
-7.8213304
-7.8212641
-7.8212291
-7.8212476
-7.8213107
-7.8210959
-7.8211442
-7.8211883
-7.821188
-7.8211473
-7.821097
-7.8210722
-7.8210928
-7.8211391
-7.8208306
-7.8208781
-7.8209251
-7.8209385
-7.8209232
-7.8209065
-7.8209168
-7.8209634
-7.8209715
-7.8205747
-7.820617
-7.8206676
-7.8207057
-7.8207397
-7.8207963
-7.8209014
-7.8210581
-7.8211075
-7.3550593
-7.355069
-7.3550911
-7.3551424
-7.3552166
-7.3552847
-7.3553108
-7.355281
-7.355199
-7.3551387
-7.3551472
-7.3551668
-7.3552144
-7.3552787
-7.3553223
-7.3553008
-7.3551927
-7.3550258
-7.3552673
-7.3552722
-7.3552881
-7.3553328
-7.3553931
-7.355427
-7.3553863
-7.3552516
-7.3550652
-7.3553848
-7.3553855
-7.355397
-7.3554389
-7.3554967
-7.3555252
-7.3554734
-7.3553228
-7.3551101
-7.3554895
-7.3554864
-7.3554931
-7.3555308
-7.3555837
-7.3556048
-7.3555416
-7.355378
-7.3551458
-7.355579
-7.3555723
-7.3555745
-7.3556078
-7.3556553
-7.3556688
-7.3555973
-7.3554286
-7.355182
-7.3556452
-7.3556356
-7.355634
-7.3556635
-7.3557057
-7.3557121
-7.3556339
-7.3554652
-7.3551745
-7.3556906
-7.3556789
-7.3556739
-7.3556999
-7.3557363
-7.3557333
-7.3556398
-7.355427
-7.355069
-7.3557178
-7.3557047
-7.3556975
-7.3557193
-7.3557503
-7.3557359
-7.3556205
-7.3553304
-7.3549236
-7.355731
-7.3557171
-7.3557081
-7.3557264
-7.3557521
-7.3557245
-7.3555772
-7.3552445
-7.354808
-7.3557348
-7.3557204
-7.3557104
-7.3557265
-7.3557461
-7.3557044
-7.355524
-7.3551785
-7.3547275
-7.3557346
-7.3557203
-7.3557099
-7.3557248
-7.3557408
-7.3556918
-7.3554975
-7.3551438
-7.3546861
-7.3557348
-7.3557204
-7.35571
-7.3557248
-7.3557408
-7.3556918
-7.3554976
-7.3551439
-7.3546863
-7.3557351
-7.3557207
-7.3557106
-7.3557266
-7.3557461
-7.3557044
-7.3555241
-7.3551789
-7.3547282
-7.3557314
-7.3557174
-7.3557083
-7.3557266
-7.3557522
-7.3557245
-7.3555773
-7.355245
-7.3548091
-7.3557183
-7.3557051
-7.3556977
-7.3557193
-7.3557502
-7.3557357
-7.3556206
-7.355331
-7.354925
-7.355691
-7.3556791
-7.3556739
-7.3556997
-7.355736
-7.355733
-7.3556397
-7.3554275
-7.3550705
-7.3556452
-7.3556355
-7.3556336
-7.3556629
-7.3557049
-7.3557113
-7.3556336
-7.3554656
-7.355176
-7.3555784
-7.3555716
-7.3555736
-7.3556065
-7.3556539
-7.3556675
-7.3555965
-7.3554288
-7.3551835
-7.3554881
-7.3554849
-7.3554913
-7.3555287
-7.3555815
-7.3556027
-7.3555402
-7.3553778
-7.3551469
-7.3553823
-7.3553828
-7.355394
-7.3554357
-7.3554934
-7.3555222
-7.3554712
-7.3553218
-7.3551106
-7.3552634
-7.3552682
-7.3552839
-7.3553284
-7.3553887
-7.3554228
-7.3553828
-7.3552494
-7.3550647
-7.3551335
-7.3551419
-7.3551614
-7.3552088
-7.3552731
-7.3553167
-7.3552957
-7.3551889
-7.3550239
-7.3550533
-7.355063
-7.355085
-7.3551362
-7.3552103
-7.3552781
-7.3553043
-7.3552752
-7.3551952
-6.9930504
-6.9930665
-6.9930847
-6.993097
-6.9931054
-6.9931176
-6.9931401
-6.9931748
-6.9931767
-6.9930104
-6.9930282
-6.9930462
-6.9930538
-6.9930523
-6.993049
-6.9930505
-6.9930577
-6.9930493
-6.9930036
-6.9930208
-6.9930367
-6.9930393
-6.9930303
-6.9930192
-6.993016
-6.9930251
-6.9930396
-6.992996
-6.9930111
-6.9930241
-6.9930221
-6.993008
-6.9929936
-6.992992
-6.9930087
-6.9930384
-6.9929912
-6.993004
-6.9930135
-6.9930062
-6.9929861
-6.9929679
-6.9929671
-6.9929883
-6.9930271
-6.9929946
-6.9930044
-6.9930098
-6.9929968
-6.9929705
-6.9929484
-6.9929464
-6.9929656
-6.9930119
-6.9930037
-6.9930104
-6.9930119
-6.9929936
-6.9929626
-6.992938
-6.9929353
-6.9929518
-6.9930443
-6.9930208
-6.9930243
-6.9930216
-6.992999
-6.9929648
-6.9929411
-6.9929496
-6.9930158
-6.9931814
-6.9930428
-6.9930431
-6.9930367
-6.9930107
-6.992975
-6.9929561
-6.992986
-6.993139
-6.9933523
-6.9930663
-6.9930637
-6.9930542
-6.9930257
-6.9929903
-6.99298
-6.9930447
-6.9932438
-6.9934831
-6.9930869
-6.9930821
-6.9930702
-6.9930404
-6.9930068
-6.9930081
-6.9931088
-6.9933192
-6.9935721
-6.9930974
-6.9930916
-6.9930787
-6.9930483
-6.9930159
-6.9930235
-6.9931399
-6.9933579
-6.993618
-6.9930976
-6.9930918
-6.9930789
-6.9930485
-6.9930161
-6.9930236
-6.9931401
-6.9933582
-6.9936184
-6.9930876
-6.9930827
-6.9930708
-6.9930408
-6.9930072
-6.9930085
-6.9931093
-6.99332
-6.9935734
-6.9930673
-6.9930646
-6.9930549
-6.9930263
-6.9929908
-6.9929806
-6.9930454
-6.993245
-6.9934851
-6.993044
-6.9930442
-6.9930376
-6.9930114
-6.9929755
-6.9929566
-6.9929868
-6.9931406
-6.9933549
-6.9930219
-6.9930253
-6.9930224
-6.9929995
-6.9929651
-6.9929415
-6.9929505
-6.9930177
-6.9931845
-6.9930046
-6.9930111
-6.9930123
-6.9929937
-6.9929625
-6.992938
-6.9929359
-6.9929537
-6.9930478
-6.9929948
-6.9930044
-6.9930095
-6.9929961
-6.9929696
-6.9929478
-6.9929465
-6.9929673
-6.9930157
-6.9929903
-6.9930029
-6.9930121
-6.9930045
-6.9929842
-6.9929662
-6.9929664
-6.9929896
-6.9930308
-6.9929936
-6.9930085
-6.9930213
-6.993019
-6.9930047
-6.9929907
-6.9929902
-6.9930091
-6.9930417
-6.9929996
-6.9930165
-6.9930323
-6.9930345
-6.9930254
-6.9930147
-6.9930126
-6.9930241
-6.993042
-6.9930048
-6.9930224
-6.9930402
-6.9930477
-6.9930461
-6.993043
-6.9930454
-6.9930548
-6.9930501
-6.9930437
-6.9930598
-6.993078
-6.9930902
-6.9930986
-6.9931108
-6.9931339
-6.9931698
-6.9931749
-6.5742765
-6.5742766
-6.5742805
-6.5742942
-6.5743162
-6.5743385
-6.5743515
-6.5743507
-6.5743319
-6.5743321
-6.5743316
-6.5743347
-6.5743467
-6.5743649
-6.574378
-6.5743732
-6.5743433
-6.5742931
-6.5743993
-6.5743979
-6.5743998
-6.5744108
-6.5744269
-6.5744356
-6.5744227
-6.5743813
-6.5743203
-6.5744607
-6.5744581
-6.5744587
-6.5744687
-6.5744834
-6.5744895
-6.5744714
-6.5744221
-6.5743484
-6.5745155
-6.5745118
-6.5745109
-6.5745195
-6.5745323
-6.5745354
-6.5745129
-6.5744574
-6.5743724
-6.5745622
-6.5745576
-6.5745555
-6.5745624
-6.5745734
-6.5745739
-6.5745485
-6.5744887
-6.5743897
-6.5745984
-6.574593
-6.57459
-6.5745955
-6.5746042
-6.5746018
-6.5745734
-6.5744984
-6.5743785
-6.5746241
-6.5746184
-6.5746145
-6.5746184
-6.5746242
-6.5746163
-6.5745757
-6.574479
-6.5743406
-6.5746407
-6.5746348
-6.5746303
-6.5746327
-6.5746353
-6.5746208
-6.5745622
-6.5744514
-6.5743043
-6.5746504
-6.5746444
-6.5746394
-6.5746402
-6.5746394
-6.5746182
-6.574549
-6.5744294
-6.5742777
-6.5746552
-6.5746491
-6.5746436
-6.5746432
-6.5746394
-6.5746124
-6.5745389
-6.5744147
-6.5742604
-6.5746572
-6.574651
-6.5746453
-6.5746443
-6.5746392
-6.5746096
-6.5745337
-6.5744078
-6.5742521
-6.5746576
-6.5746514
-6.5746456
-6.5746445
-6.5746394
-6.5746098
-6.5745339
-6.5744082
-6.5742526
-6.5746562
-6.57465
-6.5746444
-6.5746439
-6.57464
-6.574613
-6.5745396
-6.5744158
-6.574262
-6.5746519
-6.5746458
-6.5746406
-6.5746412
-6.5746403
-6.5746191
-6.5745502
-6.5744311
-6.5742804
-6.5746425
-6.5746365
-6.5746318
-6.5746339
-6.5746363
-6.5746218
-6.5745637
-6.5744537
-6.5743078
-6.574626
-6.5746201
-6.574616
-6.5746196
-6.5746252
-6.5746173
-6.5745772
-6.5744816
-6.5743448
-6.5746001
-6.5745945
-6.5745912
-6.5745963
-6.5746048
-6.5746025
-6.5745748
-6.5745011
-6.574383
-6.5745633
-6.5745584
-6.574556
-6.5745625
-6.5745733
-6.5745739
-6.5745494
-6.5744913
-6.5743943
-6.5745155
-6.5745115
-6.5745103
-6.5745185
-6.5745311
-6.5745345
-6.574513
-6.5744594
-6.5743766
-6.5744592
-6.5744563
-6.5744566
-6.5744662
-6.5744808
-6.5744872
-6.5744703
-6.574423
-6.5743517
-6.574396
-6.5743944
-6.574396
-6.5744066
-6.5744227
-6.5744318
-6.5744198
-6.5743803
-6.5743218
-6.5743271
-6.5743265
-6.5743293
-6.5743412
-6.5743592
-6.5743725
-6.5743682
-6.5743396
-6.5742921
-6.5742705
-6.5742706
-6.5742745
-6.574288
-6.5743098
-6.5743318
-6.5743445
-6.5743439
-6.5743275
-6.1852609
-6.1852652
-6.1852698
-6.1852727
-6.1852745
-6.1852773
-6.1852846
-6.1853003
-6.18531
-6.1852433
-6.1852481
-6.1852527
-6.1852544
-6.1852537
-6.1852533
-6.1852562
-6.1852642
-6.1852693
-6.1852336
-6.1852381
-6.1852421
-6.1852423
-6.1852397
-6.1852376
-6.1852399
-6.1852487
-6.1852602
-6.1852237
-6.1852276
-6.1852306
-6.1852295
-6.1852253
-6.1852223
-6.1852249
-6.1852354
-6.1852512
-6.1852156
-6.1852188
-6.1852208
-6.1852179
-6.1852119
-6.1852073
-6.1852093
-6.1852197
-6.1852391
-6.1852119
-6.1852142
-6.1852148
-6.1852102
-6.185202
-6.1851957
-6.1851957
-6.1852052
-6.1852323
-6.185212
-6.1852135
-6.185213
-6.1852067
-6.185197
-6.1851897
-6.1851893
-6.1852105
-6.185252
-6.1852166
-6.1852171
-6.1852155
-6.1852081
-6.1851982
-6.1851934
-6.185203
-6.1852412
-6.1852926
-6.1852241
-6.1852237
-6.1852211
-6.1852132
-6.1852038
-6.185203
-6.185228
-6.1852743
-6.1853272
-6.1852326
-6.1852315
-6.1852282
-6.18522
-6.185212
-6.1852157
-6.1852474
-6.1852974
-6.185349
-6.1852399
-6.1852384
-6.1852347
-6.1852266
-6.18522
-6.1852282
-6.1852607
-6.1853106
-6.1853611
-6.1852439
-6.1852423
-6.1852385
-6.1852303
-6.1852244
-6.1852343
-6.1852673
-6.1853164
-6.1853665
-6.1852443
-6.1852427
-6.1852388
-6.1852306
-6.1852247
-6.1852345
-6.1852675
-6.1853168
-6.1853671
-6.185241
-6.1852394
-6.1852357
-6.1852274
-6.1852207
-6.1852288
-6.1852615
-6.1853118
-6.1853628
-6.1852342
-6.185233
-6.1852296
-6.1852212
-6.185213
-6.1852167
-6.1852486
-6.1852992
-6.1853518
-6.1852262
-6.1852257
-6.1852228
-6.1852146
-6.185205
-6.1852042
-6.1852295
-6.1852767
-6.1853308
-6.1852188
-6.1852191
-6.1852172
-6.1852095
-6.1851993
-6.1851945
-6.1852046
-6.1852439
-6.185297
-6.185214
-6.1852152
-6.1852144
-6.1852077
-6.1851978
-6.1851905
-6.1851907
-6.1852132
-6.1852567
-6.1852133
-6.1852153
-6.1852156
-6.1852105
-6.1852021
-6.1851958
-6.1851967
-6.1852077
-6.185237
-6.1852161
-6.185219
-6.1852205
-6.1852173
-6.185211
-6.1852066
-6.1852094
-6.1852216
-6.1852434
-6.1852227
-6.1852263
-6.185229
-6.1852275
-6.1852232
-6.1852204
-6.185224
-6.1852362
-6.1852544
-6.185231
-6.1852353
-6.185239
-6.185239
-6.1852363
-6.1852345
-6.1852376
-6.1852479
-6.1852618
-6.1852392
-6.1852439
-6.1852484
-6.1852499
-6.1852492
-6.1852488
-6.1852522
-6.1852613
-6.1852687
-6.1852561
-6.1852604
-6.185265
-6.1852678
-6.1852694
-6.1852719
-6.1852791
-6.185295
-6.1853066
-5.7818522
-5.7818519
-5.7818527
-5.7818559
-5.7818614
-5.7818677
-5.7818714
-5.7818686
-5.7818561
-5.7818599
-5.7818596
-5.7818601
-5.7818629
-5.7818671
-5.7818699
-5.7818674
-5.7818562
-5.7818358
-5.7818713
-5.7818706
-5.7818708
-5.7818732
-5.7818765
-5.7818776
-5.7818723
-5.7818577
-5.7818352
-5.7818824
-5.7818813
-5.781881
-5.7818829
-5.7818857
-5.7818857
-5.7818786
-5.7818615
-5.781836
-5.7818927
-5.7818912
-5.7818905
-5.7818918
-5.7818939
-5.7818928
-5.7818838
-5.7818642
-5.7818357
-5.7819018
-5.7819
-5.7818988
-5.7818996
-5.781901
-5.7818989
-5.7818879
-5.7818656
-5.7818343
-5.781909
-5.7819069
-5.7819053
-5.7819056
-5.7819062
-5.7819027
-5.7818897
-5.7818649
-5.7818313
-5.781914
-5.7819117
-5.7819098
-5.7819095
-5.7819093
-5.7819043
-5.7818892
-5.7818623
-5.7818277
-5.7819174
-5.7819149
-5.7819127
-5.7819119
-5.7819108
-5.7819047
-5.7818878
-5.7818595
-5.7818246
-5.7819199
-5.7819173
-5.7819147
-5.7819136
-5.7819119
-5.7819045
-5.7818862
-5.7818572
-5.7818226
-5.7819217
-5.7819189
-5.7819162
-5.7819148
-5.7819126
-5.7819042
-5.781885
-5.7818559
-5.7818215
-5.7819226
-5.7819198
-5.781917
-5.7819155
-5.781913
-5.7819041
-5.7818844
-5.7818554
-5.7818213
-5.781923
-5.7819201
-5.7819173
-5.7819158
-5.7819133
-5.7819043
-5.7818846
-5.7818558
-5.7818219
-5.7819227
-5.7819199
-5.7819171
-5.7819156
-5.7819133
-5.7819049
-5.7818857
-5.781857
-5.7818232
-5.7819216
-5.7819188
-5.7819161
-5.7819148
-5.7819129
-5.7819055
-5.7818874
-5.7818589
-5.7818252
-5.7819195
-5.7819168
-5.7819143
-5.7819133
-5.781912
-5.7819058
-5.7818892
-5.7818617
-5.7818281
-5.7819162
-5.7819137
-5.7819114
-5.7819108
-5.7819103
-5.7819053
-5.7818906
-5.7818649
-5.7818318
-5.7819109
-5.7819086
-5.7819066
-5.7819066
-5.7819069
-5.7819034
-5.781891
-5.7818675
-5.7818358
-5.7819032
-5.7819011
-5.7818995
-5.7818999
-5.781901
-5.781899
-5.7818887
-5.781868
-5.7818389
-5.7818931
-5.7818913
-5.7818901
-5.7818911
-5.7818929
-5.781892
-5.7818839
-5.7818661
-5.7818399
-5.7818813
-5.78188
-5.7818793
-5.7818809
-5.7818835
-5.7818838
-5.7818776
-5.7818624
-5.7818394
-5.7818687
-5.7818678
-5.7818677
-5.7818698
-5.781873
-5.7818744
-5.78187
-5.7818571
-5.7818371
-5.7818559
-5.7818554
-5.7818558
-5.7818584
-5.7818625
-5.7818655
-5.7818636
-5.7818536
-5.7818357
-5.7818475
-5.7818472
-5.7818479
-5.781851
-5.7818564
-5.7818625
-5.7818662
-5.7818638
-5.7818534
-5.3848903
-5.3848914
-5.3848926
-5.3848934
-5.3848941
-5.384895
-5.3848967
-5.3848995
-5.3848998
-5.3848838
-5.384885
-5.3848862
-5.3848868
-5.3848869
-5.3848868
-5.3848869
-5.3848871
-5.3848854
-5.3848785
-5.3848797
-5.3848807
-5.384881
-5.3848806
-5.3848801
-5.3848802
-5.3848808
-5.384881
-5.3848729
-5.3848739
-5.3848746
-5.3848745
-5.3848738
-5.3848732
-5.3848738
-5.3848755
-5.3848774
-5.3848674
-5.3848682
-5.3848687
-5.3848681
-5.384867
-5.3848662
-5.3848672
-5.3848701
-5.3848737
-5.3848629
-5.3848634
-5.3848635
-5.3848625
-5.3848607
-5.3848596
-5.3848611
-5.3848652
-5.3848703
-5.3848592
-5.3848595
-5.3848593
-5.3848578
-5.3848556
-5.3848545
-5.3848564
-5.3848612
-5.3848676
-5.3848567
-5.3848568
-5.3848563
-5.3848545
-5.3848521
-5.3848509
-5.3848527
-5.384858
-5.3848655
-5.3848551
-5.384855
-5.3848543
-5.3848522
-5.3848495
-5.3848479
-5.3848496
-5.3848555
-5.3848639
-5.3848538
-5.3848536
-5.3848527
-5.3848503
-5.3848472
-5.3848454
-5.3848473
-5.3848537
-5.3848629
-5.384853
-5.3848527
-5.3848516
-5.384849
-5.3848456
-5.3848437
-5.3848458
-5.3848527
-5.3848624
-5.3848528
-5.3848524
-5.3848512
-5.3848485
-5.3848449
-5.3848429
-5.3848452
-5.3848523
-5.3848624
-5.3848531
-5.3848527
-5.3848515
-5.3848487
-5.3848451
-5.3848431
-5.3848454
-5.3848526
-5.3848629
-5.384854
-5.3848536
-5.3848524
-5.3848497
-5.3848462
-5.3848443
-5.3848465
-5.3848537
-5.384864
-5.3848553
-5.384855
-5.3848539
-5.3848514
-5.3848481
-5.3848462
-5.3848484
-5.3848554
-5.3848654
-5.3848569
-5.3848567
-5.3848557
-5.3848534
-5.3848505
-5.3848489
-5.3848509
-5.3848576
-5.3848672
-5.3848587
-5.3848586
-5.3848578
-5.3848557
-5.384853
-5.3848518
-5.3848541
-5.3848604
-5.3848694
-5.3848609
-5.384861
-5.3848604
-5.3848586
-5.3848561
-5.3848552
-5.3848576
-5.3848636
-5.3848718
-5.384864
-5.3848643
-5.384864
-5.3848626
-5.3848606
-5.3848597
-5.3848619
-5.3848675
-5.3848746
-5.3848676
-5.3848681
-5.3848682
-5.3848673
-5.3848659
-5.3848653
-5.3848672
-5.3848718
-5.3848776
-5.3848717
-5.3848724
-5.3848728
-5.3848724
-5.3848715
-5.3848712
-5.3848727
-5.3848763
-5.3848805
-5.3848757
-5.3848767
-5.3848774
-5.3848774
-5.3848769
-5.3848767
-5.3848776
-5.3848799
-5.3848825
-5.3848795
-5.3848806
-5.3848816
-5.384882
-5.384882
-5.384882
-5.3848826
-5.3848839
-5.3848847
-5.3848853
-5.3848863
-5.3848874
-5.3848882
-5.3848887
-5.3848893
-5.3848908
-5.3848937
-5.3848963
-4.985442
-4.985442
-4.9854422
-4.9854429
-4.985444
-4.985445
-4.9854454
-4.9854449
-4.9854427
-4.9854433
-4.9854433
-4.9854436
-4.9854442
-4.9854451
-4.9854454
-4.9854447
-4.9854425
-4.9854383
-4.9854455
-4.9854455
-4.9854456
-4.9854462
-4.9854469
-4.9854471
-4.9854462
-4.9854437
-4.9854395
-4.9854478
-4.9854476
-4.9854477
-4.9854481
-4.9854487
-4.9854489
-4.9854481
-4.9854456
-4.9854411
-4.98545
-4.9854498
-4.9854497
-4.98545
-4.9854505
-4.9854506
-4.9854497
-4.9854471
-4.9854426
-4.9854522
-4.9854519
-4.9854517
-4.9854518
-4.9854521
-4.9854521
-4.9854512
-4.9854486
-4.9854441
-4.9854541
-4.9854537
-4.9854533
-4.9854533
-4.9854534
-4.9854533
-4.9854524
-4.98545
-4.9854456
-4.9854557
-4.9854552
-4.9854547
-4.9854545
-4.9854545
-4.9854544
-4.9854536
-4.9854512
-4.985447
-4.9854571
-4.9854565
-4.9854559
-4.9854556
-4.9854555
-4.9854554
-4.9854546
-4.9854524
-4.9854482
-4.9854582
-4.9854575
-4.9854569
-4.9854565
-4.9854564
-4.9854562
-4.9854555
-4.9854533
-4.9854494
-4.9854591
-4.9854583
-4.9854576
-4.9854572
-4.985457
-4.9854569
-4.9854562
-4.9854541
-4.9854502
-4.9854596
-4.9854589
-4.9854581
-4.9854576
-4.9854574
-4.9854573
-4.9854566
-4.9854546
-4.9854509
-4.9854599
-4.9854591
-4.9854583
-4.9854578
-4.9854576
-4.9854574
-4.9854568
-4.9854549
-4.9854513
-4.9854598
-4.985459
-4.9854582
-4.9854577
-4.9854574
-4.9854573
-4.9854567
-4.9854549
-4.9854515
-4.9854593
-4.9854586
-4.9854578
-4.9854573
-4.985457
-4.9854568
-4.9854563
-4.9854546
-4.9854513
-4.9854585
-4.9854577
-4.985457
-4.9854565
-4.9854562
-4.9854561
-4.9854556
-4.985454
-4.9854509
-4.9854572
-4.9854565
-4.9854558
-4.9854553
-4.9854552
-4.985455
-4.9854546
-4.9854531
-4.9854501
-4.9854554
-4.9854547
-4.9854541
-4.9854538
-4.9854537
-4.9854537
-4.9854533
-4.9854519
-4.985449
-4.985453
-4.9854524
-4.9854519
-4.9854517
-4.9854518
-4.9854519
-4.9854516
-4.9854503
-4.9854475
-4.98545
-4.9854495
-4.9854491
-4.985449
-4.9854493
-4.9854497
-4.9854495
-4.9854484
-4.9854457
-4.9854465
-4.9854461
-4.9854459
-4.985446
-4.9854465
-4.9854469
-4.985447
-4.9854459
-4.9854434
-4.9854428
-4.9854426
-4.9854425
-4.9854429
-4.9854435
-4.9854439
-4.9854438
-4.9854426
-4.9854404
-4.9854393
-4.9854392
-4.9854393
-4.9854398
-4.9854406
-4.985441
-4.9854406
-4.9854393
-4.9854374
-4.9854372
-4.9854372
-4.9854374
-4.985438
-4.9854389
-4.9854397
-4.9854398
-4.9854396
-4.9854394
-4.5868278
-4.586828
-4.5868282
-4.5868284
-4.5868286
-4.5868289
-4.5868293
-4.5868298
-4.5868288
-4.5868275
-4.5868277
-4.5868279
-4.5868281
-4.5868281
-4.5868282
-4.5868281
-4.5868275
-4.5868259
-4.5868273
-4.5868275
-4.5868277
-4.5868278
-4.5868278
-4.5868277
-4.5868274
-4.5868265
-4.5868251
-4.5868269
-4.586827
-4.5868272
-4.5868272
-4.5868272
-4.5868271
-4.5868266
-4.5868258
-4.5868245
-4.5868262
-4.5868263
-4.5868264
-4.5868264
-4.5868263
-4.5868261
-4.5868257
-4.5868251
-4.5868241
-4.5868255
-4.5868256
-4.5868256
-4.5868254
-4.5868252
-4.586825
-4.5868248
-4.5868244
-4.5868237
-4.5868249
-4.5868249
-4.5868248
-4.5868245
-4.5868242
-4.5868239
-4.5868238
-4.5868237
-4.5868234
-4.5868244
-4.5868244
-4.5868242
-4.5868238
-4.5868234
-4.5868231
-4.5868231
-4.5868232
-4.5868233
-4.5868242
-4.5868241
-4.5868238
-4.5868234
-4.5868229
-4.5868225
-4.5868226