/*--------------------------------*- C++ -*----------------------------------*\
| =========                 |                                                 |
| \\      /  F ield         | OpenFOAM: The Open Source CFD Toolbox           |
|  \\    /   O peration     | Version:  2406                                  |
|   \\  /    A nd           | Website:  www.openfoam.com                      |
|    \\/     M anipulation  |                                                 |
\*---------------------------------------------------------------------------*/
FoamFile
{
    version     2.0;
    format      ascii;
    arch        "LSB;label=32;scalar=64";
    class       surfaceScalarField;
    location    "11";
    object      phi;
}
// * * * * * * * * * * * * * * * * * * * * * * * * * * * * * * * * * * * * * //

dimensions      [0 3 -1 0 0 0 0];

oriented        oriented;

internalField   nonuniform List<scalar> 
101088
(
-0.00017510267
3.7861117e-05
-1.4444263e-05
-3.191168e-05
-0.0003913926
0.00017269314
-6.6999365e-05
-0.00014632886
-0.0006336944
0.00043349102
-0.00017184072
-0.00036879398
-0.00086595995
0.00084307608
-0.00034491563
-0.0007224564
-0.0010391965
0.0013553047
-0.00057235794
-0.0011744126
-0.0011288854
0.0018626889
-0.00079330324
-0.0016302258
-0.0011688605
0.0022587941
-0.00092341232
-0.0019828846
-0.0012257768
0.0024726807
-0.00091487414
-0.002160735
0.0024608734
-0.00078775521
-0.0021483914
-0.0013249694
-0.00021252506
4.19243e-05
-1.6758095e-05
-0.00046851669
0.00019229894
-7.8369359e-05
-0.00074270609
0.00048252339
-0.00020238645
-0.00098258269
0.00093259915
-0.00040779095
-0.0011282959
0.0014870553
-0.00067673514
-0.0011611977
0.0020335585
-0.00093607524
-0.0011303413
0.0024675667
-0.0010890427
-0.0011117945
0.002713279
-0.001084606
0.0027082284
-0.00094743486
-0.0011438294
-0.00025097712
4.4191284e-05
-1.8517782e-05
-0.00054792076
0.00020394556
-8.754365e-05
-0.00085561687
0.000512819
-0.00022805534
-0.0011076401
0.0009876695
-0.00046159408
-0.0012336778
0.0015647352
-0.00076535053
-0.0012183027
0.0021320496
-0.001053859
-0.0011240692
0.0025915488
-0.0012205564
-0.0010391613
0.0028640519
-0.0012145706
0.0028748587
-0.0010668926
-0.0010143412
-0.00028889406
4.4572263e-05
-1.9716085e-05
-0.00062693938
0.00020706443
-9.4375125e-05
-0.00096856509
0.0005219753
-0.00024828049
-0.0012335278
0.0010029988
-0.00050516558
-0.0013446612
0.0015823985
-0.00083691071
-0.0012919024
0.0021528983
-0.0011463705
-0.0011510303
0.002627407
-0.0013199036
-0.0010171796
0.002920401
-0.0013079458
0.0029510789
-0.0011499556
-0.00094637393
-0.00032482591
4.2508208e-05
-2.0237785e-05
-0.00070195306
0.00019989717
-9.8392757e-05
-0.0010768906
0.00050741622
-0.00026210584
-0.0013580592
0.00097654152
-0.00053714452
-0.0014631809
0.0015396038
-0.00089054672
-0.0013874154
0.0020974282
-0.0012146365
-0.0012147243
0.0025731439
-0.0013887699
-0.001046496
0.002879486
-0.0013685018
0.0029304134
-0.0012009558
-0.00093935225
-0.00035944471
3.8911716e-05
-2.0145551e-05
-0.00077693396
0.00018513115
-9.9775157e-05
-0.0011899057
0.00047339649
-0.00026982232
-0.0014954426
0.0009131305
-0.00055813949
-0.001605318
0.001440024
-0.00092709283
-0.0015191466
0.0019670076
-0.0012592478
-0.001326797
0.0024274962
-0.0014297141
-0.0011337206
0.0027373015
-0.0013997898
0.0028054373
-0.0012237867
-0.00099521045
-0.00039057638
3.3776758e-05
-1.9517777e-05
-0.00084544932
0.00016294325
-9.8709199e-05
-0.0012955043
0.00042056009
-0.00027152573
-0.0016288126
0.00081477544
-0.00056778056
-0.0017531578
0.0012881895
-0.00094600458
-0.0016706355
0.0017672728
-0.0012807486
-0.0014714934
0.0021933476
-0.0014444488
-0.0012643704
0.002494686
-0.001404446
0.0025744865
-0.0012218158
-0.0011017374
-0.00041802449
2.748541e-05
-1.8431742e-05
-0.00090762151
0.00013478383
-9.5503387e-05
-0.0013947521
0.00035192861
-0.00026788832
-0.0017599829
0.00068628673
-0.00056731915
-0.0019071473
0.0010900824
-0.00094940885
-0.0018397829
0.001504924
-0.0012823552
-0.0016436225
0.0018747707
-0.0014373248
-0.001430162
0.0021536632
-0.0013873331
0.0022370636
-0.0011999743
-0.0012478814
-0.00044128634
2.0537022e-05
-1.7066057e-05
-0.00096218117
0.00010259889
-9.0858728e-05
-0.0014851776
0.00027144944
-0.00026037266
-0.0018845258
0.00053360768
-0.00055914108
-0.0020597704
0.00085264796
-0.00094074013
-0.0020146585
0.0011870154
-0.0012684736
-0.0018314488
0.0014818584
-0.0014142031
-0.0016160472
0.0017185399
-0.0013545259
0.0017959624
-0.0011641751
-0.0014168166
-0.00045983719
1.3511108e-05
-1.5670517e-05
-0.0010074895
6.8699243e-05
-8.579929e-05
-0.0015633024
0.00018397144
-0.00025118007
-0.001996432
0.00036432554
-0.00054684778
-0.0022020328
0.00058542706
-0.00092507184
-0.0021796027
0.00082084391
-0.0012456994
-0.0020142295
0.0010271962
-0.0013826576
-0.0017999333
0.0012001356
-0.0013142329
0.0012606877
-0.0011222807
-0.0015859294
-0.00047275983
6.7368623e-06
-1.4566987e-05
-0.0010400326
3.4532898e-05
-8.1612765e-05
-0.0016210323
9.3024281e-05
-0.00024303382
-0.0020814447
0.00018484178
-0.00053482688
-0.0023128913
0.00029790176
-0.00090857355
-0.0023107542
0.00041947358
-0.0012222093
-0.0021619568
0.00052621645
-0.0013515335
-0.0019505746
0.0006176982
-0.0012762832
0.00065117498
-0.0010837404
-0.0017253845
-0.00047932189
-3.7792623e-11
-1.3885445e-05
-0.0010567748
-1.4885557e-10
-7.899435e-05
-0.0016512597
-3.8835721e-10
-0.00023782179
-0.0021270237
-8.1060927e-10
-0.00052695673
-0.0023738324
-1.5204862e-09
-0.00089776844
-0.0023846298
-1.9942694e-09
-0.0012072622
-0.0022459876
-1.7109454e-09
-0.0013320819
-0.0020371078
-3.5819437e-10
-0.0012530332
1.2288516e-09
-0.0010603031
-0.0018059255
-0.0004793219
-6.7369646e-06
-1.3885445e-05
-0.0010567749
-3.4533275e-05
-7.8994348e-05
-0.0016512596
-9.3025056e-05
-0.00023782178
-0.0021270237
-0.00018484332
-0.00052695671
-0.0023738323
-0.00029790459
-0.00089776841
-0.0023846294
-0.00041947743
-0.0012072621
-0.002245987
-0.00052622011
-0.0013320819
-0.0020371072
-0.00061769933
-0.0012530331
-0.00065117268
-0.0010603031
-0.0018059249
-0.00047275976
-1.3511212e-05
-1.4566991e-05
-0.0010400327
-6.8699656e-05
-8.1612785e-05
-0.0016210324
-0.00018397229
-0.00024303386
-0.0020814451
-0.0003643273
-0.00053482696
-0.0023128914
-0.00058543005
-0.00090857369
-0.0023107538
-0.00082084808
-0.0012222094
-0.0021619559
-0.0010272007
-0.0013515336
-0.0019505731
-0.0012001377
-0.0012762833
-0.0012606859
-0.0010837404
-0.0017253829
-0.00045983719
-2.0537068e-05
-1.5670518e-05
-0.0010074894
-0.00010259911
-8.5799292e-05
-0.0015633026
-0.0002714503
-0.00025118007
-0.0019964319
-0.00053360984
-0.00054684777
-0.0022020323
-0.00085265141
-0.00092507181
-0.0021796019
-0.00118702
-0.0012456994
-0.0020142282
-0.0014818633
-0.0013826576
-0.0017999312
-0.0017185424
-0.001314233
-0.0017959607
-0.0011222807
-0.0015859271
-0.00044128624
-2.7485399e-05
-1.7066058e-05
-0.00096218106
-0.00013478392
-9.0858735e-05
-0.0014851776
-0.00035192934
-0.00026037267
-0.0018845252
-0.00068628881
-0.00055914109
-0.0020597696
-0.001090086
-0.00094074012
-0.0020146578
-0.0015049288
-0.0012684736
-0.0018314476
-0.0018747755
-0.0014142033
-0.001616045
-0.0021536653
-0.0013545261
-0.0022370617
-0.0011641751
-0.0014168142
-0.00041802427
-3.3776867e-05
-1.8431747e-05
-0.00090762119
-0.0001629436
-9.5503404e-05
-0.0013947519
-0.00042056099
-0.00026788836
-0.0017599825
-0.00081477751
-0.00056731924
-0.0019071468
-0.001288193
-0.00094940898
-0.0018397825
-0.0017672774
-0.0012823554
-0.0016436217
-0.0021933523
-0.001437325
-0.0014301605
-0.0024946882
-0.0013873333
-0.0025744845
-0.0011999743
-0.0012478801
-0.00039057654
-3.891178e-05
-1.9517783e-05
-0.00084544943
-0.00018513137
-9.8709228e-05
-0.0012955046
-0.00047339721
-0.0002715258
-0.001628813
-0.00091313236
-0.00056778072
-0.001753158
-0.0014400272
-0.00094600483
-0.0016706355
-0.0019670115
-0.0012807488
-0.001471493
-0.0024275005
-0.0014444491
-0.0012643699
-0.0027373042
-0.0014044462
-0.0028054353
-0.0012218158
-0.0011017368
-0.000359445
-4.2508321e-05
-2.0145559e-05
-0.00077693436
-0.00019989753
-9.9775194e-05
-0.0011899061
-0.00050741708
-0.00026982241
-0.0014954437
-0.0009765433
-0.00055813971
-0.0016053191
-0.0015396066
-0.00092709317
-0.0015191475
-0.0020974318
-0.0012592481
-0.0013267979
-0.002573148
-0.0014297144
-0.0011337211
-0.0028794892
-0.00139979
-0.0029304124
-0.0012237867
-0.00099521021
-0.000324826
-4.4572328e-05
-2.0237786e-05
-0.00070195326
-0.00020706465
-9.839276e-05
-0.0010768907
-0.00052197569
-0.00026210585
-0.0013580598
-0.0010029998
-0.00053714457
-0.0014631819
-0.0015824007
-0.00089054678
-0.0013874163
-0.0021529014
-0.0012146364
-0.0012147259
-0.0026274108
-0.0013887698
-0.0010464975
-0.0029204042
-0.0013685019
-0.0029510793
-0.0012009558
-0.00093935205
-0.00028889413
-4.4191271e-05
-1.9716081e-05
-0.00062693965
-0.00020394556
-9.4375109e-05
-0.00096856551
-0.00051281905
-0.00024828045
-0.0012335284
-0.00098767019
-0.0005051655
-0.0013446623
-0.0015647374
-0.00083691056
-0.001291904
-0.0021320529
-0.0011463702
-0.0011510327
-0.0025915522
-0.0013199033
-0.001017182
-0.0028640552
-0.0013079457
-0.0028748618
-0.0011499555
-0.00094637405
-0.00025097706
-4.1924222e-05
-1.8517775e-05
-0.00054792076
-0.00019229873
-8.754362e-05
-0.00085561708
-0.00048252317
-0.00022805527
-0.0011076403
-0.00093259944
-0.00046159394
-0.0012336784
-0.0014870568
-0.0007653503
-0.0012183041
-0.0020335613
-0.0010538587
-0.0011240717
-0.0024675691
-0.0012205561
-0.0010391642
-0.0027132819
-0.0012145704
-0.0027082337
-0.0010668924
-0.0010143424
-0.00021252501
-3.786105e-05
-1.6758093e-05
-0.00046851663
-0.00017269298
-7.8369353e-05
-0.00074270619
-0.00043349087
-0.00020238644
-0.00098258295
-0.0008430762
-0.00040779091
-0.0011282966
-0.0013553056
-0.00067673505
-0.0011611988
-0.0018626907
-0.00093607518
-0.0011303432
-0.0022587959
-0.0010890426
-0.0011117961
-0.0024726842
-0.001084606
-0.002460879
-0.00094743485
-0.0011438304
-0.00017510263
-1.4444264e-05
-3.1911679e-05
-0.00039139238
-6.699937e-05
-0.00014632888
-0.00063369394
-0.00017184073
-0.00036879406
-0.00086595935
-0.00034491564
-0.00072245666
-0.0010391964
-0.00057235798
-0.0011744132
-0.001128886
-0.00079330332
-0.0016302269
-0.001168861
-0.00092341242
-0.001982886
-0.0012257788
-0.00091487428
-0.0021607368
-0.00078775528
-0.002148395
-0.0013249735
1.2342427e-06
-1.0687778e-06
-1.4402789e-05
-2.0693803e-07
5.1739474e-06
-5.4993673e-06
-6.5466895e-05
2.7146048e-08
1.1132176e-05
-1.6148037e-05
-0.00016451224
2.8612097e-06
1.6385365e-05
-3.9169456e-05
-0.00032404909
1.3049508e-05
1.9258946e-05
-8.2066968e-05
-0.00053133221
3.8167432e-05
2.3260009e-05
-0.00014666114
-0.00073345023
8.2807007e-05
3.5686454e-05
-0.00022256115
-0.00085435757
0.00014108002
6.1225527e-05
-0.00028991405
-0.00084825689
0.00019775785
-0.00032747264
-0.00073098393
0.00023661861
9.5308259e-05
2.0177794e-06
-2.7805311e-06
-1.7064127e-05
8.519565e-06
-1.2806506e-05
-7.756399e-05
1.8374064e-05
-3.3515435e-05
-0.0001948735
2.6636679e-05
-7.1941326e-05
-0.0003832817
2.9273671e-05
-0.00013466015
-0.00062677898
2.9280349e-05
-0.00021995178
-0.00086279136
3.4741138e-05
-0.00031264561
-0.0010044189
5.1263702e-05
-0.00038881017
-0.0010022323
-0.00042630377
-0.00087685846
7.9518348e-05
3.0129571e-06
-4.8480483e-06
-1.946325e-05
1.2573612e-05
-2.1430656e-05
-8.8480248e-05
2.6686189e-05
-5.3498864e-05
-0.00022218469
3.7616773e-05
-0.00010848527
-0.00043598104
3.8770314e-05
-0.00019124064
-0.00070992381
3.2996269e-05
-0.00029617836
-0.00097185831
2.9671548e-05
-0.00040392402
-0.0011259532
3.6110157e-05
-0.00048730718
-0.0011225121
-0.00052270906
-0.00098894692
5.456983e-05
4.1252037e-06
-7.0751672e-06
-2.1614156e-05
1.7070878e-05
-3.0532306e-05
-9.8219115e-05
3.5722084e-05
-7.4065115e-05
-0.00024636549
4.9058236e-05
-0.00014495483
-0.00048203229
4.785043e-05
-0.00024583066
-0.00078111278
3.5376902e-05
-0.00036753888
-0.0010625362
2.2667157e-05
-0.0004877543
-0.0012233635
1.9021939e-05
-0.00057600768
-0.0012156001
-0.00060729544
-0.0010738161
2.746886e-05
5.2375121e-06
-9.1456315e-06
-2.3404848e-05
2.1582763e-05
-3.8883962e-05
-0.00010638643
4.4673993e-05
-9.255631e-05
-0.00026670604
6.0066839e-05
-0.00017684125
-0.00052065101
5.5963207e-05
-0.00029212351
-0.00084015015
3.6398363e-05
-0.00042645405
-0.0011361565
1.5097138e-05
-0.00055511817
-0.0013001047
2.7284431e-06
-0.00064551673
-0.0012866242
-0.00067120642
-0.0011370325
2.7161568e-06
6.4387958e-06
-1.0851801e-05
-2.4878129e-05
2.6473089e-05
-4.5562472e-05
-0.00011313094
5.443017e-05
-0.00010682743
-0.00028350835
7.2202694e-05
-0.00020035621
-0.00055239701
6.5488676e-05
-0.00032438841
-0.00088811383
3.9568147e-05
-0.00046503231
-0.0011947493
1.0810475e-05
-0.00059665366
-0.001359421
-8.9503001e-06
-0.00068578421
-0.0013397615
-0.00070503329
-0.0011830077
-1.5902323e-05
7.5057803e-06
-1.1818691e-05
-2.6056667e-05
3.0894953e-05
-4.9150218e-05
-0.00011851064
6.3302289e-05
-0.00011391798
-0.00029684244
8.3215818e-05
-0.00021069225
-0.00057735817
7.4197168e-05
-0.00033610174
-0.00092527269
4.3028706e-05
-0.00047547335
-0.0012391393
8.5369873e-06
-0.0006035828
-0.0014030281
-1.6447125e-05
-0.00068766296
-0.0013775829
-0.00070056114
-0.001214867
-2.7867852e-05
8.4147525e-06
-1.1743029e-05
-2.6922189e-05
3.4753329e-05
-4.8483604e-05
-0.00012250852
7.1178258e-05
-0.00011141205
-0.0003068193
9.3180679e-05
-0.00020396592
-0.00059604797
8.2495899e-05
-0.00032192881
-0.00095289723
4.7441807e-05
-0.00045120295
-0.0012715715
8.9002031e-06
-0.00056834871
-0.0014340173
-1.9185399e-05
-0.00064333343
-0.0014035769
-0.0006507497
-0.0012361263
-3.284468e-05
9.1239976e-06
-1.0421894e-05
-2.7511268e-05
3.7880413e-05
-4.281391e-05
-0.00012528485
7.7743369e-05
-9.7803391e-05
-0.00031384424
0.00010174636
-0.00017781006
-0.00060929994
9.0155951e-05
-0.00027863779
-0.00097244088
5.2757388e-05
-0.00038809344
-0.0012941846
1.1528092e-05
-0.0004862856
-0.001455037
-1.7820197e-05
-0.00054793908
-0.0014205721
-0.00055129799
-0.0012495681
-3.1878949e-05
9.6495899e-06
-7.8570241e-06
-2.7885001e-05
4.0292709e-05
-3.2160333e-05
-0.00012709602
8.2984094e-05
-7.316907e-05
-0.00031850568
0.00010888836
-0.00013240256
-0.00061815943
9.7132876e-05
-0.00020649104
-0.00098546313
5.8720645e-05
-0.00028638512
-0.0013089957
1.5877643e-05
-0.0003577461
-0.0014683543
-1.3551759e-05
-0.00040188765
-0.001430855
-0.00040285513
-0.0012573551
-2.6920253e-05
9.9951263e-06
-4.2589875e-06
-2.8160145e-05
4.1921862e-05
-1.736184e-05
-0.00012833794
8.6602292e-05
-3.9352582e-05
-0.00032153063
0.00011397214
-7.0956129e-05
-0.00062364306
0.00010238867
-0.00011030069
-0.00099318054
6.3713192e-05
-0.00015256453
-0.0013173546
2.0039843e-05
-0.0001902071
-0.0014753993
-8.9364648e-06
-0.00021332373
-0.0014358707
-0.00021338299
-0.0012608922
-2.125671e-05
1.008573e-05
1.530329e-12
-2.823014e-05
4.2467008e-05
1.1238137e-11
-0.00012873738
8.7950574e-05
2.4919253e-11
-0.00032265786
0.00011593838
-3.6394375e-11
-0.00062590052
0.00010442653
-2.1746388e-10
-0.00099655714
6.5713098e-05
-4.2578691e-10
-0.0013211128
2.1980373e-05
-4.6230045e-10
-0.0014785558
-6.3251095e-06
-1.7384584e-10
-0.0014380512
3.2902821e-10
-0.0012623765
-1.7634988e-05
1.0085731e-05
4.2589784e-06
-2.8230137e-05
4.2467001e-05
1.736182e-05
-0.00012873736
8.795053e-05
3.9352547e-05
-0.00032265783
0.0001159383
7.0955951e-05
-0.00062590047
0.00010442651
0.00011030019
-0.00099655707
6.5713129e-05
0.00015256366
-0.0013211127
2.1980442e-05
0.00019020615
-0.0014785558
-6.3250271e-06
0.00021332329
-0.0014380511
0.00021338345
-0.0012623765
-1.763484e-05
9.9951293e-06
7.8570162e-06
-2.8160147e-05
4.1921874e-05
3.2160309e-05
-0.00012833795
8.660227e-05
7.3169016e-05
-0.00032153065
0.00011397208
0.00013240236
-0.00062364311
0.0001023887
0.00020649057
-0.00099318062
6.3713306e-05
0.00028638429
-0.0013173547
2.0039996e-05
0.00035774512
-0.0014753994
-8.9363096e-06
0.00040188709
-0.0014358708
0.00040285538
-0.0012608923
-2.1256394e-05
9.6496011e-06
1.0421877e-05
-2.7884996e-05
4.0292748e-05
4.2813875e-05
-0.000127096
8.2984097e-05
9.7803285e-05
-0.00031850564
0.00010888837
0.00017780975
-0.00061815935
9.7132995e-05
0.00027863721
-0.00098546302
5.872086e-05
0.00038809258
-0.0013089956
1.5877888e-05
0.00048628456
-0.0014683541
-1.3551565e-05
0.0005479386
-0.001430855
0.00055129843
-0.0012573551
-2.6920047e-05
9.1240581e-06
1.1743017e-05
-2.7511266e-05
3.7880454e-05
4.8483597e-05
-0.00012528484
7.7743375e-05
0.00011141193
-0.00031384422
0.00010174643
0.0002039655
-0.0006092999
9.0156179e-05
0.00032192809
-0.00097244082
5.2757693e-05
0.00045120193
-0.0012941845
1.1528433e-05
0.00056834759
-0.001455037
-1.7819964e-05
0.00064333313
-0.0014205721
0.00065075062
-0.0012495681
-3.1879115e-05
8.4147839e-06
1.1818678e-05
-2.6922189e-05
3.4753305e-05
4.9150216e-05
-0.00012250852
7.1178309e-05
0.00011391788
-0.00030681931
9.318078e-05
0.00021069179
-0.000596048
8.2496175e-05
0.00033610093
-0.00095289725
4.7442198e-05
0.00047547205
-0.0012715716
8.9006985e-06
0.00060358144
-0.0014340174
-1.9185028e-05
0.0006876625
-0.0014035769
0.00070056242
-0.0012361263
-3.2844848e-05
7.5057932e-06
1.0851777e-05
-2.605667e-05
3.0895008e-05
4.5562418e-05
-0.00011851065
6.3302322e-05
0.00010682724
-0.00029684248
8.3215908e-05
0.00020035569
-0.00057735825
7.4197313e-05
0.00032438746
-0.00092527281
4.3029094e-05
0.0004650308
-0.0012391394
8.5375374e-06
0.00059665209
-0.0014030282
-1.6446645e-05
0.00068578338
-0.001377583
0.00070503454
-0.001214867
-2.7867623e-05
6.4387644e-06
9.1455931e-06
-2.4878138e-05
2.6473104e-05
3.8883841e-05
-0.00011313098
5.4430297e-05
9.2556051e-05
-0.00028350843
7.2202762e-05
0.00017684063
-0.00055239718
6.5488729e-05
0.00029212238
-0.00088811407
3.956848e-05
0.0004264525
-0.0011947495
1.0810881e-05
0.00055511647
-0.0013594212
-8.9498156e-06
0.00064551565
-0.0013397617
0.00067120717
-0.0011830077
-1.590175e-05
5.2375089e-06
7.0751367e-06
-2.3404849e-05
2.1582818e-05
3.0532189e-05
-0.00010638643
4.4674196e-05
7.4064862e-05
-0.00026670603
6.0067066e-05
0.00014495422
-0.00052065102
5.5963377e-05
0.00024582948
-0.00084015018
3.6398574e-05
0.00036753728
-0.0011361565
1.5097311e-05
0.00048775248
-0.0013001047
2.7287531e-06
0.00057600641
-0.0012866243
0.00060729555
-0.0011370325
2.717028e-06
4.1251799e-06
4.8480207e-06
-2.1614154e-05
1.7070858e-05
2.1430557e-05
-9.8219101e-05
3.5722178e-05
5.3498667e-05
-0.00024636545
4.9058521e-05
0.00010848481
-0.00048203223
4.7850616e-05
0.00019123962
-0.00078111268
3.5376856e-05
0.00029617681
-0.0010625361
2.266704e-05
0.00040392229
-0.0012233634
1.902214e-05
0.00048730558
-0.0012156
0.00052270833
-0.001073816
2.7469749e-05
3.0129629e-06
2.7805344e-06
-1.9463244e-05
1.2573682e-05
1.2806504e-05
-8.8480222e-05
2.6686376e-05
3.3515376e-05
-0.00022218463
3.7617082e-05
7.1941071e-05
-0.00043598092
3.8770512e-05
0.00013465946
-0.00070992363
3.2996163e-05
0.00021995047
-0.00097185811
2.9671214e-05
0.00031264399
-0.001125953
3.6109959e-05
0.00038880821
-0.0011225119
0.0004263025
-0.00098894684
5.457019e-05
2.0178143e-06
1.0687819e-06
-1.7064126e-05
8.5197012e-06
5.4993566e-06
-7.7563987e-05
1.8374331e-05
1.6147943e-05
-0.00019487349
2.6637135e-05
3.9169237e-05
-0.00038328167
2.9274206e-05
8.2066513e-05
-0.00062677893
2.9280709e-05
0.00014666026
-0.00086279132
3.4740945e-05
0.00022255994
-0.0010044188
5.1263102e-05
0.00028991237
-0.0010022323
0.00032747135
-0.00087685843
7.9517766e-05
1.2342678e-06
-1.4402791e-05
-2.0695453e-07
5.1740678e-06
-6.5466902e-05
2.706624e-08
1.1132454e-05
-0.00016451226
2.8610105e-06
1.6385984e-05
-0.00032404911
1.3049121e-05
1.925984e-05
-0.00053133224
3.8166722e-05
2.3261094e-05
-0.00073345028
8.2805777e-05
3.5687685e-05
-0.0008543576
0.00014107854
6.1225614e-05
-0.00084825697
0.00019775717
-0.00073098397
0.00023661837
9.5307063e-05
-2.740595e-07
1.6375012e-06
-1.421036e-05
-1.5558705e-06
-1.609798e-06
7.1340691e-06
-6.4447327e-05
-6.8179182e-06
-4.6805588e-06
1.704453e-05
-0.00016210569
-1.6380377e-05
-9.3939327e-06
3.1225696e-05
-0.00032025037
-3.0311161e-05
-1.4512263e-05
4.6237731e-05
-0.00052667392
-4.5777876e-05
-1.8165919e-05
5.5822186e-05
-0.0007284359
-5.7183013e-05
-1.915676e-05
5.5084021e-05
-0.00084892311
-5.9527724e-05
-1.7884793e-05
4.4866354e-05
-0.00084210758
-5.2287704e-05
3.0544422e-05
-0.00072441314
-3.8667438e-05
-1.6332653e-05
-2.8531892e-07
1.6487397e-06
-1.6790051e-05
-1.6963602e-06
7.1378041e-06
-7.6156686e-05
-4.7698244e-06
1.688428e-05
-0.00019163979
-8.9016165e-06
3.0449949e-05
-0.00037837422
-1.2347193e-05
4.4049197e-05
-0.00062114497
-1.3259601e-05
5.1271749e-05
-0.00085732864
-1.1082588e-05
4.7593989e-05
-0.00099910591
-6.9576052e-06
3.4897184e-05
-0.00099638814
1.9847701e-05
-0.00087016635
-2.9530236e-06
-2.5865098e-07
1.5691143e-06
-1.9124988e-05
-1.6107635e-06
6.7578599e-06
-8.6748234e-05
-4.5284249e-06
1.5870413e-05
-0.00021825327
-8.1226091e-06
2.8240462e-05
-0.00043017757
-1.027639e-05
3.9894993e-05
-0.00070361604
-9.0938883e-06
4.455489e-05
-0.00096632406
-4.5731542e-06
3.8299521e-05
-0.0011211795
1.2928844e-06
2.3933169e-05
-0.0011174142
9.0003087e-06
-0.00098266045
5.8537696e-06
-2.1940363e-07
1.407547e-06
-2.1233179e-05
-1.4713356e-06
6.0419515e-06
-9.6251254e-05
-4.143116e-06
1.4116703e-05
-0.00024194
-7.0804592e-06
2.4830399e-05
-0.00047568494
-7.949044e-06
3.4262691e-05
-0.00077461192
-4.9804132e-06
3.6501376e-05
-0.0010574514
1.214105e-06
2.8312981e-05
-0.0012195715
7.8602138e-06
1.3279694e-05
-0.0012115927
-7.1280003e-07
-0.0010682285
1.1985677e-05
-1.6219781e-07
1.177406e-06
-2.3012514e-05
-1.261024e-06
5.061747e-06
-0.00010430744
-3.6183017e-06
1.1823643e-05
-0.00026205579
-5.8754253e-06
2.0632649e-05
-0.00051419623
-5.5548672e-06
2.7811892e-05
-0.00083401997
-1.0894452e-06
2.799685e-05
-0.0011321174
6.2923066e-06
1.8635412e-05
-0.0012978089
1.3174618e-05
3.8218824e-06
-0.0012840488
-8.6899457e-06
-0.0011323859
1.6505034e-05
-1.1332585e-07
9.2224692e-07
-2.4509625e-05
-1.0808354e-06
3.9793414e-06
-0.00011108102
-3.1571288e-06
9.3212368e-06
-0.00027892968
-4.7894167e-06
1.6163629e-05
-0.00054629573
-3.3849128e-06
2.121718e-05
-0.00088292362
2.3914081e-06
1.9803229e-05
-0.0011923321
1.0693467e-05
1.0029012e-05
-0.0013591166
1.7546685e-05
-3.8335607e-06
-0.0013389593
-1.4525463e-05
-0.0011795549
1.9929417e-05
-5.838491e-08
6.6529891e-07
-2.5741342e-05
-8.7585433e-07
2.8970751e-06
-0.00011661092
-2.6470315e-06
6.8434625e-06
-0.00029259352
-3.6669682e-06
1.1829325e-05
-0.00057200398
-1.2864755e-06
1.5051572e-05
-0.00092148757
5.5745896e-06
1.2598221e-05
-0.0012387954
1.4530545e-05
3.1364449e-06
-0.0014050915
2.1175838e-05
-9.1972377e-06
-0.0013788644
-1.7931673e-05
-0.0012128615
2.2576631e-05
-6.1126482e-09
4.3427093e-07
-2.6685073e-05
-6.8065974e-07
1.9243313e-06
-0.00012086121
-2.1657156e-06
4.6200382e-06
-0.00030311086
-2.6258314e-06
7.9845795e-06
-0.00059174313
5.9246695e-07
9.7817517e-06
-0.00095084575
8.3488348e-06
6.8647947e-06
-0.0012735945
1.778092e-05
-1.6321062e-06
-0.0014386809
2.4161302e-05
-1.1992965e-05
-0.0014071614
-1.8768459e-05
-0.0012357907
2.4662626e-05
3.8988155e-08
2.506845e-07
-2.7366703e-05
-5.1328376e-07
1.1435901e-06
-0.00012395184
-1.7549291e-06
2.8195342e-06
-0.00031080209
-1.753661e-06
4.890542e-06
-0.00060620716
2.1705721e-06
5.6838038e-06
-0.00097226719
1.0649346e-05
2.8697968e-06
-0.0012986683
2.0431768e-05
-4.0923426e-06
-0.0014623592
2.6566789e-05
-1.2146622e-05
-0.0014265534
-1.7060939e-05
-0.0012510566
2.6347803e-05
7.4321108e-08
1.2365114e-07
-2.7832304e-05
-3.8369808e-07
5.8888975e-07
-0.00012608332
-1.4352303e-06
1.5062598e-06
-0.00031614087
-1.0663816e-06
2.6260765e-06
-0.00061626381
3.3965939e-06
2.8434024e-06
-0.00098708573
1.2429281e-05
6.1855905e-07
-0.0013157773
2.2469791e-05
-4.3279593e-06
-0.0014781592
2.8433884e-05
-9.8363625e-06
-0.0014391294
-1.3018641e-05
-0.0012606676
2.7704166e-05
9.6096975e-08
4.5770181e-08
-2.8178364e-05
-3.0312537e-07
2.3079897e-07
-0.00012758061
-1.2266077e-06
6.1598712e-07
-0.00031971686
-5.9924647e-07
1.0796758e-06
-0.000622724
4.2456445e-06
1.0760972e-06
-0.00099625814
1.3652066e-05
-1.5532617e-07
-0.0013259872
2.3875877e-05
-2.7261748e-06
-0.0014872249
2.976429e-05
-5.5184988e-06
-0.001446077
-7.0772469e-06
-0.0012657583
2.8689021e-05
1.0700903e-07
-1.7969087e-11
-2.8291359e-05
-2.6394335e-07
-6.5313635e-11
-0.00012813554
-1.1264732e-06
-1.4723704e-10
-0.00032117917
-3.7656243e-07
-2.8734264e-10
-0.00062557041
4.6491605e-06
-4.7015398e-10
-0.0010005063
1.4237036e-05
-6.2667347e-10
-0.0013308554
2.4565547e-05
-5.7397e-10
-0.0014916099
3.0449493e-05
-1.0957279e-10
-0.0014494535
6.1469514e-10
-0.0012682181
2.921331e-05
1.070116e-07
-4.5807838e-08
-2.8291355e-05
-2.6391839e-07
-2.3093274e-07
-0.00012813552
-1.1264191e-06
-6.1628277e-07
-0.00032117913
-3.7649883e-07
-1.0802498e-06
-0.00062557035
4.6492255e-06
-1.0770433e-06
-0.0010005062
1.4237112e-05
1.5405266e-07
-0.0013308553
2.4565644e-05
2.7250098e-06
-0.0014916098
3.0449579e-05
5.5182414e-06
-0.0014494535
7.0784046e-06
-0.0012682181
2.921337e-05
9.6104674e-08
-1.2368801e-07
-2.8178364e-05
-3.0307911e-07
-5.8902052e-07
-0.00012758061
-1.2265129e-06
-1.5065427e-06
-0.00031971686
-5.9912559e-07
-2.6266252e-06
-0.00062272401
4.245786e-06
-2.8443277e-06
-0.00099625815
1.3652256e-05
-6.1983932e-07
-0.0013259873
2.3876109e-05
4.3267334e-06
-0.001487225
2.9764499e-05
9.8360204e-06
-0.001446077
1.3019703e-05
-0.0012657583
2.8689181e-05
7.4342447e-08
-2.5071785e-07
-2.7832298e-05
-3.8362743e-07
-1.143708e-06
-0.00012608329
-1.4351164e-06
-2.8198034e-06
-0.0003161408
-1.0662199e-06
-4.8910949e-06
-0.0006162637
3.3968327e-06
-5.6847614e-06
-0.00098708557
1.24296e-05
-2.8711132e-06
-0.0013157771
2.2470162e-05
4.0910026e-06
-0.001478159
2.8434227e-05
1.2146188e-05
-0.0014391293
1.7061896e-05
-0.0012606676
2.7704458e-05
3.9027989e-08
-4.3429984e-07
-2.7366699e-05
-5.1321442e-07
-1.9244324e-06
-0.00012395183
-1.7547993e-06
-4.6203088e-06
-0.00031080206
-1.7534498e-06
-7.9851797e-06
-0.0006062071
2.1708946e-06
-9.782796e-06
-0.00097226709
1.0649766e-05
-6.8662719e-06
-0.0012986682
2.0432252e-05
1.6306102e-06
-0.0014623591
2.6567268e-05
1.1992376e-05
-0.0014265534
1.8769167e-05
-0.0012510566
2.634828e-05
-6.0742006e-09
-6.6533113e-07
-2.6685074e-05
-6.8060679e-07
-2.8971738e-06
-0.00012086121
-2.1655579e-06
-6.8437319e-06
-0.00030311087
-2.6255668e-06
-1.1829961e-05
-0.00059174313
5.9284603e-07
-1.5052709e-05
-0.00095084574
8.3492901e-06
-1.2599896e-05
-0.0012735944
1.778146e-05
-3.1381787e-06
-0.0014386809
2.4161865e-05
9.1963603e-06
-0.0014071614
1.7932003e-05
-0.0012357908
2.4663305e-05
-5.8361306e-08
-9.2228348e-07
-2.5741345e-05
-8.7577754e-07
-3.9794431e-06
-0.00011661093
-2.646864e-06
-9.3215261e-06
-0.00029259355
-3.6666905e-06
-1.6164318e-05
-0.00057200404
-1.286151e-06
-2.1218444e-05
-0.00092148765
5.5750127e-06
-1.9805082e-05
-0.0012387955
1.4531051e-05
-1.0030996e-05
-0.0014050916
2.1176436e-05
3.8323282e-06
-0.0013788645
1.4525427e-05
-0.0012128615
2.2577344e-05
-1.1333469e-07
-1.1774444e-06
-2.4509632e-05
-1.0808172e-06
-5.061866e-06
-0.00011108105
-3.1570342e-06
-1.1823969e-05
-0.00027892976
-4.7892759e-06
-2.0633412e-05
-0.00054629588
-3.3847353e-06
-2.7813267e-05
-0.00088292384
2.391689e-06
-2.7998807e-05
-0.0011923323
1.0693829e-05
-1.8637628e-05
-0.0013591168
1.7547238e-05
-3.8234803e-06
-0.0013389594
8.6897483e-06
-0.0011795549
1.9929877e-05
-1.6219182e-07
-1.4075858e-06
-2.3012514e-05
-1.2609685e-06
-6.0420726e-06
-0.00010430744
-3.6181834e-06
-1.4116995e-05
-0.0002620558
-5.8753008e-06
-2.4831073e-05
-0.00051419625
-5.5547831e-06
-3.4263988e-05
-0.00083401999
-1.0893995e-06
-3.6503339e-05
-0.0011321174
6.2924221e-06
-2.8315388e-05
-0.0012978089
1.3174975e-05
-1.3281675e-05
-0.0012840488
7.1268742e-07
-0.0011323858
1.6505242e-05
-2.194222e-07
-1.5691463e-06
-2.1233175e-05
-1.4713893e-06
-6.7579698e-06
-9.6251238e-05
-4.1431953e-06
-1.5870678e-05
-0.00024193996
-7.0805384e-06
-2.8241062e-05
-0.00047568488
-7.9492349e-06
-3.9896202e-05
-0.00077461181
-4.9807566e-06
-4.4556805e-05
-0.0010574512
1.213709e-06
-3.8301972e-05
-0.0012195714
7.8600329e-06
-2.3935456e-05
-0.0012115926
-9.0005627e-06
-0.0010682284
1.1985584e-05
-2.586647e-07
-1.6487434e-06
-1.9124982e-05
-1.6108066e-06
-7.1378225e-06
-8.674821e-05
-4.5285189e-06
-1.6884355e-05
-0.00021825322
-8.1228014e-06
-3.0450237e-05
-0.00043017747
-1.0276819e-05
-4.4049966e-05
-0.00070361588
-9.0947237e-06
-5.1273157e-05
-0.00096632385
-4.574348e-06
-4.7596082e-05
-0.0011211793
1.2917756e-06
-3.4899573e-05
-0.001117414
-1.9848337e-05
-0.0009826604
5.8531071e-06
-2.8532238e-07
-1.6374948e-06
-1.6790049e-05
-1.6963877e-06
-7.1340555e-06
-7.6156681e-05
-4.7699293e-06
-1.7044542e-05
-0.00019163978
-8.9018786e-06
-3.1225804e-05
-0.00037837419
-1.234779e-05
-4.6238062e-05
-0.00062114492
-1.3260686e-05
-5.5823014e-05
-0.00085732859
-1.1084113e-05
-5.5085633e-05
-0.00099910586
-6.9594517e-06
-4.4868361e-05
-0.00099638812
-3.05454e-05
-0.00087016636
-2.9544678e-06
-2.7406922e-07
-1.4210362e-05
-1.5558524e-06
-1.6098272e-06
-6.4447335e-05
-6.8178635e-06
-4.6806288e-06
-0.00016210571
-1.6380288e-05
-9.3939955e-06
-0.0003202504
-3.0311092e-05
-1.4512282e-05
-0.00052667397
-4.5778041e-05
-1.81658e-05
-0.00072843596
-5.718379e-05
-1.9156604e-05
-0.00084892317
-5.9529205e-05
-1.7885394e-05
-0.00084210765
-5.2288852e-05
-0.00072441317
-3.8667519e-05
-1.6334114e-05
-1.1592993e-07
-1.9139814e-07
-1.4060434e-05
1.5740144e-07
-4.6215981e-07
-9.3740459e-07
-6.3949063e-05
7.8537231e-07
-1.1897483e-06
-2.6599811e-06
-0.00016094507
2.2269652e-06
-2.6156322e-06
-6.3115028e-06
-0.00031773105
5.2180921e-06
-4.6242364e-06
-1.3257903e-05
-0.00052219977
1.0792369e-05
-5.8999124e-06
-2.4617879e-05
-0.00072232393
1.9781617e-05
-4.0437123e-06
-3.9905323e-05
-0.00084266239
3.1788428e-05
2.8454846e-06
-5.598636e-05
-0.00083746015
4.4449729e-05
-6.7832091e-05
-0.00072197796
5.4419764e-05
1.3822596e-05
-1.4583175e-07
-2.3696336e-07
-1.6598652e-05
-5.5466943e-07
-1.1475453e-06
-7.5537693e-05
-1.3971437e-06
-3.2288229e-06
-0.00019022845
-3.1030994e-06
-7.6325937e-06
-0.00037534716
-5.6404274e-06
-1.6046802e-05
-0.00061581874
-7.6546422e-06
-2.9854303e-05
-0.00085007802