/*--------------------------------*- C++ -*----------------------------------*\
| =========                 |                                                 |
| \\      /  F ield         | OpenFOAM: The Open Source CFD Toolbox           |
|  \\    /   O peration     | Version:  2406                                  |
|   \\  /    A nd           | Website:  www.openfoam.com                      |
|    \\/     M anipulation  |                                                 |
\*---------------------------------------------------------------------------*/
FoamFile
{
    version     2.0;
    format      ascii;
    arch        "LSB;label=32;scalar=64";
    class       volVectorField;
    location    "11";
    object      U;
}
// * * * * * * * * * * * * * * * * * * * * * * * * * * * * * * * * * * * * * //

dimensions      [0 1 -1 0 0 0 0];

internalField   nonuniform List<vector> 
34560
(
(-0.076225934 0.014283221 0.030649382)
(-0.26689177 0.046789902 0.10010908)
(-0.53236488 0.08931778 0.1817126)
(-0.86805795 0.13802429 0.26429764)
(-1.2374064 0.18765191 0.32992908)
(-1.5801852 0.23622077 0.36496676)
(-1.8430861 0.28631233 0.36894982)
(-2.0061695 0.33846823 0.35202138)
(-2.0786732 0.38673778 0.32783542)
(-0.077253641 0.017038421 0.034230454)
(-0.27603045 0.055365515 0.11138954)
(-0.55818735 0.10413494 0.20010196)
(-0.91528765 0.15749224 0.28628924)
(-1.2995347 0.20905485 0.34983665)
(-1.6398838 0.25781802 0.3785524)
(-1.8826249 0.3080103 0.37533212)
(-2.0178759 0.3601906 0.35314336)
(-2.0656201 0.40809683 0.32423721)
(-0.074855006 0.017741062 0.035508002)
(-0.27562281 0.058485339 0.11624694)
(-0.56910022 0.11069582 0.20872895)
(-0.94297635 0.16691409 0.29710167)
(-1.3369545 0.21954014 0.35943576)
(-1.6697787 0.26821633 0.38414518)
(-1.8902206 0.31798974 0.37654311)
(-1.9986291 0.3712042 0.35075301)
(-2.0240185 0.41836859 0.31978006)
(-0.06943244 0.018225039 0.036611509)
(-0.26641711 0.060462342 0.12008318)
(-0.56563898 0.11437617 0.21492086)
(-0.9515389 0.17123382 0.3038829)
(-1.3511509 0.22298617 0.36424028)
(-1.6734189 0.27046382 0.38588028)
(-1.8716647 0.32008659 0.37563553)
(-1.9526702 0.37178368 0.34849599)
(-1.9571984 0.41776972 0.3178064)
(-0.060798084 0.017622513 0.03703504)
(-0.24771772 0.059341484 0.12188745)
(-0.54678286 0.11303755 0.21783299)
(-0.93984724 0.16907342 0.30687075)
(-1.3424426 0.21909711 0.36590876)
(-1.6540258 0.26434541 0.38581901)
(-1.8274857 0.31206335 0.37448471)
(-1.8821321 0.36174428 0.34793325)
(-1.8666909 0.40634491 0.31878426)
(-0.049522268 0.016261514 0.036921319)
(-0.22082184 0.055766983 0.12197236)
(-0.51425332 0.10723899 0.21819114)
(-0.91041381 0.16055151 0.30723711)
(-1.3126991 0.20733536 0.36567667)
(-1.6103591 0.24956444 0.38531339)
(-1.7590146 0.29457257 0.37469594)
(-1.7883048 0.34158322 0.35010221)
(-1.7536242 0.38418121 0.32327539)
(-0.036207072 0.014361701 0.036717903)
(-0.1869963 0.050161473 0.121554)
(-0.46909485 0.09743772 0.21756035)
(-0.86295257 0.14618988 0.30656292)
(-1.2612034 0.18852381 0.36523228)
(-1.5436379 0.22673052 0.38605675)
(-1.6679601 0.26776765 0.37766617)
(-1.6726834 0.31145893 0.35577366)
(-1.6197215 0.35117567 0.33160994)
(-0.021470446 0.011882364 0.036425768)
(-0.14788471 0.042489784 0.12080677)
(-0.4136725 0.083726674 0.21654551)
(-0.80032929 0.12631731 0.30595015)
(-1.1911739 0.16312978 0.36586747)
(-1.4572655 0.19649449 0.38910209)
(-1.5581303 0.23218893 0.38419721)
(-1.5390228 0.27162585 0.36537874)
(-1.4689271 0.30738991 0.34380876)
(-0.0064702263 0.009071062 0.036173486)
(-0.10675556 0.033373615 0.12013338)
(-0.35295645 0.066962494 0.21579771)
(-0.72853744 0.10189891 0.30614782)
(-1.1091417 0.13220852 0.36814889)
(-1.3578073 0.16037568 0.39436087)
(-1.437623 0.18838327 0.39428807)
(-1.3952492 0.22254454 0.37855058)
(-1.3093805 0.25306609 0.35915848)
(0.0072035059 0.0062263145 0.036019302)
(-0.068340079 0.023645936 0.11973189)
(-0.29450877 0.048383458 0.21561615)
(-0.65709413 0.074354105 0.30734298)
(-1.0259138 0.097021862 0.37188936)
(-1.2573222 0.11850899 0.40155)
(-1.3191263 0.13892695 0.40595681)
(-1.2554735 0.16547735 0.39359278)
(-1.1558368 0.18918552 0.37575175)
(0.017666581 0.0036211972 0.03599739)
(-0.038371706 0.014080861 0.11967975)
(-0.24775987 0.029207902 0.21596568)
(-0.5982558 0.045179697 0.30908899)
(-0.95601775 0.059196074 0.37598325)
(-1.1729533 0.072659143 0.40883901)
(-1.2199265 0.085325437 0.41672328)
(-1.1393146 0.10215037 0.4073792)
(-1.0289839 0.11733417 0.39049087)
(0.023603321 0.0012094833 0.036020019)
(-0.021146393 0.0047295377 0.11976955)
(-0.22045476 0.009845359 0.21634861)
(-0.56335888 0.01522215 0.31034841)
(-0.91425822 0.01994398 0.37869374)
(-1.122691 0.024534661 0.41355935)
(-1.1607167 0.028889803 0.42348868)
(-1.0704005 0.034731212 0.41596732)
(-0.95404541 0.040038418 0.39952871)
(0.023603309 -0.0012095391 0.036020013)
(-0.021146435 -0.0047296669 0.11976957)
(-0.22045484 -0.0098455656 0.21634863)
(-0.56335899 -0.015222471 0.31034845)
(-0.91425835 -0.019944474 0.3786938)
(-1.1226911 -0.024535232 0.41355937)
(-1.1607168 -0.028890259 0.42348864)
(-1.0704006 -0.034731276 0.41596721)
(-0.95404542 -0.040037984 0.39952856)
(0.017666554 -0.0036212452 0.035997376)
(-0.038371803 -0.014080991 0.11967974)
(-0.24776004 -0.029208132 0.21596572)
(-0.59825604 -0.045180095 0.30908908)
(-0.95601804 -0.059196655 0.37598339)
(-1.1729536 -0.072659819 0.40883906)
(-1.2199269 -0.085326033 0.41672321)
(-1.1393149 -0.10215058 0.40737894)
(-1.0289839 -0.11733383 0.39049049)
(0.0072034728 -0.006226355 0.036019338)
(-0.068340197 -0.023646108 0.11973193)
(-0.29450899 -0.048383785 0.21561629)
(-0.65709441 -0.074354634 0.30734318)
(-1.0259141 -0.097022566 0.37188954)
(-1.2573226 -0.11850979 0.40155008)
(-1.3191267 -0.13892768 0.40595674)
(-1.255474 -0.16547771 0.39359249)
(-1.155837 -0.18918533 0.37575124)
(-0.0064702564 -0.0090711042 0.036173531)
(-0.10675566 -0.0333738 0.12013349)
(-0.35295663 -0.066962845 0.21579789)
(-0.72853767 -0.10189945 0.30614802)
(-1.1091419 -0.13220925 0.36814905)
(-1.3578077 -0.1603765 0.39436097)
(-1.4376236 -0.18838402 0.39428804)
(-1.3952499 -0.22254496 0.37855035)
(-1.3093807 -0.25306598 0.35915801)
(-0.02147048 -0.011882412 0.036425757)
(-0.14788482 -0.042489917 0.12080688)
(-0.4136727 -0.083726957 0.21654566)
(-0.8003296 -0.12631778 0.30595039)
(-1.1911743 -0.16313045 0.3658677)
(-1.457266 -0.19649528 0.38910223)
(-1.5581311 -0.23218968 0.38419726)
(-1.5390234 -0.27162627 0.36537864)
(-1.4689272 -0.30738976 0.34380846)
(-0.036207114 -0.014361764 0.036717928)
(-0.18699644 -0.050161622 0.12155413)
(-0.46909509 -0.097437984 0.21756052)
(-0.86295295 -0.14619028 0.30656319)
(-1.2612039 -0.18852437 0.36523259)
(-1.5436384 -0.22673119 0.38605697)
(-1.6679607 -0.26776835 0.37766632)
(-1.6726838 -0.31145936 0.35577364)
(-1.6197217 -0.35117544 0.33160981)
(-0.049522295 -0.016261565 0.036921347)
(-0.22082192 -0.055767098 0.12197242)
(-0.51425348 -0.1072392 0.21819122)
(-0.91041413 -0.16055186 0.30723729)
(-1.3126996 -0.20733582 0.36567699)
(-1.6103593 -0.24956501 0.38531373)
(-1.7590149 -0.29457316 0.37469623)
(-1.7883052 -0.34158362 0.35010226)
(-1.7536245 -0.38418107 0.32327539)
(-0.060798116 -0.017622554 0.03703505)
(-0.24771783 -0.059341583 0.12188746)
(-0.54678307 -0.11303774 0.21783305)
(-0.93984756 -0.16907374 0.30687091)
(-1.3424429 -0.21909752 0.3659091)
(-1.6540259 -0.26434588 0.38581941)
(-1.8274859 -0.3120638 0.37448506)
(-1.8821325 -0.36174458 0.34793348)
(-1.8666911 -0.40634492 0.31878443)
(-0.069432462 -0.018225051 0.036611524)
(-0.26641718 -0.06046243 0.12008314)
(-0.5656391 -0.11437628 0.21492089)
(-0.95153903 -0.17123402 0.30388303)
(-1.351151 -0.2229865 0.36424061)
(-1.6734189 -0.27046421 0.3858807)
(-1.8716646 -0.32008693 0.37563595)
(-1.9526703 -0.37178379 0.34849641)
(-1.9571984 -0.41776955 0.31780647)
(-0.074855025 -0.017741029 0.035507988)
(-0.27562287 -0.058485314 0.11624687)
(-0.56910034 -0.11069579 0.20872894)
(-0.94297651 -0.16691417 0.29710179)
(-1.3369546 -0.21954038 0.35943608)
(-1.6697788 -0.26821667 0.3841456)
(-1.8902205 -0.31798995 0.37654346)
(-1.9986291 -0.37120409 0.35075326)
(-2.0240184 -0.41836824 0.31978018)
(-0.077253663 -0.017038381 0.034230415)
(-0.27603052 -0.055365446 0.11138947)
(-0.55818747 -0.1041349 0.20010193)
(-0.9152878 -0.15749229 0.28628931)
(-1.2995348 -0.20905497 0.34983683)
(-1.639884 -0.25781813 0.37855257)
(-1.8826251 -0.30801041 0.37533229)
(-2.017876 -0.36019039 0.3531436)
(-2.0656201 -0.40809627 0.32423731)
(-0.076225949 -0.014283191 0.030649346)
(-0.26689182 -0.046789874 0.100109)
(-0.53236494 -0.08931779 0.18171255)
(-0.86805804 -0.13802441 0.26429759)
(-1.2374065 -0.1876521 0.32992901)
(-1.5801854 -0.2362209 0.36496689)
(-1.8430864 -0.28631243 0.36895006)
(-2.0061698 -0.3384684 0.35202144)
(-2.0786734 -0.38673781 0.32783594)
(-0.090792431 -0.00015078194 -0.00025218039)
(-0.29996333 -0.00080792101 -0.0012779031)
(-0.56759394 -0.0021986504 -0.0034320173)
(-0.88236406 -0.0052979295 -0.006936735)
(-1.2134221 -0.011329899 -0.011490625)
(-1.5156531 -0.02078045 -0.016150307)
(-1.7465843 -0.032897582 -0.019990695)
(-1.8891293 -0.046260147 -0.022620068)
(-1.9501388 -0.059073306 -0.024010727)
(-0.098946211 -0.0011354063 -0.0010993183)
(-0.32567425 -0.0037780476 -0.0038782117)
(-0.61304906 -0.007318321 -0.008054113)
(-0.94508588 -0.012669876 -0.013460414)
(-1.2841302 -0.020968248 -0.019148914)
(-1.579792 -0.03246089 -0.023730152)
(-1.7903898 -0.046137016 -0.026429994)
(-1.9067386 -0.060482459 -0.027478681)
(-1.9479585 -0.073683337 -0.027754319)
(-0.10566135 -0.0022857131 -0.0018604343)
(-0.3469292 -0.0071860493 -0.0062342888)
(-0.65052516 -0.013053752 -0.012237917)
(-0.99597441 -0.020631766 -0.019225131)
(-1.3393732 -0.030891093 -0.025570791)
(-1.6260358 -0.043892128 -0.029591485)
(-1.8162525 -0.058548413 -0.030865579)
(-1.9095281 -0.073312742 -0.030219057)
(-1.9359186 -0.086482544 -0.029108462)
(-0.11153016 -0.0036105818 -0.0025336303)
(-0.36534581 -0.011021176 -0.008310835)
(-0.68263567 -0.019332536 -0.015917666)
(-1.0387908 -0.02903538 -0.02418778)
(-1.384487 -0.040917208 -0.030816001)
(-1.6617762 -0.054958031 -0.033954936)
(-1.833505 -0.070149135 -0.033665518)
(-1.9071869 -0.084956769 -0.031379646)
(-1.9215557 -0.097716239 -0.028999778)
(-0.11615351 -0.0049244524 -0.0030077934)
(-0.38001979 -0.014781245 -0.0097975038)
(-0.70839435 -0.025385406 -0.018610457)
(-1.0730987 -0.036936252 -0.02778318)
(-1.420161 -0.050051303 -0.034369767)
(-1.6890015 -0.064711726 -0.036427837)
(-1.8450099 -0.080031355 -0.034606604)
(-1.9026378 -0.094499712 -0.030886055)
(-1.9071634 -0.10643197 -0.027493383)
(-0.11976265 -0.0061054323 -0.0032031185)
(-0.39155244 -0.018109653 -0.010462838)
(-0.72870745 -0.030620678 -0.019975568)
(-1.1000619 -0.043535395 -0.029630936)
(-1.4478024 -0.057330484 -0.035883946)
(-1.7093347 -0.072061547 -0.036775984)
(-1.8523532 -0.086995238 -0.033546177)
(-1.8971387 -0.10069361 -0.028676191)
(-1.8936701 -0.11144817 -0.024571413)
(-0.1226445 -0.0069737274 -0.0031361811)
(-0.40068576 -0.020489374 -0.010341608)
(-0.74466084 -0.034226663 -0.020030489)
(-1.1209735 -0.047816737 -0.02973909)
(-1.4687853 -0.061625395 -0.035410115)
(-1.7240601 -0.075810628 -0.035104991)
(-1.8565666 -0.089801069 -0.030652233)
(-1.8912602 -0.10232917 -0.024892798)
(-1.8814362 -0.11163775 -0.020377609)
(-0.12464465 -0.0072981393 -0.0028014883)
(-0.40713652 -0.021296639 -0.0094322455)
(-0.75607738 -0.035262893 -0.018798658)
(-1.1360089 -0.04864032 -0.028194517)
(-1.4837124 -0.061706305 -0.033135372)
(-1.7340198 -0.07470488 -0.031702161)
(-1.8583949 -0.087248561 -0.026226648)
(-1.8853948 -0.098205212 -0.019864377)
(-1.8706229 -0.10590582 -0.015205718)
(-0.12587665 -0.0069097038 -0.0022675117)
(-0.41124767 -0.020066975 -0.0079327281)
(-0.76355616 -0.033021873 -0.016594395)
(-1.146018 -0.045142776 -0.025414081)
(-1.493597 -0.056633633 -0.029571322)
(-1.7401833 -0.067792614 -0.027171616)
(-1.8585559 -0.078348766 -0.020867339)
(-1.8798749 -0.087380288 -0.014147394)
(-1.8613627 -0.093393176 -0.0095530124)
(-0.12655418 -0.0057307867 -0.0016482142)
(-0.41365153 -0.016591602 -0.0061738499)
(-0.76811492 -0.027192458 -0.01394642)
(-1.1522488 -0.036949612 -0.022083565)
(-1.4996898 -0.046001258 -0.025513565)
(-1.7436222 -0.054622857 -0.022343783)
(-1.8577628 -0.062677079 -0.01543484)
(-1.8750352 -0.069448953 -0.0085394552)
(-1.8538185 -0.073747915 -0.0041253476)
(-0.12718775 -0.0038230608 -0.001107157)
(-0.41558659 -0.011034644 -0.0046275471)
(-0.77139653 -0.018025704 -0.011590465)
(-1.1563564 -0.024383493 -0.019118184)
(-1.5033805 -0.030190497 -0.021973434)
(-1.7453412 -0.035646528 -0.018253333)
(-1.8566291 -0.04071653 -0.010951001)
(-1.8712326 -0.044928616 -0.0039986181)
(-1.8482425 -0.047513012 0.00021942489)
(-0.12721301 -0.0013487722 -0.00080448923)
(-0.41586256 -0.0038839325 -0.0037582749)
(-0.7721461 -0.0063268302 -0.010244413)
(-1.1575649 -0.0085400203 -0.017404894)
(-1.5045895 -0.010555955 -0.019932194)
(-1.7457914 -0.012439843 -0.015916012)
(-1.8557924 -0.01418031 -0.0084129136)
(-1.8691067 -0.015613087 -0.0014463148)
(-1.8452154 -0.01647386 0.0026515126)
(-0.12721302 0.0013487718 -0.00080448869)
(-0.41586257 0.0038839377 -0.0037582735)
(-0.77214612 0.0063268406 -0.010244409)
(-1.1575649 0.0085399969 -0.017404884)
(-1.5045896 0.010555868 -0.019932181)
(-1.7457915 0.012439701 -0.015916007)
(-1.8557924 0.014180173 -0.0084129186)
(-1.8691067 0.01561303 -0.0014463222)
(-1.8452154 0.01647394 0.002651507)
(-0.12718776 0.0038230559 -0.001107157)
(-0.41558661 0.011034636 -0.0046275443)
(-0.77139657 0.01802569 -0.01159046)
(-1.1563565 0.024383445 -0.019118166)
(-1.5033806 0.030190395 -0.021973409)
(-1.7453412 0.035646376 -0.018253326)
(-1.8566292 0.040716381 -0.010951015)
(-1.8712327 0.044928542 -0.0039986346)
(-1.8482425 0.047513072 0.00021941002)
(-0.12655418 0.005730778 -0.001648216)
(-0.41365154 0.016591583 -0.0061738455)
(-0.76811493 0.027192421 -0.013946409)
(-1.1522489 0.036949545 -0.022083538)
(-1.4996899 0.04600114 -0.025513532)
(-1.7436222 0.054622695 -0.022343772)
(-1.8577629 0.062676916 -0.015434854)
(-1.8750353 0.069448873 -0.0085394778)
(-1.8538186 0.073747983 -0.0041253644)
(-0.12587665 0.0069096899 -0.0022675133)
(-0.41124767 0.020066944 -0.0079327187)
(-0.76355616 0.033021816 -0.01659437)
(-1.146018 0.045142693 -0.02541404)
(-1.493597 0.056633498 -0.029571282)
(-1.7401833 0.067792437 -0.027171604)
(-1.8585559 0.078348593 -0.020867358)
(-1.879875 0.08738022 -0.014147434)
(-1.8613628 0.093393288 -0.0095530231)
(-0.12464465 0.0072981245 -0.0028014906)
(-0.4071365 0.021296611 -0.0094322225)
(-0.75607735 0.035262836 -0.018798633)
(-1.1360089 0.04864023 -0.028194474)
(-1.4837124 0.06170616 -0.033135326)
(-1.7340198 0.074704677 -0.031702145)
(-1.8583949 0.087248365 -0.026226677)
(-1.8853949 0.098205132 -0.019864444)
(-1.8706229 0.10590597 -0.015205747)
(-0.1226445 0.0069737079 -0.0031361806)
(-0.40068573 0.020489339 -0.010341575)
(-0.7446608 0.034226595 -0.020030457)
(-1.1209735 0.047816626 -0.029739027)
(-1.4687853 0.06162523 -0.035410041)
(-1.7240601 0.075810392 -0.035104948)
(-1.8565666 0.089800834 -0.03065226)
(-1.8912602 0.10232904 -0.024892899)
(-1.8814362 0.11163791 -0.020377703)
(-0.11976264 0.0061054089 -0.003203109)
(-0.39155241 0.018109601 -0.010462795)
(-0.72870739 0.03062058 -0.019975509)
(-1.1000619 0.043535236 -0.029630852)
(-1.4478023 0.057330283 -0.035883842)
(-1.7093346 0.072061285 -0.036775912)
(-1.8523531 0.086994974 -0.033546187)
(-1.8971387 0.10069344 -0.028676319)
(-1.8936701 0.11144825 -0.024571561)
(-0.11615349 0.0049244313 -0.0030077856)
(-0.38001971 0.014781194 -0.0097974626)
(-0.70839422 0.025385304 -0.018610396)
(-1.0730986 0.036936074 -0.027783106)
(-1.4201608 0.050051068 -0.034369671)
(-1.6890013 0.064711444 -0.036427755)
(-1.8450097 0.080031079 -0.034606598)
(-1.9026378 0.094499536 -0.03088617)
(-1.9071634 0.10643193 -0.027493539)
(-0.11153015 0.0036105645 -0.0025336238)
(-0.36534576 0.011021133 -0.0083107976)
(-0.6826356 0.019332449 -0.01591761)
(-1.0387907 0.029035224 -0.024187714)
(-1.3844869 0.040916969 -0.030815916)
(-1.6617759 0.054957743 -0.033954859)
(-1.8335048 0.070148852 -0.0336655)
(-1.9071868 0.084956604 -0.031379708)
(-1.9215557 0.097716198 -0.028999915)
(-0.10566133 0.0022857043 -0.0018604325)
(-0.34692913 0.0071860186 -0.0062342778)
(-0.65052503 0.013053682 -0.012237901)
(-0.99597421 0.020631641 -0.019225103)
(-1.3393729 0.030890897 -0.025570741)
(-1.6260355 0.043891884 -0.029591421)
(-1.8162522 0.05854814 -0.030865546)
(-1.9095279 0.073312529 -0.03021906)
(-1.9359185 0.086482636 -0.029108644)
(-0.0989462 0.0011354083 -0.0010993235)
(-0.32567421 0.0037780374 -0.0038782186)
(-0.61304898 0.0073182761 -0.0080541168)
(-0.94508573 0.012669777 -0.01346041)
(-1.28413 0.020968096 -0.019148891)
(-1.5797918 0.032460729 -0.023730101)
(-1.7903896 0.046136867 -0.02642995)
(-1.9067386 0.060482356 -0.027478889)
(-1.9479584 0.073683425 -0.027754649)
(-0.090792424 0.00015077628 -0.00025217593)
(-0.2999633 0.00080788501 -0.0012778877)
(-0.56759384 0.0021985728 -0.0034319808)
(-0.8823639 0.0052977955 -0.0069367015)
(-1.2134219 0.011329703 -0.011490607)
(-1.5156529 0.020780198 -0.016150255)
(-1.7465841 0.032897365 -0.019990734)
(-1.8891294 0.046260173 -0.022620436)
(-1.9501389 0.059073288 -0.024010948)
(-0.079888991 0.0010462432 0.00096720007)
(-0.26506937 0.0032604097 0.0030351202)
(-0.50506598 0.005724014 0.0053609172)
(-0.79289062 0.0080083706 0.0075529309)
(-1.1030265 0.009602661 0.0090049816)
(-1.3933223 0.010154442 0.0092302551)
(-1.6194157 0.0096680289 0.0082143963)
(-1.7595606 0.0084514511 0.0064701716)
(-1.8167113 0.0068130904 0.0046353115)
(-0.085879197 0.0010753985 0.00088333916)
(-0.28426893 0.0033019009 0.0027628995)
(-0.53979847 0.0056838981 0.0048598035)
(-0.84212267 0.0077403605 0.006766739)
(-1.1598507 0.0089540945 0.0078438035)
(-1.4451394 0.009023684 0.0076100706)
(-1.6528844 0.0080427683 0.0061182473)
(-1.7678752 0.0064297748 0.0039921316)
(-1.8051913 0.0046818926 0.0018928462)
(-0.090720131 0.001020406 0.00072918412)
(-0.29984309 0.0031156827 0.0022925336)
(-0.5679087 0.0053111053 0.004059387)
(-0.88127949 0.0071138967 0.0056658447)
(-1.2030337 0.0080259118 0.0064791348)
(-1.4803843 0.0077987403 0.0059941116)
(-1.6687748 0.0065822163 0.004252292)
(-1.760843 0.0048410866 0.0019104784)
(-1.782943 0.0031057369 -0.00019814747)
(-0.094849308 0.00093489695 0.00058020682)
(-0.31302941 0.0028362399 0.0018318868)
(-0.59146881 0.0047894169 0.0032670328)
(-0.91348051 0.0063148327 0.004567205)
(-1.2372441 0.006953022 0.0051186841)
(-1.5058982 0.0065054693 0.0044129707)
(-1.676105 0.0051559026 0.0024956808)
(-1.7481989 0.0033803103 6.5967677e-05)
(-1.7575923 0.0016853403 -0.0019388003)
(-0.097948209 0.0008022154 0.00043010612)
(-0.323101 0.0024318876 0.001373879)
(-0.60967296 0.0040930506 0.0024897804)
(-0.93836585 0.0053411494 0.0035079066)
(-1.2631098 0.0057562788 0.0038320596)
(-1.5235996 0.0051691065 0.0029490667)
(-1.6779012 0.0037739053 0.00091671884)
(-1.7331008 0.0020436781 -0.0015147428)
(-1.7317471 0.00045429685 -0.0033588334)
(-0.10028485 0.00064775891 0.0002916748)
(-0.33075469 0.0019686732 0.00095174295)
(-0.62355239 0.0033146882 0.0017778608)
(-0.95719309 0.0042935096 0.0025483464)
(-1.2820688 0.0045299138 0.002683155)
(-1.5351152 0.0038750113 0.0016655744)
(-1.6758839 0.0025145869 -0.00043065564)
(-1.7171235 0.00090125302 -0.0028105534)
(-1.706805 -0.0005283065 -0.0044635959)
(-0.10208365 0.00048776368 0.00018044026)
(-0.33659169 0.0014909899 0.00060969583)
(-0.63401344 0.0025216365 0.0011945693)
(-0.97106462 0.0032504764 0.0017551436)
(-1.2953261 0.0033514226 0.0017293237)
(-1.5416902 0.0026915958 0.00060503676)
(-1.6711643 0.0014363214 -0.0015195504)
(-1.70119 -4.5965567e-06 -0.0038235478)
(-1.6836094 -0.0012411398 -0.0052820308)
(-0.10323311 0.00033506492 9.6965228e-05)
(-0.3404198 0.0010375223 0.00035120577)
(-0.6409787 0.0017751654 0.00074908212)
(-0.9802328 0.0022864291 0.0011439524)
(-1.3035608 0.0022973801 0.0009909428)
(-1.5443117 0.0016864599 -0.00021459807)
(-1.6647571 0.00059064147 -0.0023474825)
(-1.686068 -0.00063475188 -0.0045645153)
(-1.6628424 -0.0016583393 -0.0058476451)
(-0.10384253 0.00020579714 4.148172e-05)
(-0.34257536 0.00065169556 0.00017654745)
(-0.6450549 0.0011381885 0.00044159395)
(-0.98559802 0.0014707199 0.00071224212)
(-1.307921 0.0014304723 0.00046229338)
(-1.5442123 0.00090969831 -0.00080112559)
(-1.6577552 1.5038301e-05 -0.0029312622)
(-1.672552 -0.00096509678 -0.0050666393)
(-1.645134 -0.00175654 -0.0062067246)
(-0.10410527 0.00010988954 9.5908903e-06)
(-0.34364051 0.00036059476 7.2938695e-05)
(-0.64721373 0.00064978986 0.00025296742)
(-0.98843337 0.00084484198 0.00043914804)
(-1.3098204 0.00078530241 0.00012033699)
(-1.5427372 0.00038691198 -0.0011831941)
(-1.6512606 -0.00027488579 -0.0033050033)
(-1.6614407 -0.00098808446 -0.0053761401)
(-1.6310793 -0.0015556263 -0.006415721)
(-0.10444535 4.7832719e-05 -5.1454348e-06)
(-0.34467282 0.00016507345 2.2489571e-05)
(-0.64892449 0.00030985417 0.0001560041)
(-0.99033426 0.00040601885 0.00029115946)
(-1.3107493 0.00035573519 -7.2600736e-05)
(-1.5411552 0.00010514882 -0.0014020609)
(-1.6462663 -0.00030143306 -0.0035169782)
(-1.6534625 -0.00073218681 -0.0055500712)
(-1.6212413 -0.0010737692 -0.0065257008)
(-0.10437311 1.2253519e-05 -9.8899818e-06)
(-0.34461509 4.4724575e-05 4.8923167e-06)
(-0.64904298 8.7109574e-05 0.00011978348)
(-0.99058315 0.00011456647 0.00023301324)
(-1.3106741 9.4699097e-05 -0.00015072923)
(-1.5400016 9.15655e-06 -0.0014917644)
(-1.6435289 -0.00012739917 -0.0036039994)
(-1.649298 -0.00027203022 -0.0056241536)
(-1.6161724 -0.00038486295 -0.0065711343)
(-0.10437311 -1.2275868e-05 -9.8900036e-06)
(-0.3446151 -4.4781038e-05 4.8952301e-06)
(-0.64904299 -8.7202081e-05 0.00011978311)
(-0.99058317 -0.00011470474 0.00023301213)
(-1.3106741 -9.4882096e-05 -0.00015072901)
(-1.5400016 -9.3645165e-06 -0.0014917653)
(-1.6435289 0.00012722666 -0.003604006)
(-1.649298 0.00027199287 -0.0056241665)
(-1.6161724 0.0003850393 -0.0065711414)
(-0.10444536 -4.7855891e-05 -5.1447223e-06)
(-0.34467283 -0.0001651317 2.2494143e-05)
(-0.64892452 -0.00030994976 0.00015600474)
(-0.9903343 -0.00040616195 0.00029115976)
(-1.3107494 -0.00035592628 -7.2597415e-05)
(-1.5411552 -0.00010536765 -0.0014020639)
(-1.6462663 0.00030124898 -0.0035169979)
(-1.6534625 0.00073213697 -0.0055501071)
(-1.6212413 0.0010739337 -0.0065257275)
(-0.10410527 -0.00010991153 9.5944899e-06)
(-0.34364052 -0.00036065269 7.2943458e-05)
(-0.64721376 -0.00064988787 0.00025297421)
(-0.98843341 -0.00084499204 0.00043915806)
(-1.3098205 -0.00078550562 0.00012035062)
(-1.5427372 -0.00038714702 -0.001183194)
(-1.6512606 0.00027468246 -0.0033050314)
(-1.6614407 0.00098801569 -0.0053761968)
(-1.6310793 0.0015557724 -0.0064157784)
(-0.10384253 -0.00020581879 4.1486652e-05)
(-0.34257538 -0.00065175388 0.00017656105)
(-0.64505493 -0.0011382914 0.00044161674)
(-0.98559806 -0.0014708802 0.00071227162)
(-1.307921 -0.0014306908 0.00046232192)
(-1.5442123 -0.00090995328 -0.00080111888)
(-1.6577552 -1.5265692e-05 -0.0029312961)
(-1.6725521 0.00096500127 -0.0050667147)
(-1.645134 0.0017566519 -0.0062068106)
(-0.10323311 -0.00033508832 9.6966547e-05)
(-0.34041981 -0.0010375791 0.00035123279)
(-0.64097873 -0.0017752719 0.00074911685)
(-0.98023286 -0.0022865984 0.0011439982)
(-1.3035609 -0.002297615 0.00099098686)
(-1.5443117 -0.0016867417 -0.0002145785)
(-1.6647571 -0.0005909029 -0.0023475134)
(-1.686068 0.00063461242 -0.0045645992)
(-1.6628424 0.0016584009 -0.0058477462)
(-0.10208366 -0.00048779052 0.00018044362)
(-0.33659171 -0.0014910485 0.00060973893)
(-0.63401348 -0.0025217495 0.0011946224)
(-0.97106469 -0.0032506567 0.0017552177)
(-1.2953261 -0.0033516759 0.0017294006)
(-1.5416902 -0.0026919071 0.00060508417)
(-1.6711643 -0.0014366264 -0.0015195655)
(-1.70119 4.3977638e-06 -0.0038236341)
(-1.6836094 0.0012411576 -0.0052821359)
(-0.10028485 -0.00064778855 0.00029168646)
(-0.33075471 -0.0019687385 0.00095180101)
(-0.62355243 -0.0033148123 0.0017779372)
(-0.95719315 -0.0042937064 0.0025484519)
(-1.2820689 -0.004530182 0.0026832675)
(-1.5351153 -0.0038753425 0.0016656564)
(-1.6758839 -0.0025149281 -0.00043064205)
(-1.7171235 -0.00090150367 -0.0028106521)
(-1.706805 0.00052830171 -0.0044636973)
(-0.097948215 -0.00080224357 0.00043011863)
(-0.32310102 -0.0024319447 0.0013739435)
(-0.60967299 -0.0040931666 0.0024898646)
(-0.93836591 -0.0053413392 0.0035080191)
(-1.2631098 -0.0057565448 0.0038321865)
(-1.5235997 -0.0051694422 0.0029491811)
(-1.6779012 -0.0037742627 0.00091675853)
(-1.7331008 -0.0020439526 -0.0015148742)
(-1.7317472 -0.00045430236 -0.0033589727)
(-0.094849317 -0.00093491973 0.00058022014)
(-0.31302944 -0.0028362817 0.0018319483)
(-0.59146886 -0.0047895038 0.0032671181)
(-0.91348058 -0.006314982 0.0045673239)
(-1.2372442 -0.0069532585 0.0051188328)
(-1.5058983 -0.0065057813 0.0044131101)
(-1.676105 -0.0051562254 0.0024957132)
(-1.748199 -0.0033805326 6.575094e-05)
(-1.7575924 -0.0016853321 -0.001939042)
(-0.090720139 -0.0010204172 0.00072919051)
(-0.29984312 -0.0031156987 0.0022925693)
(-0.56790875 -0.0053111521 0.004059436)
(-0.88127956 -0.007113991 0.0056659339)
(-1.2030338 -0.0080260846 0.0064792565)
(-1.4803844 -0.0077989881 0.0059941994)
(-1.6687749 -0.0065824823 0.004252239)
(-1.760843 -0.0048412299 0.0019101819)
(-1.782943 -0.0031056871 -0.00019845194)
(-0.085879204 -0.0010753945 0.00088333531)
(-0.28426896 -0.0033018842 0.0027629059)
(-0.53979852 -0.0056838995 0.0048598179)
(-0.84212274 -0.0077404049 0.0067667808)
(-1.1598507 -0.0089541986 0.0078438507)
(-1.4451395 -0.0090238206 0.0076100544)
(-1.6528844 -0.0080428932 0.0061180416)
(-1.7678752 -0.0064298156 0.003991709)
(-1.8051913 -0.004681862 0.0018926077)
(-0.079888997 -0.0010462345 0.00096718914)
(-0.26506938 -0.0032603905 0.0030351025)
(-0.50506601 -0.0057240052 0.0053608974)
(-0.79289066 -0.0080083981 0.0075529052)
(-1.1030266 -0.0096027556 0.0090049283)
(-1.3933224 -0.010154613 0.0092301462)
(-1.6194158 -0.009668187 0.0082141751)
(-1.7595608 -0.008451403 0.0064698906)
(-1.8167114 -0.0068130253 0.0046352203)
(-0.085375473 -0.0001135655 -9.2906925e-05)
(-0.28262737 -0.00041565275 -0.00031860758)
(-0.53660661 -0.00091747865 -0.00061729042)
(-0.83821145 -0.0017684865 -0.00098561177)
(-1.1593336 -0.0031658199 -0.0013885866)
(-1.4565031 -0.0052585942 -0.0017805779)
(-1.6863966 -0.0080052863 -0.0021825643)
(-1.8295374 -0.011128083 -0.0026973327)
(-1.8900635 -0.014235593 -0.0033983485)
(-0.092073823 -0.00014463961 -0.00010458588)
(-0.30401119 -0.000512163 -0.00034754632)
(-0.57502755 -0.0010998536 -0.00065973035)
(-0.89224296 -0.0020787955 -0.0010378086)
(-1.2213869 -0.0036738028 -0.0014457019)
(-1.513463 -0.0060445421 -0.0018428801)
(-1.7249333 -0.0091256936 -0.0022734936)
(-1.8432812 -0.012567699 -0.0028829849)
(-1.884776 -0.015866118 -0.0038191258)
(-0.097607419 -0.00017326597 -0.0001085951)
(-0.32171053 -0.00060159968 -0.00035782625)
(-0.60669664 -0.0012648042 -0.00067656441)
(-0.93600205 -0.002344337 -0.0010596767)
(-1.2696597 -0.0040768188 -0.001464635)
(-1.5540299 -0.0066210665 -0.0018487749)
(-1.7465895 -0.0098827208 -0.0022647942)
(-1.8428061 -0.01344581 -0.0028604697)
(-1.8701174 -0.016740167 -0.0037388988)
(-0.10250073 -0.00021952234 -0.00012056457)
(-0.33721689 -0.00073650912 -0.00039009972)
(-0.63412634 -0.0014911936 -0.00072842721)
(-0.97324027 -0.0026623965 -0.0011243815)
(-1.3095638 -0.004487232 -0.0015235306)
(-1.5857137 -0.0071201808 -0.0018771981)
(-1.7608249 -0.010445466 -0.0022392547)
(-1.8379862 -0.014003671 -0.002740709)
(-1.8535277 -0.017187723 -0.0034690688)
(-0.10641393 -0.00026588585 -0.00012676668)
(-0.34975824 -0.00087082289 -0.00040595446)
(-0.65646574 -0.0017107178 -0.00075286739)
(-1.0035724 -0.0029516071 -0.0011499314)
(-1.3417254 -0.0048195489 -0.0015290413)
(-1.610415 -0.0074583557 -0.0018331277)
(-1.770492 -0.010737129 -0.0021132893)
(-1.8316748 -0.014166204 -0.0024848115)
(-1.8372366 -0.017116444 -0.00303679)
(-0.1096125 -0.00030590048 -0.00012273299)
(-0.36001376 -0.00098349095 -0.00039130075)
(-0.67470008 -0.0018841625 -0.00072631752)
(-1.0281723 -0.0031532889 -0.0011036324)
(-1.3674472 -0.0049966353 -0.0014405185)
(-1.6295532 -0.007543822 -0.0016718579)
(-1.7770156 -0.010654755 -0.0018474738)
(-1.8250796 -0.013834297 -0.0020769403)
(-1.8222619 -0.016458467 -0.002460502)
(-0.11231568 -0.00033043004 -0.00010912608)
(-0.36855321 -0.0010470543 -0.00034772301)
(-0.68965983 -0.0019662332 -0.00065047809)
(-1.0480112 -0.0032084516 -0.00098771364)
(-1.387732 -0.0049520074 -0.0012612564)
(-1.644066 -0.0073097053 -0.001400286)
(-1.7811496 -0.010140497 -0.0014598365)
(-1.8186937 -0.012965354 -0.0015481661)
(-1.8090447 -0.015204077 -0.0017856105)
(-0.11435104 -0.00032919761 -8.5955867e-05)
(-0.37501859 -0.0010329373 -0.00027578881)
(-0.70101059 -0.0019120966 -0.00052706495)
(-1.0630143 -0.0030610042 -0.00080820421)
(-1.4028774 -0.0046275364 -0.0010075498)
(-1.6545044 -0.0067033601 -0.0010456714)
(-1.783411 -0.0091558249 -0.0009865404)
(-1.8128087 -0.011549636 -0.00094680677)
(-1.7977955 -0.013371247 -0.0010657188)
(-0.11577263 -0.00029855653 -5.7269026e-05)
(-0.37958464 -0.00093042632 -0.00018797762)
(-0.70909242 -0.0017045879 -0.00037788606)
(-1.0737219 -0.0026904565 -0.00059388158)
(-1.4135902 -0.0040039829 -0.0007153366)
(-1.6615966 -0.0057147637 -0.00065636177)
(-1.7843353 -0.0077079354 -0.00048409293)
(-1.8076798 -0.0096112927 -0.00032290329)
(-1.7886668 -0.010911845 -0.00035034945)
(-0.11671636 -0.00023920507 -2.8204236e-05)
(-0.38266801 -0.00074194335 -9.9495937e-05)
(-0.71460405 -0.0013492181 -0.00022908218)
(-1.0810351 -0.0021074868 -0.00038383088)
(-1.4208204 -0.0030992706 -0.00043454221)
(-1.6661519 -0.0043748922 -0.00029023294)
(-1.7844605 -0.0058427671 -1.8422388e-05)
(-1.8035501 -0.0072178035 0.00024688059)
(-1.781744 -0.0081401792 0.00026595572)
(-0.11757832 -0.00015577667 -4.8445825e-06)
(-0.38522045 -0.00048102592 -2.8714831e-05)
(-0.71880412 -0.00086948984 -0.00011062751)
(-1.0862241 -0.0013475696 -0.00021763544)
(-1.4256339 -0.0019646235 -0.00021418689)
(-1.6689403 -0.0027515561 -5.2064156e-06)