/*--------------------------------*- C++ -*----------------------------------*\
| =========                 |                                                 |
| \\      /  F ield         | OpenFOAM: The Open Source CFD Toolbox           |
|  \\    /   O peration     | Version:  2406                                  |
|   \\  /    A nd           | Website:  www.openfoam.com                      |
|    \\/     M anipulation  |                                                 |
\*---------------------------------------------------------------------------*/
FoamFile
{
    version     2.0;
    format      ascii;
    arch        "LSB;label=32;scalar=64";
    class       volScalarField;
    location    "11.25";
    object      p;
}
// * * * * * * * * * * * * * * * * * * * * * * * * * * * * * * * * * * * * * //

dimensions      [0 2 -2 0 0 0 0];

internalField   nonuniform List<scalar> 
34560
(
36.710035
36.704927
36.698522
36.690925
36.681874
36.673909
36.671234
36.677368
36.68987
36.754126
36.748093
36.739791
36.729186
36.716605
36.705796
36.701667
36.707487
36.720309
36.805841
36.799131
36.789394
36.77592
36.758957
36.743494
36.735731
36.738979
36.749818
36.857641
36.850195
36.839068
36.823081
36.802399
36.782308
36.769932
36.768631
36.775489
36.910358
36.902336
36.889872
36.870784
36.845557
36.820144
36.802327
36.795807
36.798123
36.965277
36.956644
36.94277
36.920439
36.889672
36.857541
36.833188
36.820977
36.818576
37.022789
37.013233
36.997544
36.971713
36.934745
36.894785
36.862774
36.844015
36.836539
37.084175
37.073108
37.054826
37.024955
36.980323
36.931031
36.890311
36.864673
36.852484
37.149762
37.136313
37.114428
37.079322
37.026197
36.966195
36.915977
36.883579
36.867514
37.216809
37.20065
37.174196
37.132397
37.071159
36.999818
36.93997
36.901529
36.882252
37.2776
37.258598
37.227382
37.178924
37.110763
37.02895
36.960546
36.917279
36.895354
37.315648
37.294192
37.259688
37.207335
37.134832
37.047006
36.973224
36.927067
36.903789
37.315648
37.294192
37.259689
37.207335
37.134833
37.047007
36.973224
36.927068
36.903789
37.277601
37.258599
37.227384
37.178925
37.110764
37.028951
36.960547
36.91728
36.895355
37.21681
37.20065
37.174197
37.132399
37.071161
36.99982
36.939972
36.90153
36.882253
37.14976
37.136313
37.114429
37.079325
37.0262
36.966198
36.915979
36.883581
36.867516
37.084176
37.07311
37.054829
37.024958
36.980327
36.931035
36.890315
36.864676
36.852486
37.022792
37.013236
36.997548
36.971717
36.934749
36.894789
36.862778
36.844019
36.836543
36.965283
36.95665
36.942775
36.920443
36.889677
36.857546
36.833193
36.820982
36.818582
36.910363
36.902342
36.889879
36.87079
36.845563
36.82015
36.802333
36.795813
36.79813
36.857648
36.850202
36.839075
36.823088
36.802406
36.782315
36.769938
36.768638
36.775497
36.805848
36.799139
36.789402
36.775928
36.758965
36.743501
36.735738
36.738987
36.749827
36.754133
36.748102
36.7398
36.729195
36.716614
36.705805
36.701676
36.707495
36.72032
36.710044
36.704936
36.698531
36.690934
36.681883
36.67392
36.671245
36.67738
36.689885
33.944686
33.94525
33.945687
33.945824
33.94557
33.945418
33.946088
33.947796
33.950862
33.936992
33.937813
33.938565
33.939042
33.939248
33.939945
33.941971
33.945257
33.949205
33.929657
33.930773
33.931763
33.932323
33.932598
33.9337
33.93655
33.940634
33.944632
33.923915
33.925394
33.926609
33.927143
33.927201
33.928281
33.931453
33.935825
33.93969
33.920296
33.92217
33.923514
33.923944
33.923542
33.924239
33.927311
33.931603
33.935218
33.919046
33.921409
33.922949
33.923064
33.921871
33.921782
33.924415
33.928428
33.931766
33.92141
33.924254
33.925894
33.925318
33.922992
33.921713
33.923585
33.927142
33.930213
33.927965
33.93129
33.932965
33.931208
33.927674
33.925007
33.925937
33.928991
33.931836
33.939086
33.942804
33.944419
33.941497
33.936257
33.932287
33.932455
33.935124
33.937753
33.953828
33.957851
33.959383
33.955403
33.94776
33.943035
33.943045
33.945677
33.948143
33.968411
33.972644
33.974118
33.969133
33.959448
33.954927
33.955449
33.958419
33.960809
33.978422
33.982648
33.984016
33.978488
33.967775
33.963171
33.964296
33.967644
33.970018
33.978422
33.982648
33.984017
33.978489
33.967775
33.963171
33.964296
33.967644
33.970018
33.968412
33.972645
33.974119
33.969134
33.959448
33.954928
33.955449
33.95842
33.960809
33.953828
33.957851
33.959384
33.955404
33.947762
33.943037
33.943046
33.945678
33.948144
33.939086
33.942805
33.944421
33.941499
33.93626
33.932291
33.932458
33.935127
33.937755
33.927967
33.931293
33.932969
33.931212
33.927678
33.925011
33.925941
33.928994
33.931839
33.921414
33.924259
33.925899
33.925323
33.922997
33.921718
33.92359
33.927147
33.930217
33.919053
33.921416
33.922956
33.92307
33.921878
33.921788
33.924421
33.928434
33.931772
33.920303
33.922177
33.923522
33.923951
33.92355
33.924247
33.927318
33.93161
33.935225
33.923924
33.925403
33.926619
33.927153
33.92721
33.92829
33.931461
33.935833
33.939697
33.929667
33.930784
33.931773
33.932334
33.932609
33.93371
33.93656
33.940643
33.94464
33.937003
33.937825
33.938578
33.939054
33.939261
33.939957
33.941982
33.945266
33.949213
33.944698
33.945263
33.9457
33.945837
33.945584
33.945431
33.9461
33.947806
33.950872
33.009502
33.009546
33.00955
33.009398
33.009128
33.008918
33.008967
33.009449
33.010139
33.014026
33.014065
33.014012
33.013715
33.013211
33.012686
33.012367
33.012488
33.012965
33.018302
33.018381
33.018327
33.017973
33.01732
33.01653
33.015846
33.015578
33.015818
33.022556
33.022678
33.022644
33.022257
33.021479
33.020443
33.019386
33.018694
33.018614
33.026837
33.02701
33.027
33.026582
33.025694
33.024394
33.022935
33.021782
33.021317
33.031065
33.031307
33.031354
33.030931
33.029944
33.028358
33.026469
33.024822
33.023936
33.035278
33.035593
33.035702
33.03528
33.034179
33.032314
33.029961
33.027808
33.02649
33.039419
33.039816
33.040002
33.039577
33.038355
33.036196
33.033371
33.030734
33.028999
33.043362
33.043848
33.044128
33.043687
33.042331
33.039874
33.036643
33.033556
33.031438
33.046897
33.047477
33.047887
33.047428
33.0459
33.043158
33.039572
33.036118
33.033685
33.049709
33.05038
33.050926
33.050443
33.048715
33.045711
33.041843
33.038143
33.035493
33.051349
33.052074
33.052709
33.052189
33.050309
33.047117
33.043078
33.039262
33.036508
33.051349
33.052074
33.052709
33.05219
33.05031
33.047118
33.043078
33.039262
33.036509
33.04971
33.050381
33.050927
33.050444
33.048716
33.045713
33.041845
33.038144
33.035494
33.046898
33.047479
33.047888
33.04743
33.045903
33.04316
33.039574
33.03612
33.033687
33.043364
33.043851
33.044131
33.04369
33.042335
33.039878
33.036646
33.033559
33.03144
33.039422
33.03982
33.040006
33.039581
33.03836
33.0362
33.033376
33.030738
33.029002
33.035283
33.035598
33.035708
33.035286
33.034185
33.032319
33.029966
33.027813
33.026494
33.031072
33.031314
33.03136
33.030938
33.029951
33.028365
33.026476
33.024828
33.023941
33.026845
33.027019
33.027008
33.02659
33.025703
33.024402
33.022943
33.021789
33.021324
33.022566
33.022688
33.022654
33.022266
33.021489
33.020452
33.019395
33.018702
33.018622
33.018313
33.018392
33.018339
33.017984
33.017331
33.016541
33.015856
33.015588
33.015826
33.014038
33.014078
33.014025
33.013728
33.013224
33.012699
33.012379
33.012499
33.012974
33.009516
33.00956
33.009564
33.009412
33.009142
33.008932
33.00898
33.009462
33.01015
31.220763
31.220649
31.220534
31.22048
31.220469
31.220433
31.220301
31.220044
31.219878
31.221154
31.221022
31.2209
31.220859
31.220877
31.220876
31.220782
31.220582
31.220412
31.221578
31.221433
31.22131
31.221288
31.22134
31.221374
31.221296
31.221079
31.220799
31.222116
31.221964
31.22185
31.221846
31.221924
31.221977
31.221891
31.221616
31.221207
31.222723
31.222566
31.222471
31.222493
31.222598
31.222666
31.22256
31.222212
31.221668
31.223341
31.223198
31.223124
31.223178
31.223314
31.223397
31.223264
31.222837
31.22216
31.223986
31.223858
31.223805
31.223888
31.224054
31.224146
31.223983
31.223474
31.22267
31.224627
31.224515
31.224484
31.224597
31.22479
31.224888
31.224692
31.224107
31.223192
31.225245
31.225151
31.225137
31.225274
31.225493
31.225594
31.225369
31.224719
31.22371
31.22579
31.225717
31.225719
31.225879
31.226114
31.22622
31.225971
31.225271
31.224186
31.226199
31.226145
31.226163
31.226343
31.226591
31.226705
31.226447
31.225701
31.224558
31.226439
31.226392
31.226417
31.226602
31.226854
31.226977
31.226725
31.225945
31.224767
31.226439
31.226392
31.226417
31.226602
31.226854
31.226977
31.226725
31.225945
31.224768
31.226201
31.226146
31.226164
31.226345
31.226592
31.226706
31.226448
31.225702
31.22456
31.225792
31.225719
31.225721
31.225882
31.226116
31.226223
31.225973
31.225273
31.224188
31.225248
31.225154
31.22514
31.225277
31.225496
31.225598
31.225372
31.224722
31.223713
31.224631
31.224519
31.224489
31.224601
31.224794
31.224892
31.224697
31.224111
31.223195
31.223991
31.223863
31.223811
31.223894
31.224059
31.224152
31.223988
31.223479
31.222674
31.223347
31.223204
31.223131
31.223184
31.223321
31.223404
31.223271
31.222843
31.222164
31.22273
31.222574
31.222479
31.222501
31.222606
31.222674
31.222568
31.222219
31.221673
31.222126
31.221974
31.221859
31.221856
31.221934
31.221986
31.2219
31.221624
31.221214
31.221589
31.221444
31.221321
31.2213
31.221352
31.221386
31.221307
31.221089
31.220808
31.221167
31.221035
31.220913
31.220873
31.220891
31.22089
31.220795
31.220594
31.220423
31.220778
31.220663
31.220549
31.220495
31.220484
31.220448
31.220317
31.220059
31.219891
29.791077
29.791092
29.791092
29.791049
29.790966
29.79088
29.790844
29.790903
29.791041
29.791614
29.791628
29.79162
29.791556
29.791444
29.791331
29.791284
29.791347
29.791495
29.791997
29.792016
29.792009
29.791937
29.79181
29.791677
29.791618
29.79168
29.791843
29.792311
29.792337
29.79233
29.792253
29.792114
29.791969
29.791902
29.79196
29.792129
29.792569
29.792603
29.792597
29.792517
29.792372
29.792219
29.792139
29.792188
29.792351
29.792768
29.792808
29.79281
29.792733
29.792586
29.792427
29.792336
29.792376
29.792545
29.792935
29.79298
29.79299
29.792917
29.792771
29.792609
29.792511
29.792545
29.792718
29.793073
29.793127
29.793146
29.793079
29.792935
29.79277
29.792666
29.79269
29.792853
29.793184
29.793247
29.793276
29.793215
29.793073
29.792903
29.792787
29.792793
29.792938
29.793267
29.793338
29.793375
29.79332
29.793178
29.792999
29.792868
29.792855
29.79298
29.793321
29.793398
29.793441
29.79339
29.793246
29.793061
29.792918
29.792886
29.792995
29.793348
29.793428
29.793475
29.793425
29.793281
29.793091
29.792941
29.792897
29.792997
29.793349
29.793428
29.793475
29.793426
29.793281
29.793092
29.792941
29.792898
29.792998
29.793322
29.793399
29.793443
29.793391
29.793248
29.793062
29.792919
29.792887
29.792996
29.793269
29.79334
29.793378
29.793323
29.79318
29.793002
29.792871
29.792857
29.792982
29.793187
29.79325
29.793279
29.793219
29.793077
29.792907
29.792791
29.792797
29.792941
29.793078
29.793131
29.79315
29.793084
29.79294
29.792775
29.792671
29.792694
29.792856
29.79294
29.792986
29.792996
29.792924
29.792778
29.792615
29.792517
29.792551
29.792722
29.792775
29.792815
29.792817
29.792741
29.792594
29.792435
29.792343
29.792383
29.792551
29.792578
29.792612
29.792607
29.792527
29.792382
29.792228
29.792148
29.792196
29.792358
29.792321
29.792347
29.792341
29.792264
29.792126
29.79198
29.791912
29.79197
29.792138
29.792009
29.792029
29.792021
29.79195
29.791822
29.79169
29.79163
29.791692
29.791853
29.791628
29.791642
29.791634
29.79157
29.791459
29.791346
29.791297
29.791361
29.791507
29.791093
29.791108
29.791107
29.791064
29.790982
29.790896
29.79086
29.790918
29.791055
28.232612
28.232593
28.232575
28.232567
28.232566
28.23256
28.232532
28.232468
28.232391
28.23274
28.23272
28.232702
28.232697
28.232699
28.232693
28.232659
28.232585
28.232486
28.232863
28.232842
28.232825
28.232823
28.232829
28.23282
28.232773
28.232673
28.232529
28.233004
28.232983
28.232968
28.232968
28.232974
28.23296
28.232896
28.232771
28.232609
28.233153
28.233134
28.233121
28.233124
28.233131
28.233114
28.233042
28.232907
28.232736
28.2333
28.233283
28.233274
28.233282
28.233294
28.23328
28.233208
28.233068
28.232887
28.233446
28.233431
28.233425
28.233438
28.233457
28.233448
28.23338
28.233241
28.233058
28.23358
28.233567
28.233565
28.233584
28.23361
28.233611
28.233551
28.233416
28.233222
28.233696
28.233686
28.233687
28.233711
28.233746
28.233758
28.233704
28.233567
28.233362
28.233788
28.23378
28.233784
28.233814
28.233856
28.233874
28.233825
28.233685
28.233472
28.233852
28.233845
28.233851
28.233884
28.233931
28.233955
28.233908
28.233767
28.233548
28.233886
28.233879
28.233886
28.233921
28.23397
28.233996
28.233951
28.23381
28.233587
28.233887
28.23388
28.233887
28.233922
28.233971
28.233997
28.233952
28.23381
28.233588
28.233853
28.233846
28.233852
28.233886
28.233933
28.233956
28.23391
28.233769
28.233549
28.233791
28.233782
28.233786
28.233816
28.233858
28.233877
28.233828
28.233687
28.233473
28.233699
28.233689
28.23369
28.233715
28.23375
28.233762
28.233708
28.23357
28.233364
28.233584
28.233572
28.23357
28.233589
28.233615
28.233616
28.233556
28.23342
28.233225
28.233452
28.233437
28.233431
28.233445
28.233464
28.233455
28.233387
28.233247
28.233062
28.233308
28.233291
28.233282
28.23329
28.233303
28.233288
28.233217
28.233075
28.232892
28.233163
28.233144
28.233131
28.233134
28.233142
28.233125
28.233052
28.232916
28.232743
28.233016
28.232996
28.232981
28.232981
28.232987
28.232973
28.232908
28.232782
28.232618
28.232877
28.232856
28.23284
28.232838
28.232843
28.232835
28.232787
28.232685
28.23254
28.232757
28.232736
28.232719
28.232714
28.232716
28.232709
28.232674
28.2326
28.232499
28.23263
28.232611
28.232593
28.232585
28.232585
28.232578
28.23255
28.232485
28.232406
26.710576
26.710576
26.710573
26.710564
26.710547
26.710525
26.710505
26.710496
26.71051
26.710672
26.710672
26.710668
26.710655
26.710635
26.710613
26.710596
26.710595
26.710615
26.710727
26.710728
26.710724
26.710712
26.710693
26.710673
26.710661
26.710666
26.710689
26.710767
26.710769
26.710766
26.710755
26.710737
26.710719
26.710712
26.710724
26.710755
26.710792
26.710795
26.710794
26.710784
26.710768
26.710754
26.710753
26.710772
26.710811
26.710802
26.710806
26.710807
26.7108
26.710787
26.710777
26.710781
26.710803
26.710834
26.710801
26.710808
26.71081
26.710805
26.710795
26.710788
26.71079
26.710802
26.710818
26.710792
26.7108
26.710804
26.7108
26.710792
26.710782
26.710777
26.710778
26.71079
26.710777
26.710787
26.710792
26.71079
26.71078
26.710767
26.710757
26.710756
26.710766
26.710762
26.710773
26.71078
26.710778
26.710768
26.710754
26.710742
26.710739
26.710747
26.71075
26.710762
26.71077
26.710769
26.710759
26.710745
26.710732
26.710727
26.710735
26.710744
26.710757
26.710765
26.710764
26.710755
26.710741
26.710727
26.710722
26.710728
26.710745
26.710757
26.710766
26.710765
26.710756
26.710742
26.710728
26.710722
26.710728
26.710751
26.710763
26.710771
26.71077
26.710761
26.710747
26.710734
26.710728
26.710735
26.710764
26.710775
26.710782
26.710781
26.710771
26.710757
26.710745
26.710741
26.710749
26.710781
26.71079
26.710796
26.710794
26.710785
26.710771
26.710761
26.710759
26.710768
26.710797
26.710805
26.710809
26.710806
26.710797
26.710788
26.710782
26.710783
26.710793
26.710808
26.710814
26.710817
26.710812
26.710802
26.710795
26.710797
26.710808
26.710822
26.71081
26.710815
26.710816
26.710809
26.710797
26.710787
26.71079
26.71081
26.710839
26.710802
26.710806
26.710805
26.710796
26.71078
26.710766
26.710764
26.710781
26.710818
26.710781
26.710783
26.71078
26.710769
26.710752
26.710733
26.710725
26.710735
26.710764
26.710744
26.710745
26.710741
26.71073
26.710711
26.71069
26.710677
26.71068
26.7107
26.710691
26.710692
26.710687
26.710675
26.710655
26.710632
26.710615
26.710612
26.710628
26.710597
26.710598
26.710595
26.710585
26.710568
26.710546
26.710526
26.710516
26.710528
25.186662
25.186661
25.18666
25.186658
25.186656
25.186654
25.18665
25.186645
25.18664
25.186701
25.1867
25.186698
25.186697
25.186695
25.186691
25.186687
25.186683
25.18668
25.186736
25.186735
25.186734
25.186733
25.186731
25.186727
25.186721
25.186715
25.186709
25.186773
25.186773
25.186772
25.186772
25.18677
25.186766
25.186759
25.18675
25.186742
25.186812
25.186811
25.186811
25.186812
25.18681
25.186806
25.186798
25.186788
25.186777
25.186847
25.186847
25.186848
25.18685
25.18685
25.186846
25.186838
25.186827
25.186815
25.186881
25.186882
25.186884
25.186886
25.186887
25.186885
25.186877
25.186866
25.186851
25.186912
25.186914
25.186916
25.18692
25.186922
25.186921
25.186914
25.186902
25.186886
25.18694
25.186941
25.186944
25.186948
25.186952
25.186952
25.186947
25.186936
25.18692
25.186961
25.186963
25.186967
25.186972
25.186976
25.186978
25.186974
25.186964
25.18695
25.186977
25.186979
25.186983
25.186988
25.186993
25.186996
25.186994
25.186985
25.186972
25.186985
25.186987
25.186991
25.186997
25.187003
25.187006
25.187004
25.186997
25.186983
25.186985
25.186987
25.186992
25.186997
25.187003
25.187006
25.187005
25.186997
25.186983
25.186978
25.18698
25.186984
25.18699
25.186995
25.186998
25.186995
25.186986
25.186973
25.186963
25.186965
25.186969
25.186974
25.186979
25.186981
25.186977
25.186966
25.186952
25.186943
25.186945
25.186948
25.186952
25.186956
25.186956
25.186951
25.186939
25.186922
25.186917
25.186919
25.186922
25.186925
25.186928
25.186926
25.18692
25.186907
25.186889
25.186888
25.186889
25.186891
25.186894
25.186895
25.186892
25.186884
25.186871
25.186856
25.186855
25.186856
25.186857
25.186859
25.186859
25.186856
25.186847
25.186834
25.18682
25.186822
25.186822
25.186823
25.186823
25.186822
25.186818
25.186809
25.186797
25.186785
25.186787
25.186786
25.186786
25.186786
25.186785
25.18678
25.186772
25.186761
25.186751
25.186752
25.186751
25.186751
25.18675
25.186748
25.186744
25.186737
25.186729
25.186721
25.18672
25.186719
25.186718
25.186716
25.186714
25.18671
25.186705
25.1867
25.186695
25.186683
25.186682
25.186681
25.186679
25.186678
25.186675
25.186671
25.186665
25.186657
23.656382
23.65638
23.656379
23.656377
23.656374
23.656371
23.656366
23.656361
23.656361
23.656405
23.656403
23.656401
23.656399
23.656397
23.656395
23.656391
23.656388
23.656389
23.65642
23.656418
23.656416
23.656415
23.656414
23.656412
23.65641
23.656409
23.656409
23.656433
23.656432
23.65643
23.656429
23.656428
23.656428
23.656427
23.656426
23.656426
23.656444
23.656443
23.656442
23.656441
23.656441
23.656442
23.656442
23.656442
23.656441
23.656452
23.656452
23.656451
23.656451
23.656452
23.656454
23.656455
23.656455
23.656455
23.656459
23.656459
23.656458
23.656459
23.656461
23.656464
23.656466
23.656466
23.656465
23.656463
23.656464
23.656464
23.656466
23.656469
23.656472
23.656474
23.656475
23.656474
23.656466
23.656467
23.656468
23.65647
23.656474
23.656478
23.65648
23.65648
23.656476
23.656468
23.656469
23.656471
23.656473
23.656478
23.656482
23.656484
23.656482
23.656473
23.656469
23.656471
23.656472
23.656475
23.65648
23.656485
23.656486
23.656482
23.656471
23.65647
23.656471
23.656473
23.656477
23.656482
23.656486
23.656487
23.656481
23.65647
23.65647
23.656472
23.656474
23.656477
23.656482
23.656487
23.656488
23.656482
23.65647
23.65647
23.656472
23.656474
23.656477
23.656482
23.656486
23.656488
23.656483
23.656472
23.65647
23.656472
23.656473
23.656476
23.65648
23.656485
23.656487
23.656484
23.656474
23.656469
23.65647
23.656472
23.656474
23.656478
23.656482
23.656484
23.656483
23.656478
23.656468
23.656468
23.656469
23.656471
23.656474
23.656478
23.65648
23.656479
23.656476
23.656465
23.656465
23.656465
23.656466
23.656469
23.656471
23.656473
23.656472
23.656469
23.65646
23.65646
23.65646
23.65646
23.656461
23.656463
23.656464
23.656462
23.65646
23.656454
23.656453
23.656452
23.656452
23.656453
23.656453
23.656452
23.656451
23.656448
23.656445
23.656445
23.656443
23.656442
23.656442
23.656441
23.656439
23.656437
23.656435
23.656435
23.656434
23.656432
23.656431
23.65643
23.656428
23.656425
23.656422
23.65642
23.656423
23.656421
23.656419
23.656418
23.656415
23.656412
23.656408
23.656404
23.656403
23.656401
23.6564
23.656398
23.656397
23.656394
23.656391
23.656386
23.65638
23.656378
22.132678
22.132679
22.132679
22.132678
22.132677
22.132676
22.132676
22.132676
22.132676
22.132683
22.132683
22.132684
22.132683
22.132682
22.132681
22.13268
22.132681
22.132682
22.132686
22.132686
22.132687
22.132687
22.132685
22.132684
22.132683
22.132683
22.132685
22.132689
22.13269
22.13269
22.13269
22.132689
22.132687
22.132686
22.132686
22.132687
22.132692
22.132693
22.132694
22.132694
22.132693
22.132691
22.132689
22.132689
22.132691
22.132695
22.132696
22.132697
22.132697
22.132696
22.132694
22.132693
22.132692
22.132694
22.132697
22.132698
22.1327
22.1327
22.132699
22.132698
22.132696
22.132696
22.132697
22.1327
22.132701
22.132702
22.132703
22.132702
22.132701
22.132699
22.132699
22.1327
22.132702
22.132703
22.132705
22.132705
22.132705
22.132704
22.132702
22.132702
22.132703
22.132704
22.132705
22.132707
22.132707
22.132707
22.132706
22.132705
22.132704
22.132705
22.132705
22.132706
22.132708
22.132709
22.132709
22.132708
22.132707
22.132706
22.132707
22.132706
22.132707
22.132709
22.13271
22.13271
22.132709
22.132708
22.132707
22.132708
22.132706
22.132708
22.132709
22.132711
22.132711
22.13271
22.132708
22.132707
22.132708
22.132706
22.132707
22.132709
22.13271
22.13271
22.132709
22.132708
22.132707
22.132707
22.132705
22.132707
22.132709
22.13271
22.13271
22.132709
22.132707
22.132706
22.132706
22.132705
22.132706
22.132708
22.132709
22.132709
22.132708
22.132706
22.132704
22.132704
22.132704
22.132705
22.132707
22.132708
22.132708
22.132706
22.132704
22.132703
22.132702
22.132703
22.132704
22.132706
22.132707
22.132706
22.132705
22.132702
22.132701
22.1327
22.132702
22.132703
22.132705
22.132705
22.132705
22.132703
22.132701
22.132699
22.132698
22.132702
22.132703
22.132704
22.132704
22.132703
22.132701
22.132699
22.132697
22.132697
22.132701
22.132702
22.132703
22.132703
22.132702
22.1327
22.132698
22.132696
22.132695
22.132701
22.132702
22.132702
22.132702
22.132701
22.132699
22.132697
22.132696
22.132695
22.1327
22.132701
22.132701
22.132701
22.1327
22.132698
22.132697
22.132696
22.132695
22.132698
22.132698
22.132698
22.132698
22.132697
22.132695
22.132694
22.132694
22.132692
20.604335
20.604334
20.604333
20.604333
20.604333
20.604333
20.604333
20.604332
20.604332
20.604341
20.60434
20.604339
20.604339
20.604339
20.604339
20.604339
20.604339
20.60434
20.604346
20.604345
20.604344
20.604344
20.604344
20.604345
20.604345
20.604345
20.604345
20.604351
20.60435
20.60435
20.604349
20.60435
20.60435
20.604351
20.60435
20.60435
20.604356
20.604355
20.604354
20.604355
20.604355
20.604356
20.604356
20.604356
20.604355
20.60436
20.604359
20.604359
20.604359
20.60436
20.604361
20.604362
20.604361
20.60436
20.604363
20.604363
20.604363
20.604363
20.604365
20.604366
20.604367
20.604366
20.604364
20.604366
20.604366
20.604366
20.604367
20.604368
20.60437
20.604371
20.60437
20.604368
20.604369
20.604369
20.604369
20.60437
20.604372
20.604374
20.604375
20.604374
20.604371
20.604371
20.604371
20.604371
20.604372
20.604374
20.604376
20.604377
20.604376
20.604373
20.604372
20.604372
20.604372
20.604373
20.604376
20.604378
20.604379
20.604378
20.604375
20.604373
20.604373
20.604373
20.604375
20.604377
20.604379
20.604381
20.604379
20.604375
20.604373
20.604373
20.604373
20.604375
20.604377
20.60438
20.604381
20.60438
20.604376
20.604373
20.604373
20.604373
20.604375
20.604377
20.604379
20.604381
20.604379
20.604375
20.604372
20.604372
20.604373
20.604374
20.604376
20.604379
20.604379
20.604378
20.604374
20.604371
20.604371
20.604372
20.604373
20.604375
20.604377
20.604378
20.604376
20.604372
20.60437
20.60437
20.60437
20.604371
20.604373
20.604375
20.604375
20.604374
20.60437
20.604368
20.604368
20.604368
20.604369
20.604371
20.604372
20.604372
20.604371
20.604367
20.604366
20.604366
20.604366
20.604367
20.604368
20.604369
20.604369
20.604367
20.604364
20.604364
20.604364
20.604364
20.604364
20.604365
20.604366
20.604365
20.604363
20.604361
20.604362
20.604361
20.604361
20.604361
20.604362
20.604362
20.604361
20.60436
20.604357
20.604359
20.604359
20.604358
20.604358
20.604359
20.604359
20.604358
20.604356
20.604354
20.604357
20.604356
20.604356
20.604355
20.604355
20.604355
20.604354
20.604353
20.604351
20.604352
20.604352
20.604351
20.604351
20.604351
20.604351
20.60435
20.604349
20.604347
19.078889
19.078889
19.078889
19.078889
19.078889
19.078889
19.078889
19.07889
19.078891
19.07889
19.07889
19.07889
19.07889
19.07889
19.078889
19.07889
19.078891
19.078893
19.078891
19.078891
19.078891
19.078891
19.07889
19.07889
19.07889
19.078891
19.078893
19.078891
19.078891
19.078892
19.078892
19.078891
19.07889
19.07889
19.078891
19.078893
19.078892
19.078892
19.078892
19.078892
19.078892
19.078891
19.078891
19.078891
19.078893
19.078892
19.078892
19.078893
19.078893
19.078892
19.078892
19.078891
19.078892
19.078893
19.078892
19.078893
19.078893
19.078893
19.078893
19.078892
19.078892
19.078892
19.078894
19.078893
19.078893
19.078894
19.078894
19.078893
19.078893
19.078892
19.078893
19.078894
19.078893
19.078894
19.078894
19.078894
19.078894
19.078893
19.078893
19.078893
19.078895
19.078893
19.078894
19.078894
19.078894
19.078894
19.078894
19.078893
19.078894
19.078895
19.078894
19.078894
19.078895
19.078895
19.078895
19.078894
19.078894
19.078894
19.078895
19.078894
19.078895
19.078895
19.078895
19.078895
19.078894
19.078894
19.078894
19.078896
19.078894
19.078895
19.078895
19.078896
19.078895
19.078895
19.078895
19.078895
19.078896
19.078894
19.078895
19.078896
19.078896
19.078896
19.078895
19.078895
19.078895
19.078896
19.078895
19.078895
19.078896
19.078896
19.078896
19.078896
19.078895
19.078895
19.078896
19.078895
19.078896
19.078896
19.078897
19.078896
19.078896
19.078896
19.078895
19.078896
19.078896
19.078896
19.078897
19.078897
19.078897
19.078897
19.078896
19.078896
19.078896
19.078897
19.078897
19.078898
19.078898
19.078898
19.078897
19.078897
19.078896
19.078896
19.078898
19.078898
19.078899
19.078899
19.078899
19.078898
19.078897
19.078897
19.078897
19.078899
19.078899
19.0789
19.0789
19.0789
19.078899
19.078898
19.078897
19.078897
19.0789
19.078901
19.078901
19.078901
19.078901
19.0789
19.078899
19.078899
19.078899
19.078902
19.078902
19.078902
19.078902
19.078902
19.078901
19.0789
19.0789
19.0789
19.078903
19.078903
19.078904
19.078903
19.078903
19.078902
19.078902
19.078902
19.078902
19.078903
19.078904
19.078904
19.078904
19.078903
19.078903
19.078903
19.078904
19.078903
17.551793
17.551793
17.551792
17.551792
17.551792
17.551792
17.551792
17.551792
17.551792
17.551795
17.551795
17.551794
17.551794
17.551794
17.551795
17.551795
17.551794
17.551795
17.551797
17.551797
17.551796
17.551796
17.551797
17.551797
17.551797
17.551797
17.551797
17.551799
17.551799
17.551799
17.551799
17.551799
17.551799
17.551799
17.551799
17.551799
17.551801
17.551801
17.551801
17.551801
17.551801
17.551801
17.551802
17.551801
17.551801
17.551803
17.551803
17.551803
17.551803
17.551803
17.551803
17.551804
17.551804
17.551803
17.551805
17.551805
17.551804
17.551805
17.551805
17.551805
17.551806
17.551805
17.551805
17.551806
17.551806
17.551806
17.551806
17.551807
17.551807
17.551807
17.551807
17.551806
17.551807
17.551807
17.551807
17.551807
17.551808
17.551808
17.551809
17.551808
17.551807
17.551808
17.551808
17.551808
17.551808
17.551809
17.55181
17.55181
17.551809
17.551808
17.551809
17.551809
17.551809
17.551809
17.55181
17.55181
17.551811
17.55181
17.551809
17.551809
17.551809
17.551809
17.55181
17.55181
17.551811
17.551811
17.551811
17.551809
17.551809
17.551809
17.551809
17.55181
17.551811
17.551811
17.551812
17.551811
17.551809
17.551809
17.551809
17.551809
17.55181
17.551811
17.551811
17.551812
17.551811
17.551809
17.551809
17.551809
17.551809
17.55181
17.55181
17.551811
17.551811
17.551811
17.551809
17.551809
17.551809
17.551809
17.551809
17.55181
17.551811
17.551811
17.55181
17.551808
17.551809
17.551808
17.551809
17.551809
17.55181
17.55181
17.55181
17.551809
17.551808
17.551808
17.551808
17.551808
17.551808
17.551809
17.551809
17.551809
17.551808
17.551807
17.551807
17.551807
17.551807
17.551808
17.551808
17.551808
17.551808
17.551807
17.551806
17.551807
17.551807
17.551806
17.551807
17.551807
17.551807
17.551807
17.551806
17.551805
17.551806
17.551806
17.551806
17.551806
17.551806
17.551806
17.551806
17.551805
17.551804
17.551805
17.551805
17.551805
17.551805
17.551805
17.551805
17.551805
17.551804
17.551803
17.551804
17.551804
17.551804
17.551804
17.551804
17.551804
17.551804
17.551803
17.551802
17.551803
17.551803
17.551803
17.551803
17.551803
17.551803
17.551803
17.551802
17.551801
16.025586
16.025586
16.025586
16.025586
16.025586
16.025585
16.025586
16.025586
16.025586
16.025586
16.025586
16.025586
16.025586
16.025586
16.025586
16.025586
16.025586
16.025587
16.025587
16.025587
16.025587
16.025587
16.025587
16.025586
16.025586
16.025587
16.025587
16.025587
16.025587
16.025587
16.025587
16.025587
16.025587
16.025587
16.025587
16.025588
16.025587
16.025587
16.025588
16.025587
16.025587
16.025587
16.025587
16.025587
16.025588
16.025588
16.025588
16.025588
16.025588
16.025588
16.025587
16.025587
16.025588
16.025588
16.025588
16.025588
16.025588
16.025588
16.025588
16.025588
16.025588
16.025588
16.025589
16.025588
16.025588
16.025588
16.025588
16.025588
16.025588
16.025588
16.025588
16.025589
16.025588
16.025588
16.025589
16.025589
16.025588
16.025588
16.025588
16.025589
16.025589
16.025589
16.025589
16.025589
16.025589
16.025589
16.025589
16.025589
16.025589
16.025589
16.025589
16.025589
16.025589
16.025589
16.025589
16.025589
16.025589
16.025589
16.02559
16.025589
16.025589
16.025589
16.025589
16.025589
16.025589
16.025589
16.025589
16.02559
16.025589
16.025589
16.025589
16.025589
16.025589
16.025589
16.025589
16.02559
16.02559
16.025589
16.02559
16.02559
16.02559
16.02559
16.02559
16.02559
16.02559
16.02559
16.02559
16.02559
16.02559
16.02559
16.02559
16.02559
16.02559
16.02559
16.02559
16.02559
16.02559