/*--------------------------------*- C++ -*----------------------------------*\
| =========                 |                                                 |
| \\      /  F ield         | OpenFOAM: The Open Source CFD Toolbox           |
|  \\    /   O peration     | Version:  2406                                  |
|   \\  /    A nd           | Website:  www.openfoam.com                      |
|    \\/     M anipulation  |                                                 |
\*---------------------------------------------------------------------------*/
FoamFile
{
    version     2.0;
    format      ascii;
    arch        "LSB;label=32;scalar=64";
    class       surfaceScalarField;
    location    "11.25";
    object      phi;
}
// * * * * * * * * * * * * * * * * * * * * * * * * * * * * * * * * * * * * * //

dimensions      [0 3 -1 0 0 0 0];

oriented        oriented;

internalField   nonuniform List<scalar> 
101088
(
-6.0558765e-05
5.2831032e-06
4.5677723e-06
-3.3283807e-06
-0.0001610433
3.1747772e-05
1.5029938e-05
-2.1910988e-05
-0.00031516523
0.00010061991
2.3809569e-05
-7.315561e-05
-0.00052345459
0.00024114757
1.5600706e-05
-0.000182833
-0.00075229417
0.00045462724
-3.2037628e-05
-0.0003599521
-0.0009359213
0.0006818699
-0.00012523242
-0.00056447317
-0.0010253387
0.00084521162
-0.00023201659
-0.00072611519
-0.0010304563
0.00091226275
-0.00030130328
-0.000800048
0.00088431133
-0.00030492659
-0.00078969399
-0.00098922441
-7.3223734e-05
6.2976439e-06
5.9226435e-06
-0.00019214975
3.9010104e-05
1.9025008e-05
-0.0003704574
0.00012419527
2.8897399e-05
-0.00060251996
0.00029402837
1.4907451e-05
-0.0008401545
0.00053911463
-5.0140515e-05
-0.0010067012
0.0007827178
-0.00016919913
-0.001060029
0.00094800579
-0.00029946523
-0.0010249641
0.0010154663
-0.00038121804
0.00098985084
-0.00038668153
-0.00095929706
-8.650307e-05
6.5317597e-06
7.6189038e-06
-0.00022434069
4.2752019e-05
2.4362098e-05
-0.00042525332
0.00013965444
3.6688591e-05
-0.00067621806
0.00033264833
1.8522024e-05
-0.00091727612
0.00060275833
-6.2074812e-05
-0.0010657945
0.00085820634
-0.00020362884
-0.0010885636
0.0010284934
-0.00035272649
-0.0010235507
0.0011059755
-0.00044362681
0.0010937344
-0.00045020151
-0.0009348914
-9.9684359e-05
5.9527269e-06
9.5454828e-06
-0.00025645972
4.2461851e-05
3.0713614e-05
-0.00047889643
0.00014447
4.6694812e-05
-0.00074541874
0.00035069238
2.6326254e-05
-0.00098501402
0.00063561813
-6.7091218e-05
-0.0011162537
0.00090107599
-0.0002273654
-0.0011165131
0.0010836961
-0.00039139917
-0.0010323062
0.0011819191
-0.00048912404
0.0011895044
-0.00049641949
-0.00092683845
-0.00011182699
3.8887939e-06
1.1724411e-05
-0.00028546542
3.5590432e-05
3.8445662e-05
-0.00052554615
0.00013363945
5.9132243e-05
-0.00080446202
0.00034147794
3.9498556e-05
-0.0010434989
0.00063269228
-6.3679167e-05
-0.0011647563
0.00090998336
-0.00023916511
-0.0011540055
0.0011144678
-0.00041540796
-0.0010610916
0.0012422653
-0.00051856514
0.0012724763
-0.00052588022
-0.0009461951
-0.00012340158
3.0772869e-07
1.4203305e-05
-0.00031392096
2.1870207e-05
4.7653106e-05
-0.00057324862
0.00010604296
7.5952131e-05
-0.0008676436
0.00030364755
5.9367434e-05
-0.0011137814
0.00059485266
-5.0531677e-05
-0.0012348983
0.00088584474
-0.00023838905
-0.0012231018
0.0011195264
-0.00042390295
-0.0011275836
0.001280137
-0.00053039542
0.0013322153
-0.00053770879
-0.0010058147
-0.00013420428
-4.7225315e-06
1.7024347e-05
-0.00034201898
1.6523006e-06
5.8572785e-05
-0.00062426056
6.2459154e-05
9.7900781e-05
-0.00094079425
0.00023818765
8.7839104e-05
-0.0012045428
0.00052288963
-2.3999373e-05
-0.0013389117
0.00082913786
-0.00022036931
-0.0013368702
0.0010945594
-0.00041250767
-0.001244894
0.0012858368
-0.00052147775
0.0013555642
-0.00052957742
-0.0011183779
-0.00014483182
-1.0485452e-05
2.0286211e-05
-0.00037316564
-2.2315434e-05
7.1806637e-05
-0.00068890464
9.0955959e-06
0.00012668512
-0.0010425656
0.00015390156
0.00012566277
-0.0013437455
0.00042344711
1.9572189e-05
-0.0015078054
0.00073918363
-0.00018079432
-0.0015244623
0.0010288003
-0.00037664726
-0.0014371481
0.0012399958
-0.00048733612
0.0013191703
-0.00049759803
-0.0013019941
-0.00015622239
-1.5198354e-05
2.3989704e-05
-0.00041216264
-4.3306658e-05
8.7408376e-05
-0.00077843756
-3.9952124e-05
0.00016107415
-0.0011978586
6.7786125e-05
0.00017849953
-0.0015623521
0.00030783863
8.1762304e-05
-0.0017732515
0.00061277606
-0.00011631989
-0.0018131966
0.00090243033
-0.00031163312
-0.0017252577
0.0011115917
-0.00042286569
0.001188031
-0.0004373952
-0.0015705495
-0.00016898911
-1.6122851e-05
2.7895191e-05
-0.00046246336
-5.054974e-05
0.00010430291
-0.00090052275
-6.4376842e-05
0.00019922222
-0.0014190413
4.1319355e-06
0.00024392493
-0.0018718079
0.00019131226
0.00015786463
-0.0021425797
0.00044527597
-2.9532375e-05
-0.002204312
0.00069067315
-0.00021859733
-0.0021051015
0.00086464599
-0.00032857284
0.0009243971
-0.00034965571
-0.0019166768
-0.00018225649
-1.0653907e-05
3.1363797e-05
-0.00051896551
-3.4403366e-05
0.00011952711
-0.0010391641
-4.7933736e-05
0.00023445747
-0.001669484
-1.5468671e-05
0.00030417661
-0.0022184857
8.9455296e-05
0.0002307036
-0.002550348
0.0002366166
6.3299613e-05
-0.0026275422
0.00038089383
-0.00011446279
-0.0025076686
0.00048133115
-0.0002214016
0.0005136383
-0.00025050102
-0.0022784883
-0.00019127965
-1.695287e-10
3.3482302e-05
-0.00055800757
-7.29966e-10
0.00012895678
-0.0011349499
-1.9218621e-09
0.00025666734
-0.0018423215
-3.4387286e-09
0.00034238246
-0.002460545
-4.7865131e-09
0.00028313322
-0.002833168
-5.1358752e-09
0.00012728688
-0.0029177301
-4.8122242e-09
-4.0667527e-05
-0.0027801791
-4.4684994e-09
-0.00014533053
-4.5614627e-09
-0.00018020592
-0.0025220104
-0.00019127948
1.0653562e-05
3.3482291e-05
-0.00055800764
3.4401825e-05
0.00012895674
-0.0011349496
4.7929881e-05
0.00025666725
-0.0018423213
1.54622e-05
0.00034238232
-0.0024605446
-8.9464321e-05
0.00028313304
-0.0028331676
-0.00023662655
0.00012728669
-0.0029177301
-0.00038090342
-4.0667684e-05
-0.0027801796
-0.00048133997
-0.00014533065
-0.00051364704
-0.00018020604
-0.0025220113
-0.00018225639
1.612258e-05
3.1363785e-05
-0.00051896569
5.0548286e-05
0.00011952704
-0.0010391634
6.437345e-05
0.00023445733
-0.0016694843
-4.1375248e-06
0.00030417632
-0.0022184855
-0.00019132035
0.0002307032
-0.0025503479
-0.00044528521
6.3299169e-05
-0.0026275427
-0.0006906826
-0.00011446317
-0.00250767
-0.00086465469
-0.00022140191
-0.00092440515
-0.00025050133
-0.0022784901
-0.00016898977
1.5198095e-05
2.7895168e-05
-0.00046246413
4.3305207e-05
0.00010430281
-0.00090052192
3.9948866e-05
0.00019922199
-0.0014190423
-6.7791529e-05
0.00024392447
-0.001871808
-0.00030784604
0.0001578641
-0.0021425802
-0.0006127838
-2.9532921e-05
-0.0022043129
-0.00090243858
-0.00021859777
-0.0021051032
-0.0011115998
-0.00032857319
-0.0011880384
-0.00034965611
-0.001916678
-0.00015622372
1.0485046e-05
2.3989682e-05
-0.0004121643
2.2313855e-05
8.7408286e-05
-0.00077843786
-9.0988052e-06
0.00016107394
-0.0011978603
-0.00015390686
0.00017849913
-0.0015623529
-0.00042345312
8.1761795e-05
-0.0017732533
-0.00073918911
-0.00011632041
-0.0018131982
-0.0010288067
-0.00031163356
-0.0017252597
-0.0012400033
-0.00042286601
-0.0013191785
-0.00043739557
-0.0015705498
-0.00014483264
4.72225e-06
2.0286196e-05
-0.00037316653
-1.6531486e-06
7.1806568e-05
-0.00068890521
-6.2461281e-05
0.00012668495
-0.0010425671
-0.00023819163
0.00012566247
-0.0013437471
-0.00052289408
1.9571731e-05
-0.0015078089
-0.00082914203
-0.00018079479
-0.001524465
-0.0010945646
-0.00037664766
-0.0014371513
-0.001285844
-0.00048733637
-0.0013555739
-0.0004975983
-0.0013019952
-0.00013420413
-3.0796661e-07
1.7024335e-05
-0.00034201925
-2.1870904e-05
5.8572729e-05
-0.00062426194
-0.00010604487
9.7900633e-05
-0.00094079668
-0.00030365103
8.7838819e-05
-0.0012045457
-0.00059485738
-2.3999776e-05
-0.0013389159
-0.00088584885
-0.0002203697
-0.0013368738
-0.001119531
-0.00041250801
-0.0012448989
-0.0012801434
-0.00052147795
-0.001332225
-0.00052957762
-0.0011183815
-0.0001234017
-3.8888405e-06
1.4203298e-05
-0.00031392153
-3.5590742e-05
4.7653068e-05
-0.00057324959
-0.00013364052
7.5952025e-05
-0.00086764669
-0.00034148073
5.9367194e-05
-0.0011137841
-0.00063269604
-5.0532041e-05
-0.0012349018
-0.00090998612
-0.00023838942
-0.0012231055
-0.0011144714
-0.00042390326
-0.0011275887
-0.0012422711
-0.00053039561
-0.0012724844
-0.00053770896
-0.0010058195
-0.00011182669
-5.9528512e-06
1.17244e-05
-0.00028546476
-4.2462123e-05
3.8445611e-05
-0.00052554569
-0.0001444703
5.9132127e-05
-0.00080446299
-0.00035069346
3.9498333e-05
-0.0010434992
-0.00063561928
-6.3679486e-05
-0.0011647582
-0.00090107797
-0.00023916541
-0.0011540082
-0.0010836982
-0.00041540821
-0.0010610944
-0.0011819242
-0.00051856531
-0.0011895114
-0.00052588035
-0.00094619798
-9.9684264e-05
-6.5317858e-06
9.5454706e-06
-0.00025645971
-4.275211e-05
3.0713564e-05
-0.00047889627
-0.00013965472
4.6694703e-05
-0.00074541854
-0.00033264952
2.6326055e-05
-0.00098501476
-0.00060276047
-6.709148e-05
-0.0011162537
-0.00085820793
-0.00022736565
-0.0011165144
-0.0010284953
-0.00039139938
-0.0010323081
-0.0011059793
-0.00048912424
-0.0010937403
-0.00049641966
-0.00092684212
-8.6503246e-05
-6.297695e-06
7.6188913e-06
-0.00022434127
-3.9010245e-05
2.436205e-05
-0.00042525364
-0.00012419558
3.6688489e-05
-0.00067621732
-0.00029402904
1.852185e-05
-0.00091727515
-0.00053911562
-6.2075056e-05
-0.0010657939
-0.00078271764
-0.0002036291
-0.001088564
-0.00094800567
-0.00035272674
-0.0010235524
-0.0010154682
-0.00044362697
-0.00098985666
-0.00045020165
-0.00093489531
-7.3223876e-05
-5.2831408e-06
5.922634e-06
-0.00019215015
-3.1747837e-05
1.9024972e-05
-0.00037045751
-0.00010061994
2.8897319e-05
-0.00060251907
-0.00024114741
1.4907308e-05
-0.00084015306
-0.00045462704
-5.0140734e-05
-0.0010067003
-0.00068186994
-0.00016919938
-0.0010600267
-0.000845211
-0.00029946547
-0.001024962
-0.00091226589
-0.00038121831
-0.00088431725
-0.00038668169
-0.00095929871
-6.0558764e-05
4.5677658e-06
-3.3283928e-06
-0.00016104312
1.5029912e-05
-2.1911009e-05
-0.00031516451
2.3809507e-05
-7.3155627e-05
-0.00052345412
1.5600591e-05
-0.00018283296
-0.0007522944
-3.2037801e-05
-0.00035995155
-0.00093592087
-0.00012523265
-0.00056447097
-0.0010253389
-0.00023201682
-0.00072611279
-0.0010304557
-0.00030130346
-0.00080004949
-0.00030492678
-0.00078969565
-0.00098922427
1.2444288e-06
2.3780889e-07
4.347451e-06
-1.26191e-06
5.1498067e-06
-2.6904052e-07
1.5899359e-05
-4.5056735e-06
1.2812781e-05
-4.8822414e-06
2.8731851e-05
-7.7027923e-06
2.5005905e-05
-2.1889391e-05
3.025476e-05
-4.9575217e-06
4.092511e-05
-6.4356808e-05
1.2623777e-06
1.5137689e-05
6.0304876e-05
-0.00013905958
-6.8064258e-05
6.2511636e-05
8.5214402e-05
-0.00023056711
-0.00015681366
0.00013045513
0.00011551
-0.00030639484
-0.00022091311
0.00019570873
-0.00034398603
-0.00023114568
0.0002387985
0.00014691616
2.021191e-06
-1.2177753e-06
5.3570585e-06
8.699146e-06
-7.1599456e-06
1.9237958e-05
2.203845e-05
-2.2866751e-05
3.3542389e-05
4.1971171e-05
-5.8877749e-05
3.196206e-05
6.4234555e-05
-0.00012791898
-8.8433561e-06
8.5376932e-05
-0.00023075871
-9.8642489e-05
0.00010688296
-0.00034232638
-0.00020921178
0.00013161352
-0.00042525921
-0.00028708458
-0.00045827914
-0.00030030186
0.00015952627
3.131544e-06
-3.2095782e-06
6.4792744e-06
1.3553997e-05
-1.6335816e-05
2.3115754e-05
3.4006615e-05
-4.6177867e-05
3.9547223e-05
6.2683252e-05
-0.0001050535
3.6021055e-05
9.0606585e-05
-0.00020328282
-1.463368e-05
0.00011101022
-0.00033304766
-0.00012174347
0.00012631452
-0.00046025273
-0.0002501042
0.00014273235
-0.0005465267
-0.00033877642
-0.00057374095
-0.00035441031
0.00016240276
4.4979654e-06
-5.7284807e-06
7.5663827e-06
1.9662149e-05
-2.7660671e-05
2.6874169e-05
4.8754859e-05
-7.4118096e-05
4.5541655e-05
8.7713227e-05
-0.00015825913
4.0572482e-05
0.00012159063
-0.00028583959
-1.8411069e-05
0.00014031784
-0.00043926491
-0.0001398754
0.00014823585
-0.00057740329
-0.00028216532
0.00015494187
-0.00066377114
-0.00037858545
-0.00068399944
-0.00039572395
0.00016450438
5.9981562e-06
-8.5912391e-06
8.5889976e-06
2.6667146e-05
-4.0324382e-05
3.0440511e-05
6.5061799e-05
-0.00010471421
5.1333891e-05
0.00011539628
-0.00021441519
4.5320703e-05
0.00015558614
-0.00036899638
-2.0713092e-05
0.00017256509
-0.00054127519
-0.00015413252
0.00017317635
-0.00068609853
-0.00030732379
0.0001703177
-0.00077042305
-0.00040905437
-0.00078265697
-0.00042673305
0.00016982833
7.739472e-06
-1.1664347e-05
9.5369361e-06
3.4797142e-05
-5.3498715e-05
3.3769814e-05
8.4567876e-05
-0.00013536849
5.6835425e-05
0.00014784596
-0.00026841547
5.0090661e-05
0.00019513405
-0.00044486323
-2.1953207e-05
0.00021046717
-0.00062951917
-0.00016547812
0.00020409223
-0.00077625626
-0.00032737091
0.00019211271
-0.00085620172
-0.00043263699
-0.00085975606
-0.00044996246
0.00018146547
9.4659374e-06
-1.4494649e-05
1.038871e-05
4.2947734e-05
-6.5198008e-05
3.6790427e-05
0.00010484114
-0.00016129819
6.1937453e-05
0.00018086859
-0.00031142988
5.4826824e-05
0.00023520218
-0.00050100908
-2.2186407e-05
0.00024933162
-0.00068978849
-0.00017422844
0.00023742252
-0.00083366391
-0.00034319188
0.00021812789
-0.00090753643
-0.00045084867
-0.00090258305
-0.00046728314
0.00019866014
1.1034563e-05
-1.6429791e-05
1.1187209e-05
5.0542612e-05
-7.2597179e-05
3.9697545e-05
0.00012485133
-0.00017603046
6.7108084e-05
0.00021149367
-0.00033254246
6.0133331e-05
0.00027294492
-0.00052204725
-2.0841604e-05
0.0002868261
-0.0007042703
-0.00018019352
0.00027137452
-0.00083963087
-0.0003552299
0.00024700811
-0.00090574508
-0.0004647613
-0.00089351005
-0.00048010172
0.00022043857
1.2166224e-05
-1.6560953e-05
1.1955386e-05
5.640573e-05
-7.2019955e-05
4.259195e-05
0.00014042283
-0.00017155979
7.2585833e-05
0.00023776735
-0.00031764546
6.6259054e-05
0.0003046562
-0.00048947798
-1.7696863e-05
0.0003189602
-0.00065175972
-0.0001831353
0.0003022563
-0.00077110375
-0.00036345732
0.0002754304
-0.0008270856
-0.00047469896
-0.00081036451
-0.00048914403
0.00024403398
1.2537163e-05
-1.388847e-05
1.2685765e-05
5.9071901e-05
-5.9627877e-05
4.5376122e-05
0.00014828994
-0.00013992332
7.8367028e-05
0.00025587495
-0.00025455684
7.32522e-05
0.00032521628
-0.00038797986
-1.2975223e-05
0.00034116454
-0.0005138234
-0.00018341756
0.00032586521
-0.00060624428
-0.00036815769
0.00029927275
-0.00064814539
-0.00048091984
-0.00063151325
-0.00049473383
0.00026550009
1.2302127e-05
-8.1217597e-06
1.329483e-05
5.8946456e-05
-3.4481572e-05
4.773668e-05
0.00014984781
-7.9993166e-05
8.3625723e-05
0.00026346974
-0.00014392789
7.9925865e-05
0.00033233351
-0.00021813531
-8.0047352e-06
0.00035086026
-0.00028706512
-0.00018198528
0.00033859947
-0.0003385873
-0.00036985845
0.00031414435
-0.00036139234
-0.00048369881
-0.00035080947
-0.00049715803
0.00028009781
1.1685688e-05
3.5307658e-11
1.3674705e-05
5.6900467e-05
1.7797665e-10
4.926065e-05
0.00014635061
3.7825757e-10
8.7223943e-05
0.00026026258
7.7120274e-10
8.45417e-05
0.0003295799
1.3985183e-09
-4.3204769e-06
0.00035034457
2.0773953e-09
-0.0001805443
0.00034136715
2.4987055e-09
-0.00037027915
0.00031943699
2.4161873e-09
-0.00048479475
1.8630206e-09
-0.00049809145
0.00028651098
1.1685768e-05
8.1218096e-06
1.3674701e-05
5.6900375e-05
3.4481827e-05
4.9260638e-05
0.00014635056
7.9993794e-05
8.7223921e-05
0.00026026252
0.00014392946
8.4541678e-05
0.00032957996
0.00021813814
-4.3204903e-06
0.00035034463
0.00028706909
-0.0001805443
0.00034136709
0.00033859187
-0.00037027914
0.00031943684
0.00036139681
-0.00048479475
0.00035081315
-0.00049809147
0.00028651066
1.2302185e-05
1.3888524e-05
1.3294827e-05
5.8946274e-05
5.9628068e-05
4.7736667e-05
0.00014984795
0.00013992391
8.3625698e-05
0.00026346944
0.00025455853
7.9925826e-05
0.00033233337
0.00038798263
-8.0047805e-06
0.00035086018
0.00051382697
-0.00018198534
0.00033859924
0.00060624806
-0.0003698585
0.00031414402
0.00064814916
-0.00048369886
0.00063151676
-0.0004971581
0.0002800974
1.2536825e-05
1.6561014e-05
1.2685758e-05
5.9071412e-05
7.2020126e-05
4.5376097e-05
0.0001482901
0.00017156034
7.8366979e-05
0.00025587396
0.00031764688
7.3252126e-05
0.00032521562
0.00048948026
-1.2975282e-05
0.00034116408
0.00065176297
-0.0001834176
0.00032586493
0.00077110718
-0.0003681577
0.00029927251
0.00082708886
-0.00048091988
0.00081036742
-0.00049473393
0.00026550047
1.2165488e-05
1.6429735e-05
1.1955378e-05
5.6404782e-05
7.2597108e-05
4.2591922e-05
0.00014042259
0.00017603067
7.2585782e-05
0.00023776599
0.00033254325
6.6258976e-05
0.00030465539
0.00052204925
-1.769693e-05
0.00031895933
0.00070427389
-0.00018313535
0.00030225598
0.0008396348
-0.00036345735
0.0002754302
0.00090574817
-0.000474699
0.00089351164
-0.00048914413
0.00024403493
1.1034078e-05
1.4494584e-05
1.1187202e-05
5.0542101e-05
6.5198052e-05
3.9697521e-05
0.00012485119
0.00016129852
6.7108041e-05
0.00021149284
0.00031143071
6.0133262e-05
0.00027294429
0.00050101134
-2.0841682e-05
0.00028682484
0.00068979247
-0.00018019358
0.000271374
0.00083366832
-0.00035522996
0.00024700758
0.00090753928
-0.00046476134
0.00090258319
-0.00048010177
0.00022043902
9.4659021e-06
1.1664294e-05
1.0388705e-05
4.2947509e-05
5.3498779e-05
3.6790406e-05
0.00010484081
0.00013536869
6.1937413e-05
0.00018086783
0.00026841614
5.4826751e-05
0.00023520133
0.00044486512
-2.2186509e-05
0.0002493301
0.00062952288
-0.00017422854
0.00023742163
0.0007762606
-0.00034319197
0.00021812671
0.00085620443
-0.00045084871
0.00085975597
-0.00046728315
0.00019865955
7.7394687e-06
8.5912513e-06
9.5369336e-06
3.4797094e-05
4.032458e-05
3.3769802e-05
8.4568091e-05
0.00010471464
5.6835396e-05
0.00014784523
0.00021441589
5.0090587e-05
0.00019513346
0.00036899822
-2.1953332e-05
0.000210466
0.00054127897
-0.00016547828
0.0002040912
0.00068610283
-0.00032737105
0.00019211157
0.00077042581
-0.00043263706
0.0007826575
-0.00044996248
0.00018146502
5.9983e-06
5.7284587e-06
8.5889927e-06
2.6667457e-05
2.7660772e-05
3.0440489e-05
6.5062169e-05
7.4118504e-05
5.133384e-05
0.00011539608
0.00015825991
4.5320613e-05
0.00015558631
0.0002858418
-2.0713226e-05
0.00017256425
0.00043926841
-0.00015413267
0.00017317553
0.00057740767
-0.00030732391
0.00017031759
0.00066377391
-0.00040905443
0.00068399984
-0.00042673308
0.0001698293
4.497999e-06
3.2095825e-06
7.5663756e-06
1.966213e-05
1.633598e-05
2.687414e-05
4.8755032e-05
4.6178407e-05
4.5541593e-05
8.7713811e-05
0.00010505447
4.0572378e-05
0.00012159054
0.00020328464
-1.8411221e-05
0.00014031781
0.00033305112
-0.00013987556
0.00014823563
0.00046025655
-0.00028216544
0.00015494211
0.00054652957
-0.00037858553
0.00057374086
-0.00039572401
0.00016450529
3.1314147e-06
1.2177699e-06
6.4792659e-06
1.3553552e-05
7.1600412e-06
2.311572e-05
3.4006162e-05
2.2867076e-05
3.9547151e-05
6.2683397e-05
5.8878468e-05
3.6020941e-05
9.0606604e-05
0.00012792061
-1.4633833e-05
0.00011101002
0.00023076235
-0.00012174364
0.00012631415
0.0003423306
-0.00025010434
0.00014273151
0.00042526203
-0.00033877651
0.00045827803
-0.00035441039
0.00016240297
2.0210537e-06
-2.3778803e-07
5.3570522e-06
8.698679e-06
2.6921445e-07
1.9237932e-05
2.2037889e-05
4.8827761e-06
3.3542334e-05
4.1971076e-05
2.1890676e-05
3.1961968e-05
6.4234711e-05
6.4359339e-05
-8.8434923e-06
8.5376633e-05
0.0001390635
-9.8642663e-05
0.00010688335
0.0002305714
-0.00020921196
0.00013161413
0.00030639656
-0.00028708475
0.00034398426
-0.00030030196
0.00015952623
1.2443966e-06
4.3474471e-06
-1.2618904e-06
5.1497327e-06
1.5899342e-05
-4.5055412e-06
1.281282e-05
2.8731814e-05
-7.7024002e-06
2.5005733e-05
3.0254691e-05
-4.9565934e-06
4.092492e-05
1.262279e-06
1.513978e-05
6.0305957e-05
-6.8064373e-05
6.2515903e-05
8.5215337e-05
-0.00015681379
0.00013045957
0.00011551147
-0.00022091323
0.00019571093
-0.00023114577
0.00023879878
0.00014691687
7.3090657e-08
-8.329328e-07
4.2941044e-06
8.1319056e-07
7.3632199e-07
-3.3655162e-06
1.5258354e-05
3.3433007e-06
2.042224e-06
-7.4475939e-06
2.7307728e-05
7.5658279e-06
2.7476628e-06
-1.2627478e-05
2.886863e-05
1.3308115e-05
1.1775567e-06
-1.7264018e-05
7.0898742e-07
1.9387317e-05
-2.8629222e-06
-1.892816e-05
-6.8704332e-05
2.3608497e-05
-7.1749778e-06
-1.6505014e-05
-0.00016012043
2.4123855e-05
-8.8177826e-06
-1.2022057e-05
-0.00022878899
2.1540561e-05
-9.6466285e-06
-0.00024219084
1.7734612e-05
-5.8608257e-06
8.3232971e-08
-8.9504626e-07
5.3359422e-06
9.0206749e-07
-3.5273173e-06
1.858091e-05
2.3719938e-06
-7.5468326e-06
3.2171585e-05
2.8000039e-06
-1.2141478e-05
3.1047644e-05
1.7645947e-07
-1.5186215e-05
-8.2981923e-06
-5.461981e-06
-1.4138645e-05
-9.7793683e-05
-1.131699e-05
-8.7469035e-06
-0.00021111497
-1.3901957e-05
-2.4156143e-06
-0.00029410637
1.2275355e-07
-0.0003117689
-1.2204775e-05
1.0173003e-07
-9.9692047e-07
6.4794336e-06
1.2082874e-06
-3.8567337e-06
2.23386e-05
3.1275531e-06
-8.0338977e-06
3.8114848e-05
3.8593982e-06
-1.2273387e-05
3.5420761e-05
1.0024911e-06
-1.3781383e-05
-1.3181726e-05
-5.4688497e-06
-9.8724577e-06
-0.00011953853
-1.2499517e-05
-1.3091206e-06
-0.00025051136
-1.6427382e-05
7.2336296e-06
-0.00034449774
1.0852607e-05
-0.00036542248
-1.6145211e-05
1.2263504e-07
-1.129759e-06
7.5765725e-06
1.5393496e-06
-4.3367605e-06
2.5937402e-05
4.0514529e-06
-8.8987839e-06
4.3894092e-05
5.3980041e-06
-1.3077146e-05
4.002918e-05
2.8522366e-06
-1.3271225e-05
-1.6375447e-05
-3.8917752e-06
-6.4823491e-06
-0.00013652169
-1.1798983e-05
5.4165372e-06
-0.00028098352
-1.7006046e-05
1.64192e-05
-0.00038256403
2.1369338e-05
-0.00040546449
-1.7782397e-05
1.4895328e-07
-1.279503e-06
8.5897672e-06
1.9318929e-06
-4.9203619e-06
2.9241141e-05
5.1634685e-06
-1.0070665e-05
4.9274098e-05
7.3906607e-06
-1.4508487e-05
4.4524804e-05
5.5194705e-06
-1.3704513e-05
-1.8409027e-05
-1.1414908e-06
-4.2693745e-06
-0.0001496843
-9.7123866e-06
1.0820193e-05
-0.00030415652
-1.609967e-05
2.4218635e-05
-0.00041046654
3.0472701e-05
-0.00043407507
-1.786094e-05
1.9797511e-07
-1.4381108e-06
9.4975441e-06
2.3857609e-06
-5.5625841e-06
3.2224139e-05
6.486086e-06
-1.1419439e-05
5.4083669e-05
9.7943188e-06
-1.6343778e-05
4.861789e-05
8.8217689e-06
-1.4915082e-05
-1.9770324e-05
2.4604562e-06
-3.4366037e-06
-0.00015994969
-6.7265451e-06
1.4287558e-05
-0.00032165147
-1.4320698e-05
2.9614713e-05
-0.00043043891
3.6874823e-05
-0.00045360502
-1.708023e-05
2.6015462e-07
-1.5727426e-06
1.0263199e-05
2.8844674e-06
-6.1319562e-06
3.4735507e-05
7.9443248e-06
-1.266613e-05
5.8124309e-05
1.2528965e-05
-1.8185126e-05
5.2083628e-05
1.2705956e-05
-1.6594538e-05
-2.0683778e-05
6.6594556e-06
-3.9001493e-06
-0.00016771814
-3.2162787e-06
1.5350687e-05
-0.00033437956
-1.210857e-05
3.1703261e-05
-0.00044404505
3.947536e-05
-0.00046603464
-1.5957701e-05
3.3657447e-07
-1.6345327e-06
1.0912495e-05
3.4390229e-06
-6.4226951e-06
3.6885795e-05
9.5951527e-06
-1.3357063e-05
6.1642799e-05
1.5560822e-05
-1.9317262e-05
5.5299857e-05
1.6855501e-05
-1.7925519e-05
-2.0805437e-05
1.1015072e-05
-5.2243838e-06
-0.00017302872
3.9369499e-07
1.3850328e-05
-0.0003431085
-9.8716173e-06
3.0002685e-05
-0.00045279553
3.7684518e-05
-0.00047332173
-1.4860811e-05
4.2357366e-07
-1.5582204e-06
1.1455688e-05
4.0134906e-06
-6.1626347e-06
3.874209e-05
1.1419062e-05
-1.2909344e-05
6.4732546e-05
1.8817866e-05
-1.8846567e-05
5.8389973e-05
2.1181529e-05
-1.7897781e-05
-2.0088413e-05
1.5469556e-05
-6.532531e-06
-0.00017611527
3.8586136e-06
1.0542613e-05
-0.00034853892
-7.8059553e-06
2.4871538e-05
-0.00045790319
3.166905e-05
-0.00047702047
-1.3913973e-05
5.1395831e-07
-1.2715921e-06
1.1885286e-05
4.5240482e-06
-5.0510268e-06
4.0254503e-05
1.3329808e-05
-1.06388e-05
6.7290708e-05
2.2246876e-05
-1.56538e-05
6.1142894e-05
2.5422469e-05
-1.5152592e-05
-1.88959e-05
1.9486102e-05
-6.4754613e-06
-0.00017753826
6.8808903e-06
6.4787211e-06
-0.00035148858
-6.0563165e-06
1.7332551e-05
-0.00046044344
2.2440027e-05
-0.00047840442
-1.3156575e-05
5.8842371e-07
-7.3340359e-07
1.2168246e-05
4.946373e-06
-2.9149891e-06
4.1242858e-05
1.5103162e-05
-6.1538357e-06
6.8984103e-05
2.5443105e-05
-9.076802e-06
6.3009325e-05
2.908936e-05
-8.8692611e-06
-1.7934064e-05
2.2779712e-05
-4.0724109e-06
-0.00017807843
9.1967349e-06
2.9850163e-06
-0.00035278148
-4.7282016e-06
8.8561597e-06
-0.00046129723
1.1567584e-05
-0.00047843606
-1.2577669e-05
6.1391047e-07
-2.2033643e-11
1.2327435e-05
5.1388109e-06
-5.6395855e-11
4.1821061e-05
1.6188405e-05
-1.0293765e-10
7.0020926e-05
2.7398903e-05
-8.8924377e-11
6.4254841e-05
3.1281783e-05
3.6176576e-11
-1.7072268e-05
2.4646669e-05
2.5901828e-10
-0.00017798136
1.0475705e-05
4.1666248e-10
-0.00035312316
-3.9831616e-06
3.3394283e-10
-0.00046147986
8.2207921e-11
-0.00047824967
-1.2257487e-05
6.1392675e-07
7.3335223e-07
1.2327433e-05
5.138794e-06
2.9148502e-06
4.1821054e-05
1.6188416e-05
6.1536002e-06
7.0020914e-05
2.7398904e-05
9.0766493e-06
6.4254828e-05
3.1281809e-05
8.8694151e-06
-1.7072274e-05
2.4646671e-05
4.0729995e-06
-0.00017798136
1.0475607e-05
-2.9841652e-06
-0.00035312315
-3.9833347e-06
-8.8554975e-06
-0.00046147985
-1.1567394e-05
-0.00047824967
-1.225772e-05
5.8841932e-07
1.271543e-06
1.2168245e-05
4.9463149e-06
5.0508903e-06
4.1242851e-05
1.5103189e-05
1.0638596e-05
6.8984091e-05
2.5442957e-05
1.5653755e-05
6.3009306e-05
2.9089227e-05
1.5152903e-05
-1.7934089e-05
2.2779508e-05
6.4762189e-06
-0.00017807845
9.19633e-06
-6.4777961e-06
-0.0003527815
-4.7287391e-06
-1.733189e-05
-0.00046129725
-2.2439834e-05
-0.00047843607
-1.2578216e-05
5.1386705e-07
1.5581672e-06
1.1885281e-05
4.5239503e-06
6.1624972e-06
4.0254486e-05
1.3329883e-05
1.290916e-05
6.7290677e-05
2.2246599e-05
1.8846537e-05
6.1142854e-05
2.5422202e-05
1.7898201e-05
-1.8895931e-05
1.9485673e-05
6.5336068e-06
-0.00017753828
6.8802731e-06
-1.0541371e-05
-0.00035148857
-6.05707e-06
-2.4870715e-05
-0.00046044343
-3.1668928e-05
-0.00047840442
-1.3157149e-05
4.234172e-07
1.6344475e-06
1.1455684e-05
4.0133075e-06
6.4224913e-06
3.8742075e-05
1.1419034e-05
1.3356799e-05
6.4732519e-05
1.8817521e-05
1.9317166e-05
5.8389932e-05
2.1181197e-05
1.7926142e-05
-2.0088452e-05
1.5468889e-05
5.2259739e-06
-0.0001761153
3.8578078e-06
-1.3848491e-05
-0.00034853893
-7.8068512e-06
-3.0001606e-05
-0.0004579032
-3.768465e-05
-0.00047702047
-1.3914532e-05
3.3649545e-07
1.5726588e-06
1.0912492e-05
3.4389517e-06
6.1317792e-06
3.6885785e-05
9.595153e-06
1.2665919e-05
6.1642779e-05
1.5560635e-05
1.8185178e-05
5.5299821e-05
1.6855149e-05
1.6595527e-05
-2.0805486e-05
1.1014127e-05
3.9022783e-06
-0.00017302877
3.926898e-07
-1.5348344e-05
-0.00034310855
-9.8726652e-06
-3.1702051e-05
-0.00045279555
-3.9475871e-05
-0.00047332172
-1.4861488e-05
2.6013644e-07
1.4380295e-06
1.0263198e-05
2.8844171e-06
5.5624198e-06
3.47355e-05
7.9442887e-06
1.1419251e-05
5.8124292e-05
1.2528793e-05
1.6343933e-05
5.208359e-05
1.2705509e-05
1.4916235e-05
-2.0683844e-05
6.6584221e-06
3.4390567e-06
-0.00016771823
-3.2174674e-06
-1.4284876e-05
-0.00033437965
-1.2109765e-05
-2.9613491e-05
-0.00044404509
-3.687566e-05
-0.00046603462
-1.5958382e-05
1.9798266e-07
1.2794512e-06
9.4975447e-06
2.3858137e-06
4.92029e-06
3.2224137e-05
6.4862289e-06
1.0070626e-05
5.4083659e-05
9.7940805e-06
1.4508792e-05
4.861785e-05
8.8212798e-06
1.3705961e-05
-1.9770417e-05
2.4594556e-06
4.2722148e-06
-0.00015994984
-6.7278588e-06
-1.0817212e-05
-0.00032165161
-1.4321898e-05
-2.4217448e-05
-0.00043043898
-3.0474027e-05
-0.000453605
-1.7080518e-05
1.4899368e-07
1.1297077e-06
8.589765e-06
1.9319743e-06
4.3366991e-06
2.9241129e-05
5.1635346e-06
8.8988197e-06
4.9274067e-05
7.3904596e-06
1.3077606e-05
4.4524738e-05
5.5191504e-06
1.327295e-05
-1.8409143e-05
-1.142392e-06
6.4853323e-06
-0.00014968445
-9.7136346e-06
-5.413285e-06
-0.00030415665
-1.6100638e-05
-1.6418024e-05
-0.00041046659
-2.13716e-05
-0.00043407505
-1.7860635e-05
1.2262745e-07
9.9688675e-07
7.5765685e-06
1.5392772e-06
3.8567411e-06
2.5937384e-05
4.051357e-06
8.0340954e-06
4.389405e-05
5.3978875e-06
1.227409e-05
4.00291e-05
2.8517586e-06
1.3783181e-05
-1.6375578e-05
-3.8924078e-06
9.8755916e-06
-0.00013652186
-1.1799889e-05
1.3124201e-06
-0.00028098366
-1.7006856e-05
-7.2322971e-06
-0.00038256408
-1.0855745e-05
-0.00040546448
-1.7782199e-05
1.0166828e-07
8.950356e-07
6.4794288e-06
1.2080467e-06
3.5274044e-06
2.2338581e-05
3.1271566e-06
7.5471798e-06
3.8114803e-05
3.8589759e-06
1.2142409e-05
3.5420681e-05
1.0017917e-06
1.5188219e-05
-1.318185e-05
-5.4697198e-06
1.4141895e-05
-0.00011953868
-1.2500364e-05
8.7502058e-06
-0.00025051148
-1.6428142e-05
2.4168217e-06
-0.00034449779
-1.2624541e-07
-0.00036542248
-1.6145633e-05
8.315638e-08
8.3296001e-07
5.3359398e-06
9.0178039e-07
3.3657176e-06
1.8580899e-05
2.3714676e-06
7.4481845e-06
3.217156e-05
2.7993322e-06
1.2628825e-05
3.1047594e-05
1.7551036e-07
1.726654e-05
-8.2982796e-06
-5.4633921e-06
1.8931748e-05
-9.7793803e-05
-1.131845e-05
1.6508653e-05
-0.00021111509
-1.3903413e-05
1.2023211e-05
-0.00029410647
9.6434311e-06
-0.00031176893
-1.2206627e-05
7.3055179e-08
4.2941041e-06
8.1323061e-07
7.3620151e-07
1.5258353e-05
3.3435197e-06
2.0420168e-06
2.7307723e-05
7.566424e-06
2.7472402e-06
2.8868617e-05
1.3309449e-05
1.1768712e-06
7.0895981e-07
1.9389958e-05
-2.8637531e-06
-6.8704374e-05
2.3612772e-05
-7.1766242e-06
-0.00016012048
2.4128324e-05
-8.8204712e-06
-0.00022878904
2.1542911e-05
-0.00024219087
1.7732486e-05
-5.8642421e-06
-4.8479937e-08
-2.8821586e-07
4.501705e-06
1.2909527e-07
-4.4269147e-07
-1.340829e-06
1.634711e-05
6.4627241e-07
-1.3252485e-06
-3.5300194e-06
2.9908126e-05
1.8121316e-06
-2.2556981e-06
-7.5155249e-06
3.3203667e-05
4.1108334e-06
-2.4128885e-06
-1.3814115e-05
6.6374574e-06
8.0426625e-06
-1.1039177e-06
-2.2279056e-05
-6.146349e-05
1.3729041e-05
1.8583574e-06
-3.1650542e-05
-0.00015188564
2.0453311e-05
6.0551756e-06
-3.9596957e-05
-0.00022008457
2.6695568e-05
-4.3464987e-05
-0.00023400804
3.095361e-05
1.038363e-05
-5.7191195e-08
-4.4797882e-07
5.55289e-06
-5.3079459e-07
-2.0564323e-06
1.9770082e-05
-1.5507068e-06
-5.3120064e-06
3.4973386e-05
-2.5511033e-06
-1.1007989e-05
3.5540304e-05
-2.6066281e-06
-1.9593098e-05
-2.4639741e-06
-1.0737047e-06
-3.0581109e-05
-9.102483e-05
2.0467237e-06
-4.2190854e-05
-0.00020369535
6.1745872e-06
-5.1470282e-05
-0.00028636112
-5.5323019e-05
-0.00030428594