/*--------------------------------*- C++ -*----------------------------------*\
| =========                 |                                                 |
| \\      /  F ield         | OpenFOAM: The Open Source CFD Toolbox           |
|  \\    /   O peration     | Version:  2406                                  |
|   \\  /    A nd           | Website:  www.openfoam.com                      |
|    \\/     M anipulation  |                                                 |
\*---------------------------------------------------------------------------*/
FoamFile
{
    version     2.0;
    format      ascii;
    arch        "LSB;label=32;scalar=64";
    class       volVectorField;
    location    "11.25";
    object      U;
}
// * * * * * * * * * * * * * * * * * * * * * * * * * * * * * * * * * * * * * //

dimensions      [0 1 -1 0 0 0 0];

internalField   nonuniform List<vector> 
34560
(
(0.0056563959 -0.00016750602 0.0057498851)
(-0.002041176 0.0015151755 0.023075071)
(-0.048343014 0.0059894735 0.052263788)
(-0.15962639 0.012642929 0.095854008)
(-0.34950316 0.0194911 0.14819718)
(-0.59418833 0.023241521 0.19577852)
(-0.8405787 0.025587395 0.22602055)
(-1.0426611 0.032057204 0.23541135)
(-1.1785578 0.043049367 0.22900235)
(0.0080170686 0.00092873676 0.007608812)
(0.00012275918 0.0059180954 0.029589196)
(-0.055863437 0.015283615 0.06524734)
(-0.19043513 0.027443785 0.11602831)
(-0.41148765 0.038074867 0.17264932)
(-0.67955882 0.042934802 0.21878695)
(-0.9306539 0.045394839 0.24302823)
(-1.1213159 0.052724339 0.24525889)
(-1.2420411 0.06537159 0.23234849)
(0.012545189 0.00084557947 0.0083247123)
(0.009173471 0.007003834 0.032678716)
(-0.051384326 0.019440579 0.072447428)
(-0.20463514 0.036329449 0.1284438)
(-0.45227658 0.050893878 0.18824361)
(-0.73802249 0.057581029 0.23328319)
(-0.98923294 0.061313688 0.25363155)
(-1.168523 0.070510918 0.25191085)
(-1.2770833 0.085650954 0.23645495)
(0.01907917 0.00078560657 0.0090449596)
(0.02494435 0.007789781 0.03536076)
(-0.034626738 0.022489799 0.078280917)
(-0.20094858 0.042862128 0.13764483)
(-0.4696038 0.060754689 0.19912756)
(-0.76876251 0.069450945 0.24276423)
(-1.018806 0.075059638 0.26078796)
(-1.1885599 0.086242185 0.25767891)
(-1.2871397 0.10366725 0.24201231)
(0.028004494 4.3281677e-05 0.0093146087)
(0.048832139 0.0064954104 0.036490824)
(-0.0029389825 0.022149969 0.081134742)
(-0.17628839 0.045256131 0.14263889)
(-0.4614003 0.065806088 0.2046867)
(-0.7713031 0.077152941 0.24815976)
(-1.0209334 0.085642978 0.26631357)
(-1.1833489 0.10015996 0.26464385)
(-1.2716077 0.11983744 0.25084189)
(0.039692785 -0.001542822 0.0092179608)
(0.082195461 0.0025102892 0.036348413)
(0.046346354 0.017175918 0.0816434)
(-0.12716919 0.041831822 0.14456305)
(-0.42584289 0.065827646 0.20829827)
(-0.74566642 0.081120254 0.25338692)
(-0.99356743 0.093651386 0.27401971)
(-1.1469464 0.11107881 0.27544438)
(-1.2249156 0.13211994 0.2646158)
(0.054737819 -0.0039518341 0.0089734299)
(0.12714089 -0.0041269179 0.035830499)
(0.11770442 0.0073799179 0.081444177)
(-0.046867602 0.032039183 0.14618385)
(-0.35394555 0.059285169 0.21275399)
(-0.68155498 0.079522351 0.26174939)
(-0.9269852 0.096966576 0.28723758)
(-1.0712816 0.11760284 0.29344837)
(-1.1388819 0.13975612 0.28642873)
(0.073684842 -0.0070953519 0.0087870856)
(0.18592925 -0.013163065 0.035740878)
(0.2152916 -0.0067187826 0.082515003)
(0.071504329 0.016516421 0.15107891)
(-0.23754155 0.04672781 0.22333353)
(-0.569878 0.072424811 0.27927404)
(-0.81097651 0.094957627 0.31186405)
(-0.94492339 0.11829425 0.32381932)
(-1.0014272 0.1408093 0.32040532)
(0.096400072 -0.010224861 0.0090737267)
(0.25830484 -0.022596279 0.037264576)
(0.33871101 -0.022049108 0.087572752)
(0.22927467 -0.00177895 0.16371012)
(-0.073108217 0.029947274 0.24628445)
(-0.40417542 0.060038138 0.31240041)
(-0.63622355 0.086374798 0.35376627)
(-0.75672089 0.1108481 0.37143261)
(-0.8009166 0.13240883 0.37035651)
(0.12103983 -0.011913437 0.010089149)
(0.33827992 -0.028366093 0.041151403)
(0.47692605 -0.032426126 0.099158321)
(0.41325911 -0.016736458 0.18678052)
(0.12860093 0.013155231 0.2848896)
(-0.19126823 0.043814418 0.36362354)
(-0.40653398 0.070343752 0.41435876)
(-0.50928685 0.093135819 0.43651587)
(-0.54034421 0.11129416 0.4360032)
(0.14322562 -0.01010804 0.011681031)
(0.41086533 -0.024788461 0.046904464)
(0.60513953 -0.029987336 0.11541567)
(0.5880383 -0.02006054 0.21641406)
(0.32975939 0.0021646904 0.33204232)
(0.030663033 0.026066721 0.42362446)
(-0.16139357 0.046573966 0.48276146)
(-0.24403228 0.063212147 0.50757061)
(-0.26354275 0.075474051 0.50582614)
(0.15674273 -0.003977313 0.012939857)
(0.45550575 -0.0098239461 0.051628991)
(0.6852495 -0.012109141 0.12732766)
(0.69886174 -0.0086815175 0.23817928)
(0.46144524 -0.00035628762 0.36593189)
(0.18038007 0.0088563368 0.46661301)
(0.0061907335 0.01671132 0.53084924)
(-0.063171786 0.022792953 0.5566399)
(-0.075084357 0.027332473 0.55302887)
(0.15674269 0.0039771057 0.012939871)
(0.45550559 0.0098232961 0.051628991)
(0.68524926 0.012107905 0.12732771)
(0.6988614 0.0086798539 0.23817931)
(0.46144483 0.00035443549 0.36593194)
(0.18037968 -0.0088580219 0.46661303)
(0.0061904123 -0.016712737 0.53084928)
(-0.063172052 -0.022794201 0.55664001)
(-0.075084638 -0.027333756 0.55302906)
(0.14322552 0.010107868 0.011681048)
(0.41086498 0.024787859 0.046904529)
(0.60513892 0.029986188 0.11541577)
(0.58803736 0.020059016 0.21641417)
(0.32975831 -0.0021663996 0.3320425)
(0.030662026 -0.026068311 0.42362459)
(-0.16139435 -0.04657536 0.48276163)
(-0.24403292 -0.063213367 0.50757089)
(-0.26354346 -0.075475296 0.50582662)
(0.12103971 0.011913277 0.01008917)
(0.33827949 0.028365539 0.041151698)
(0.47692526 0.032425064 0.09915858)
(0.41325784 0.016735042 0.18678085)
(0.12859954 -0.013156761 0.28489006)
(-0.19126949 -0.043815804 0.36362389)
(-0.40653496 -0.070345035 0.41435912)
(-0.50928761 -0.093137002 0.4365163)
(-0.54034512 -0.11129534 0.4360038)
(0.096399943 0.010224664 0.0090737617)
(0.25830442 0.022595752 0.037265004)
(0.33871022 0.022048155 0.087573271)
(0.22927344 0.0017776564 0.16371078)
(-0.073109563 -0.029948529 0.24628514)
(-0.40417663 -0.060039198 0.31240097)
(-0.6362245 -0.086375833 0.35376684)
(-0.75672157 -0.11084917 0.37143317)
(-0.80091743 -0.13240996 0.37035716)
(0.073684732 0.0070951431 0.0087871238)
(0.18592889 0.013162589 0.035741214)
(0.21529092 0.0067179939 0.082515564)
(0.071503261 -0.016517436 0.15107963)
(-0.23754273 -0.046728676 0.22333419)
(-0.56987902 -0.072425512 0.27927472)
(-0.81097733 -0.094958348 0.31186482)
(-0.94492388 -0.11829517 0.32382003)
(-1.0014278 -0.14081047 0.32040616)
(0.054737726 0.0039516491 0.0089734671)
(0.12714059 0.0041264447 0.035830675)
(0.11770384 -0.0073806241 0.081444649)
(-0.046868492 -0.032039915 0.14618447)
(-0.35394651 -0.059285802 0.21275467)
(-0.68155576 -0.079522847 0.2617502)
(-0.92698583 -0.096967056 0.28723847)
(-1.0712819 -0.11760357 0.29344925)
(-1.1388823 -0.1397573 0.28642989)
(0.039692709 0.0015427124 0.0092180848)
(0.082195208 -0.0025106856 0.03634861)
(0.046345871 -0.017176541 0.081643705)
(-0.12716994 -0.041832439 0.14456356)
(-0.42584377 -0.065828201 0.20829901)
(-0.74566708 -0.081120605 0.25338761)
(-0.9935679 -0.093651705 0.27402047)
(-1.1469466 -0.11107938 0.27544531)
(-1.2249159 -0.13212105 0.26461701)
(0.028004427 -4.3346621e-05 0.0093146406)
(0.048831919 -0.0064956503 0.036490815)
(-0.0029393972 -0.022150369 0.081134795)
(-0.17628905 -0.045256632 0.14263919)
(-0.46140105 -0.065806443 0.20468699)
(-0.77130364 -0.07715325 0.24816009)
(-1.0209338 -0.085643133 0.26631413)
(-1.1833492 -0.1001605 0.26464473)
(-1.271608 -0.11983844 0.25084277)
(0.019079116 -0.00078563471 0.0090449534)
(0.024944176 -0.0077898427 0.035360775)
(-0.034627057 -0.022489986 0.078280999)
(-0.20094907 -0.042862508 0.13764496)
(-0.46960429 -0.060754961 0.19912775)
(-0.76876295 -0.069451254 0.24276445)
(-1.0188063 -0.075059893 0.26078835)
(-1.1885603 -0.086242879 0.25767969)
(-1.2871402 -0.10366809 0.24201306)
(0.012545145 -0.00084561922 0.0083247349)
(0.0091733335 -0.0070038929 0.032678846)
(-0.051384573 -0.019440694 0.072447675)
(-0.20463552 -0.036329718 0.12844401)
(-0.45227707 -0.050894282 0.18824368)
(-0.73802296 -0.057581398 0.23328309)
(-0.98923342 -0.061314206 0.25363185)
(-1.1685234 -0.070511372 0.2519109)
(-1.2770838 -0.085652125 0.23645539)
(0.0080170315 -0.00092878606 0.0076088341)
(0.00012264765 -0.0059181477 0.029589323)
(-0.055863631 -0.015283672 0.065247508)
(-0.19043542 -0.027443877 0.11602832)
(-0.41148804 -0.038075059 0.17264911)
(-0.67955921 -0.042935208 0.2187868)
(-0.93065435 -0.045395583 0.24302801)
(-1.1213166 -0.052725257 0.24525914)
(-1.2420418 -0.065373156 0.23235)
(0.005656364 0.00016749665 0.0057498822)
(-0.0020412721 -0.0015151823 0.023075057)
(-0.048343182 -0.0059894757 0.052263729)
(-0.15962663 -0.0126429 0.095853861)
(-0.34950346 -0.019490973 0.14819711)
(-0.59418879 -0.023241551 0.19577837)
(-0.8405793 -0.025587733 0.22602036)
(-1.0426617 -0.032058389 0.23541223)
(-1.1785588 -0.043050437 0.22900333)
(0.03761382 0.0006455042 0.00045949404)
(0.10381552 0.0015693922 0.00085000361)
(0.15537376 0.0019357886 -0.00010699292)
(0.16780358 0.000466566 -0.0033935122)
(0.11681076 -0.0043899047 -0.0097336234)
(-0.0045465755 -0.013459688 -0.018232616)
(-0.17149774 -0.025615809 -0.026439402)
(-0.33772944 -0.038436973 -0.032347528)
(-0.46122462 -0.05099022 -0.03515535)
(0.042771292 -0.00019076633 -0.00034916473)
(0.11597005 -0.0012121652 -0.0018185321)
(0.16923818 -0.0032769198 -0.0052856271)
(0.17498469 -0.0076310615 -0.011542981)
(0.1090561 -0.015662694 -0.020662619)
(-0.029965394 -0.027727666 -0.030688455)
(-0.2088489 -0.041981907 -0.038640254)
(-0.37686497 -0.055688881 -0.043033728)
(-0.4972508 -0.067635308 -0.044683583)
(0.048330163 -0.0012159987 -0.0011314673)
(0.12963862 -0.0045891835 -0.00445538)
(0.18633983 -0.0095058237 -0.010472263)
(0.18799833 -0.016946591 -0.019638072)
(0.11083831 -0.027829902 -0.031107291)
(-0.041185599 -0.041864375 -0.041836122)
(-0.22753464 -0.056815922 -0.048779346)
(-0.39527484 -0.070317271 -0.051589455)
(-0.5127112 -0.081681693 -0.051780364)
(0.053528363 -0.002606207 -0.0019630325)
(0.14248186 -0.0090169787 -0.0072313878)
(0.20266552 -0.017401842 -0.015914726)
(0.20119091 -0.028220684 -0.028034247)
(0.11490439 -0.041674743 -0.041665248)
(-0.047250005 -0.056870972 -0.052679341)
(-0.238549 -0.071617974 -0.058292036)
(-0.40502884 -0.084392708 -0.059430137)
(-0.51982421 -0.095232404 -0.058279055)
(0.058274366 -0.0042469706 -0.0027197277)
(0.15426761 -0.014172927 -0.009782619)
(0.21780077 -0.026450935 -0.020983296)
(0.21372331 -0.040762845 -0.03587044)
(0.11949244 -0.056410619 -0.051437494)
(-0.051374329 -0.072070118 -0.062537404)
(-0.24668533 -0.086022822 -0.066829941)
(-0.41185138 -0.097762941 -0.066477588)
(-0.52421497 -0.1078416 -0.064169147)
(0.062606921 -0.0060936645 -0.0032960392)
(0.16507383 -0.019863142 -0.011767538)
(0.23179015 -0.036195509 -0.025130097)
(0.22546783 -0.053781426 -0.042466389)
(0.12395006 -0.071039272 -0.059665613)
(-0.055134905 -0.08645477 -0.07070928)
(-0.25457439 -0.099132051 -0.073834134)
(-0.41901745 -0.1095531 -0.072328201)
(-0.52924904 -0.11859397 -0.069179154)
(0.066522041 -0.007995254 -0.0036449979)
(0.17491598 -0.025547785 -0.012999299)
(0.24462461 -0.045577826 -0.0278958)
(0.23662872 -0.065858116 -0.047200325)
(0.12832757 -0.083960372 -0.065587178)
(-0.058971212 -0.098480576 -0.076511805)
(-0.26319051 -0.10954464 -0.078764628)
(-0.42785981 -0.11844888 -0.076542218)
(-0.53642883 -0.1261699 -0.072917644)
(0.070292318 -0.009593906 -0.0036472514)
(0.1847067 -0.030143457 -0.013134689)
(0.25794024 -0.05279618 -0.028735738)
(0.24885638 -0.074601451 -0.049225534)
(0.13406572 -0.092416922 -0.068215937)
(-0.061894335 -0.10548616 -0.079077932)
(-0.27190473 -0.11485397 -0.080930984)
(-0.43791621 -0.12219022 -0.078533892)
(-0.54528921 -0.12842568 -0.074854949)
(0.074087986 -0.010408996 -0.00324951)
(0.1950024 -0.032208764 -0.011979578)
(0.27267794 -0.055508279 -0.027219099)
(0.26295538 -0.076916967 -0.047936628)
(0.14213219 -0.093252187 -0.067330697)
(-0.062501392 -0.10443462 -0.078018546)
(-0.27903387 -0.11205339 -0.079860451)
(-0.44732734 -0.11786598 -0.077825791)
(-0.55421219 -0.12250539 -0.074502953)
(0.07792474 -0.0097661723 -0.0024663481)
(0.205914 -0.02983776 -0.0095699885)
(0.28921402 -0.050686749 -0.023336087)
(0.27975133 -0.068964206 -0.043159078)
(0.15304762 -0.082380713 -0.062901192)
(-0.060200714 -0.091321347 -0.073264942)
(-0.28332367 -0.097227242 -0.075496927)
(-0.4542515 -0.10145563 -0.074296308)
(-0.56100569 -0.10447762 -0.071676173)
(0.081384032 -0.0071833969 -0.0015516124)
(0.21607515 -0.021709792 -0.0067304579)
(0.30534605 -0.036425966 -0.018560938)
(0.2972005 -0.048865581 -0.036908797)
(0.16499106 -0.057803922 -0.056625738)
(-0.055429715 -0.063629075 -0.066552818)
(-0.28399275 -0.067453907 -0.069333622)
(-0.45715171 -0.070029151 -0.069149852)
(-0.5639312 -0.071644473 -0.067351593)
(0.083591483 -0.0026718754 -0.00094070791)
(0.2227821 -0.0080228799 -0.0047979082)
(0.31644119 -0.013361923 -0.015166726)
(0.30980756 -0.017783063 -0.032216737)
(0.17423386 -0.020918197 -0.051457594)
(-0.05074068 -0.02295376 -0.061535319)
(-0.28261857 -0.024292747 -0.06466429)
(-0.45718469 -0.025149611 -0.065180363)
(-0.56404658 -0.025636168 -0.063947045)
(0.083591479 0.0026719144 -0.00094070689)
(0.22278208 0.0080230208 -0.0047979175)
(0.31644117 0.013362147 -0.015166718)
(0.30980754 0.017783421 -0.032216744)
(0.17423385 0.02091871 -0.051457607)
(-0.050740694 0.022954391 -0.061535337)
(-0.28261858 0.024293425 -0.064664295)
(-0.45718471 0.025150261 -0.065180348)
(-0.56404662 0.025636718 -0.063946989)
(0.081384023 0.0071834392 -0.0015516151)
(0.21607512 0.021709927 -0.0067304613)
(0.30534601 0.03642619 -0.018560939)
(0.29720046 0.048865965 -0.036908812)
(0.16499103 0.057804445 -0.056625721)
(-0.055429745 0.063629682 -0.066552825)
(-0.28399278 0.067454518 -0.069333619)
(-0.45715176 0.07002974 -0.069149819)
(-0.56393134 0.071645006 -0.067351482)
(0.077924726 0.0097662142 -0.0024663568)
(0.20591396 0.029837897 -0.009569915)
(0.28921397 0.050686961 -0.023336061)
(0.27975125 0.068964554 -0.043159018)
(0.15304758 0.082381196 -0.062901053)
(-0.060200738 0.091321919 -0.073264876)
(-0.2833237 0.097227789 -0.075496899)
(-0.45425156 0.10145614 -0.074296291)
(-0.56100589 0.1044781 -0.071676109)
(0.074087964 0.010409001 -0.0032495157)
(0.19500235 0.032208866 -0.011979408)
(0.27267788 0.055508446 -0.027218957)
(0.2629553 0.076917229 -0.047936421)
(0.14213215 0.093252641 -0.067330477)
(-0.062501417 0.10443522 -0.078018449)
(-0.2790339 0.11205397 -0.079860416)
(-0.4473274 0.11786645 -0.07782581)
(-0.55421237 0.12250575 -0.074502936)
(0.070292296 0.009593877 -0.0036472608)
(0.18470665 0.030143522 -0.01313455)
(0.25794019 0.052796323 -0.028735588)
(0.24885631 0.074601705 -0.049225341)
(0.13406565 0.092417422 -0.068215807)
(-0.061894379 0.10548683 -0.079077863)
(-0.27190476 0.11485463 -0.080930949)
(-0.43791624 0.12219068 -0.078533919)
(-0.54528929 0.12842589 -0.074854871)
(0.066522018 0.0079952091 -0.0036449986)
(0.17491591 0.025547789 -0.012999221)
(0.24462454 0.04557792 -0.027895679)
(0.23662861 0.065858396 -0.047200207)
(0.12832746 0.083960887 -0.065587116)
(-0.058971275 0.098481274 -0.07651175)
(-0.26319053 0.10954537 -0.078764602)
(-0.4278598 0.11844937 -0.076542223)
(-0.53642884 0.12617001 -0.072917482)
(0.0626069 0.0060936334 -0.0032960134)
(0.16507377 0.019863121 -0.011767497)
(0.23179007 0.036195555 -0.025130112)
(0.2254677 0.053781662 -0.042466399)
(0.12394995 0.071039754 -0.059665618)
(-0.055134992 0.086455468 -0.07070934)
(-0.25457442 0.099132801 -0.073834195)
(-0.41901743 0.1095536 -0.072328217)
(-0.52924905 0.11859404 -0.06917908)
(0.05827434 0.0042469525 -0.002719716)
(0.15426754 0.014172926 -0.009782643)
(0.21780066 0.026450993 -0.020983379)
(0.21372318 0.040763039 -0.035870506)
(0.11949229 0.056411091 -0.051437663)
(-0.051374473 0.07207076 -0.062537615)
(-0.24668543 0.086023563 -0.066830106)
(-0.41185143 0.097763357 -0.066477655)
(-0.52421501 0.1078416 -0.064169306)
(0.05352833 0.0026062002 -0.0019630445)
(0.14248177 0.0090170377 -0.007231419)
(0.20266538 0.01740196 -0.015914801)
(0.20119072 0.028220868 -0.028034411)
(0.11490415 0.041675162 -0.041665509)
(-0.047250229 0.056871542 -0.05267965)
(-0.23854918 0.071618559 -0.058292295)
(-0.40502898 0.084393008 -0.059430336)
(-0.51982432 0.095232402 -0.058279442)
(0.048330122 0.0012159926 -0.0011314686)
(0.1296385 0.0045892621 -0.0044553469)
(0.18633964 0.0095059827 -0.010472231)
(0.18799809 0.016946826 -0.019638149)
(0.11083804 0.027830234 -0.031107559)
(-0.0411859 0.041864857 -0.041836548)
(-0.22753492 0.056816323 -0.048779756)
(-0.39527503 0.070317567 -0.051590166)
(-0.51271133 0.081681484 -0.051781091)
(0.042771251 0.00019076321 -0.00034916588)
(0.11596994 0.0012122479 -0.0018185077)
(0.16923798 0.0032771043 -0.0052856273)
(0.17498444 0.0076313638 -0.011543154)
(0.1090558 0.015663065 -0.020663066)
(-0.029965739 0.027727986 -0.03068904)
(-0.20884922 0.041982099 -0.03864114)
(-0.37686528 0.05568871 -0.043034593)
(-0.49725095 0.06763456 -0.044683808)
(0.037613783 -0.00064548145 0.0004594672)
(0.10381541 -0.0015692914 0.00084991545)
(0.15537357 -0.001935591 -0.00010716409)
(0.16780332 -0.00046625592 -0.0033938231)
(0.11681045 0.0043903708 -0.0097340272)
(-0.0045468677 0.013460085 -0.018233425)
(-0.171498 0.025616029 -0.026440499)
(-0.33772964 0.038436643 -0.032348353)
(-0.46122478 0.050989743 -0.035155719)
(0.019412369 -0.00053821679 -0.00049286891)
(0.048178216 -0.0015648171 -0.0014502569)
(0.058516406 -0.0025559286 -0.0024200472)
(0.031097438 -0.0034094873 -0.003160096)
(-0.052371944 -0.0041153912 -0.003289982)
(-0.19562982 -0.0046848902 -0.0025115347)
(-0.375319 -0.0050602129 -0.00099759097)
(-0.54931347 -0.0051272492 0.00044109285)
(-0.67785329 -0.0050836267 0.00098493571)
(0.021952101 -0.00055206948 -0.00044628994)
(0.053059078 -0.0015462686 -0.0012977011)
(0.061111178 -0.0024042719 -0.0021366764)
(0.024620211 -0.0029976635 -0.0026826924)
(-0.074227735 -0.003315034 -0.0025037684)
(-0.23422643 -0.0034027831 -0.0013373892)
(-0.42436294 -0.0032997019 0.00047508949)
(-0.59839554 -0.0030397281 0.0020054808)
(-0.72231565 -0.0028417532 0.0023198089)
(0.024902135 -0.00059396059 -0.00041760122)
(0.059582956 -0.0016169587 -0.001215002)
(0.06737951 -0.0024078485 -0.0020103303)
(0.024947254 -0.0027845293 -0.0024909213)
(-0.084887329 -0.0027127368 -0.0021611038)
(-0.25625004 -0.0022991236 -0.0007646255)
(-0.45175905 -0.0017279266 0.0012566577)
(-0.62341556 -0.0011688536 0.0029368228)
(-0.74256164 -0.00078229024 0.0033917826)
(0.027667708 -0.00065976312 -0.0004025685)
(0.065872751 -0.0017687213 -0.0011842838)
(0.073977794 -0.0025619429 -0.0019979933)
(0.027188247 -0.0027744681 -0.0025021574)
(-0.090814083 -0.0023218154 -0.0021271932)
(-0.26986671 -0.0013748844 -0.00060266504)
(-0.46745265 -0.00030282513 0.0015706671)
(-0.6351563 0.00058616097 0.0034415224)
(-0.7493685 0.0011853511 0.0041193025)
(0.030214019 -0.00074309539 -0.00039342891)
(0.07180498 -0.0019870383 -0.0011837597)
(0.08060092 -0.0028488882 -0.0020632489)
(0.030618621 -0.0029595897 -0.0026625364)
(-0.09357868 -0.0021525172 -0.0023357605)
(-0.27792491 -0.00066152654 -0.0007786985)
(-0.47564047 0.00092798788 0.0014957975)
(-0.63849822 0.0021542037 0.0035565547)
(-0.74753398 0.0029548146 0.0044985294)
(0.032510579 -0.00083868294 -0.00037707518)
(0.077254378 -0.0022574637 -0.0011704936)
(0.086955382 -0.003246483 -0.0021363975)
(0.034645758 -0.0033158206 -0.002894597)
(-0.094272957 -0.0022005543 -0.0027167632)
(-0.28227 -0.00020536111 -0.0012336053)
(-0.47898385 0.001865401 0.0010754302)
(-0.63665664 0.0033967714 0.0033124206)
(-0.74038264 0.0043585747 0.0045417395)
(0.034519292 -0.00093334627 -0.00035288997)
(0.08212155 -0.002537206 -0.0011384882)
(0.092872144 -0.0036802298 -0.0021941865)
(0.03900482 -0.003760026 -0.0031524276)
(-0.093368865 -0.0024224218 -0.0032064632)
(-0.28380617 -3.4673223e-05 -0.001900668)
(-0.47896699 0.0024183291 0.00037841996)
(-0.63160592 0.0041803352 0.0027747659)
(-0.73022341 0.0052325221 0.004298405)
(0.036361787 -0.0010020573 -0.00031239827)
(0.086745896 -0.0027535826 -0.0010617453)
(0.098865064 -0.0040374536 -0.0021971649)
(0.044217622 -0.0041686332 -0.003384444)
(-0.090583036 -0.002723414 -0.0037382846)
(-0.28269972 -0.00011216793 -0.0026864229)
(-0.47629195 0.0025292671 -0.00049235224)
(-0.62451941 0.0043897149 0.0020394177)
(-0.71860059 0.0054564169 0.0038441715)
(0.038062484 -0.0010087134 -0.00025153941)
(0.091175535 -0.0027988281 -0.00092491419)
(0.10496125 -0.0041468939 -0.00211663)
(0.050211974 -0.0043393562 -0.0035467562)
(-0.086168423 -0.0029249915 -0.0042390365)
(-0.27941722 -0.00035236905 -0.0034851782)
(-0.47168822 0.0022248476 -0.0014167944)
(-0.61638629 0.0040152596 0.0012159441)
(-0.70675122 0.0049986404 0.0032692288)
(0.039550671 -0.00090751577 -0.00017206091)
(0.095160552 -0.0025374285 -0.00072777952)
(0.11068143 -0.003792509 -0.0019464991)
(0.056274131 -0.0040171469 -0.0036262855)
(-0.081035307 -0.0027986247 -0.0046698931)
(-0.27501343 -0.00056847757 -0.0042088191)
(-0.46626081 0.0016420972 -0.0022662497)
(-0.60833745 0.0031502454 0.00043569245)
(-0.69591585 0.0039474021 0.00268934)
(0.040633961 -0.00065316378 -9.0493435e-05)
(0.098083802 -0.0018332173 -0.00051740413)
(0.11495072 -0.0027533421 -0.0017440449)
(0.060964059 -0.0029376913 -0.0036492048)
(-0.07678548 -0.0020935036 -0.0049982925)
(-0.27105818 -0.00054731376 -0.0047663677)
(-0.46151006 0.00095115489 -0.0029227066)
(-0.60175031 0.0019810865 -0.00017070633)
(-0.68746536 0.0025004426 0.0022242133)
(0.041284969 -0.00024207083 -3.8380819e-05)
(0.099889698 -0.00068002651 -0.00038146983)
(0.11766588 -0.0010209931 -0.0016103807)
(0.064050517 -0.0010881327 -0.0036559534)
(-0.073887155 -0.00077928654 -0.0051860283)
(-0.26839186 -0.0002208862 -0.0050681637)
(-0.45852892 0.00031769444 -0.0032770344)
(-0.59791487 0.00067837961 -0.0005000241)
(-0.68275098 0.00085569451 0.0019689618)
(0.041284965 0.00024204036 -3.837956e-05)
(0.099889687 0.00067996814 -0.00038146266)
(0.11766586 0.001020915 -0.0016103683)
(0.064050497 0.0010880783 -0.0036559386)
(-0.073887179 0.00077929269 -0.0051860121)
(-0.26839189 0.00022095939 -0.0050681488)
(-0.45852895 -0.00031758589 -0.0032770111)
(-0.59791489 -0.00067829427 -0.00049998632)
(-0.682751 -0.00085567164 0.0019690254)
(0.04063395 0.00065313333 -9.049237e-05)
(0.098083772 0.0018331601 -0.00051738186)
(0.11495067 0.0027532696 -0.0017440197)
(0.060963995 0.0029376542 -0.0036491675)
(-0.076785553 0.0020935359 -0.004998241)
(-0.27105826 0.00054741618 -0.0047663193)
(-0.46151013 -0.00095102674 -0.0029226372)
(-0.60175037 -0.0019809912 -0.00017060214)
(-0.68746541 -0.0025004098 0.0022243821)
(0.039550654 0.00090748322 -0.00017206046)
(0.095160505 0.0025373769 -0.00072772346)
(0.11068136 0.0037924452 -0.0019464523)
(0.056274031 0.0040171254 -0.0036262095)
(-0.081035411 0.0027986942 -0.0046697935)
(-0.27501353 0.00056863644 -0.0042087309)
(-0.46626089 -0.0016419229 -0.0022661384)
(-0.60833752 -0.0031501241 0.00043583834)
(-0.69591592 -0.0039473615 0.0026895641)
(0.038062461 0.0010086703 -0.00025153496)
(0.091175473 0.0027987742 -0.00092482503)
(0.10496115 0.0041468332 -0.0021165412)
(0.050211849 0.0043393445 -0.0035466317)
(-0.086168548 0.0029251107 -0.004238915)
(-0.27941733 0.00035261353 -0.0034850759)
(-0.47168831 -0.0022245888 -0.0014166637)
(-0.61638637 -0.004015095 0.0012160986)
(-0.70675128 -0.0049986095 0.003269469)
(0.036361763 0.0010020087 -0.00031239071)
(0.086745829 0.002753532 -0.0010616572)
(0.098864958 0.0040374066 -0.0021970675)
(0.044217482 0.0041686572 -0.0033843223)
(-0.090583184 0.0027236076 -0.0037381972)
(-0.28269986 0.00011251244 -0.0026863404)
(-0.47629207 -0.0025289093 -0.00049222966)
(-0.62451948 -0.0043895118 0.0020395529)
(-0.71860063 -0.0054564314 0.0038444144)
(0.034519267 0.0009332962 -0.00035287799)
(0.082121474 0.002537153 -0.0011384068)
(0.092872023 0.0036801928 -0.0021940921)
(0.039004656 0.0037600985 -0.0031523316)
(-0.093369053 0.0024226824 -0.0032064128)
(-0.28380635 3.5101634e-05 -0.0019006163)
(-0.47896714 -0.0024178892 0.00037850833)
(-0.63160599 -0.004180117 0.0027748539)
(-0.73022343 -0.0052326241 0.0042986244)
(0.032510555 0.00083863994 -0.00037705525)
(0.077254302 0.0022574199 -0.0011704227)
(0.08695525 0.00324646 -0.0021363464)
(0.034645565 0.0033159289 -0.0028945475)
(-0.094273194 0.0022008708 -0.0027167556)
(-0.28227025 0.00020585758 -0.0012336271)
(-0.47898404 -0.0018649016 0.0010754388)
(-0.63665674 -0.0033965666 0.0033124259)
(-0.74038267 -0.0043588031 0.004541866)
(0.030213993 0.00074305979 -0.00039340991)
(0.071804897 0.0019870151 -0.0011837062)
(0.080600771 0.0028488958 -0.0020632193)
(0.030618398 0.0029597264 -0.0026625141)
(-0.093578964 0.0021528866 -0.002335823)
(-0.27792523 0.00066205956 -0.00077881645)
(-0.47564074 -0.00092745404 0.001495698)
(-0.63849838 -0.0021540459 0.0035564519)
(-0.74753405 -0.0029551715 0.004498494)
(0.027667681 0.00065973664 -0.00040255707)
(0.065872662 0.0017687314 -0.0011842467)
(0.073977633 0.0025620029 -0.0019979758)
(0.027188003 0.0027746478 -0.0025021844)
(-0.090814408 0.002322213 -0.0021273255)
(-0.26986707 0.0013754159 -0.00060289008)
(-0.46745297 0.00030330168 0.0015704376)
(-0.63515652 -0.00058605497 0.003441256)
(-0.74936863 -0.0011857324 0.0041190488)
(0.024902106 0.00059394395 -0.00041759104)
(0.059582861 0.0016170046 -0.0012149635)
(0.067379341 0.0024079744 -0.0020103109)
(0.024947003 0.0027847926 -0.002490968)
(-0.08488767 0.0027131702 -0.0021612959)
(-0.25625043 0.0022996472 -0.00076496699)
(-0.45175941 0.0017282846 0.0012562515)
(-0.62341582 0.0011689197 0.0029361933)
(-0.7425618 0.00078194794 0.0033912236)
(0.021952076 0.00055207438 -0.00044629354)
(0.053058999 0.0015463636 -0.0012977145)
(0.061111038 0.0024044845 -0.0021367411)
(0.02462 0.0029980468 -0.0026828654)
(-0.074228027 0.0033155834 -0.0025041216)
(-0.23422677 0.0034033464 -0.001337898)
(-0.42436329 0.003299988 0.00047435406)
(-0.59839587 0.003039501 0.0020045639)
(-0.72231585 0.0028412948 0.0023192291)
(0.019412353 0.00053824818 -0.00049289818)
(0.048178164 0.0015649455 -0.0014503607)
(0.058516315 0.0025561753 -0.0024202487)
(0.031097305 0.003409877 -0.0031604403)
(-0.052372111 0.0041159471 -0.0032904872)
(-0.19563 0.00468548 -0.0025122712)
(-0.37531921 0.005060593 -0.00099853999)
(-0.54931369 0.0051270212 0.00043981836)
(-0.67785348 0.0050832003 0.00098449876)
(0.028239386 -0.00013585314 -0.00011964906)
(0.075135348 -0.00048157946 -0.00038700739)
(0.10538104 -0.0010228613 -0.00068308425)
(0.09706086 -0.0018091597 -0.0010022212)
(0.028620841 -0.0028274732 -0.0013733202)
(-0.10579296 -0.0040218534 -0.0018148969)
(-0.28243443 -0.0053410136 -0.0022811165)
(-0.45710243 -0.0067543069 -0.0026444186)
(-0.58774434 -0.0081841971 -0.0028002186)
(0.031837132 -0.00024488077 -0.00019324833)
(0.082877449 -0.00082402003 -0.00060649339)
(0.11223079 -0.0016438012 -0.0010439955)
(0.095347297 -0.0027263598 -0.0014847704)
(0.010963101 -0.0040159321 -0.0019567416)
(-0.14145389 -0.0054246335 -0.002482159)
(-0.32990947 -0.0068957975 -0.0030142456)
(-0.5058262 -0.0083791443 -0.0034284715)
(-0.63298856 -0.0097252967 -0.0036364183)
(0.035707632 -0.0003356777 -0.00023143661)
(0.091833347 -0.0011147489 -0.0007225878)
(0.12199136 -0.0021741385 -0.0012320185)
(0.099357406 -0.0035027974 -0.0017312052)
(0.0031956704 -0.0049947069 -0.0022546942)
(-0.16190489 -0.006526194 -0.0028361265)
(-0.35701097 -0.0080353224 -0.0034341634)
(-0.53158827 -0.009474017 -0.0039329066)
(-0.65491764 -0.010704626 -0.0042195357)
(0.039188544 -0.00042743543 -0.00025723332)
(0.099916936 -0.0014014947 -0.00079697343)
(0.13096831 -0.0026790047 -0.0013450866)
(0.10375325 -0.0042072417 -0.0018715789)
(-0.0016034619 -0.0058326302 -0.0024204088)
(-0.17573683 -0.0074080061 -0.0030424003)
(-0.37409158 -0.008882172 -0.0037076122)
(-0.54561319 -0.010229941 -0.0042981978)
(-0.66481003 -0.011345911 -0.0046671894)
(0.042199567 -0.00050582816 -0.00026466591)
(0.10689334 -0.0016468382 -0.00081477906)
(0.13870825 -0.0031037365 -0.0013632774)
(0.10766385 -0.0047795032 -0.0018897294)
(-0.0050993012 -0.0064778858 -0.0024518011)
(-0.18585688 -0.0080393199 -0.003116092)
(-0.38541745 -0.0094336903 -0.0038536381)
(-0.55290675 -0.010655263 -0.0045263702)
(-0.66759157 -0.011621338 -0.0049560672)
(0.044714108 -0.00056886765 -0.00025264006)
(0.11264343 -0.0018392258 -0.00077470768)
(0.14492965 -0.0034211222 -0.0012884216)
(0.11052777 -0.0051783589 -0.0017866661)
(-0.0083344243 -0.0068808913 -0.0023483371)
(-0.19404972 -0.0083703455 -0.0030520439)
(-0.39361636 -0.0096321919 -0.0038509665)
(-0.55663424 -0.010688276 -0.0045884372)
(-0.66653146 -0.011485745 -0.0050763661)
(0.04667776 -0.00060872057 -0.00022644175)
(0.11703139 -0.0019534738 -0.00068969561)
(0.14944543 -0.0035890295 -0.0011365542)
(0.11210008 -0.0053466955 -0.0015778035)
(-0.011727704 -0.0069729285 -0.0021176155)
(-0.20111918 -0.0083194523 -0.0028432563)
(-0.40001169 -0.0094062237 -0.003696095)
(-0.55858884 -0.010273134 -0.0044988498)
(-0.66373428 -0.010913086 -0.0050563504)
(0.048226407 -0.00061027696 -0.00018537662)
(0.1204639 -0.0019461148 -0.00055892186)
(0.15291104 -0.0035369369 -0.00090810585)
(0.11315424 -0.0051930736 -0.0012670258)
(-0.014624381 -0.0066610047 -0.0017716335)
(-0.20681858 -0.0078166152 -0.002517808)
(-0.40491779 -0.0087037994 -0.0034266021)
(-0.55956136 -0.0093939918 -0.0043080486)
(-0.66038795 -0.00987616 -0.0049375332)
(0.049438832 -0.00056173017 -0.00013421892)
(0.12317137 -0.0017833268 -0.00039916124)
(0.15569169 -0.0032152217 -0.00063431482)
(0.11411233 -0.0046693139 -0.00089891073)
(-0.016706349 -0.0059083936 -0.0013634344)
(-0.21108076 -0.0068309314 -0.0021302759)
(-0.40850545 -0.0075098227 -0.003101269)
(-0.55997321 -0.0080179602 -0.0040626757)
(-0.65716529 -0.0083623716 -0.0047628846)
(0.050329528 -0.00045675007 -8.0812121e-05)
(0.12517229 -0.0014459221 -0.00023424328)
(0.15776987 -0.0025925617 -0.00035615035)
(0.11487935 -0.0037353693 -0.00053121581)