/*--------------------------------*- C++ -*----------------------------------*\
| =========                 |                                                 |
| \\      /  F ield         | OpenFOAM: The Open Source CFD Toolbox           |
|  \\    /   O peration     | Version:  2406                                  |
|   \\  /    A nd           | Website:  www.openfoam.com                      |
|    \\/     M anipulation  |                                                 |
\*---------------------------------------------------------------------------*/
FoamFile
{
    version     2.0;
    format      ascii;
    arch        "LSB;label=32;scalar=64";
    class       volScalarField;
    location    "7";
    object      p;
}
// * * * * * * * * * * * * * * * * * * * * * * * * * * * * * * * * * * * * * //

dimensions      [0 2 -2 0 0 0 0];

internalField   nonuniform List<scalar> 
1176
(
0.79699882
0.79702169
0.79704535
0.79705301
0.79702148
0.79692678
0.79676955
0.79658339
0.79640419
0.79623702
0.79608239
0.79598676
0.79598675
0.79608234
0.79623695
0.79640409
0.79658328
0.79676943
0.79692664
0.79702131
0.7970528
0.7970451
0.79702141
0.79699852
0.7738504
0.77380343
0.77375567
0.77373877
0.77380127
0.77400362
0.77436894
0.77483334
0.7752642
0.77555029
0.77566967
0.77570391
0.7757039
0.77566962
0.77555022
0.77526412
0.77483327
0.77436888
0.77400358
0.77380124
0.77373876
0.77375567
0.77380344
0.77385041
0.75676562
0.75678763
0.75680742
0.7568055
0.75674643
0.75658525
0.75631349
0.75598554
0.75567932
0.75546652
0.7553557
0.75530687
0.75530685
0.75535566
0.75546645
0.75567923
0.75598544
0.75631338
0.75658515
0.75674631
0.75680537
0.75680727
0.75678747
0.75676545
0.7400937
0.74010282
0.74011487
0.74013127
0.74015381
0.74017138
0.74013914
0.74000572
0.73977361
0.73950104
0.73927682
0.73915631
0.7391563
0.73927679
0.73950098
0.73977354
0.74000565
0.74013907
0.7401713
0.74015374
0.74013121
0.74011482
0.74010278
0.74009366
0.72367461
0.72367857
0.72368355
0.72368961
0.72369931
0.72371958
0.72375576
0.72379727
0.72381893
0.72379506
0.72373293
0.72368029
0.72368028
0.72373291
0.72379501
0.72381888
0.7237972
0.72375569
0.7237195
0.72369921
0.7236895
0.72368343
0.72367843
0.72367448
0.70721289
0.70721531
0.70721856
0.7072226
0.70722752
0.70723435
0.70724851
0.70727982
0.70732981
0.70738706
0.70742976
0.70744641
0.7074464
0.70742974
0.70738702
0.70732977
0.70727978
0.70724847
0.7072343
0.70722747
0.70722257
0.70721854
0.70721531
0.7072129
0.69080701
0.69080916
0.69081198
0.69081542
0.69081932
0.69082284
0.69082491
0.69082708
0.69083563
0.69085286
0.69087075
0.69088247
0.69088246
0.69087074
0.69085283
0.6908356
0.69082704
0.69082486
0.69082279
0.69081927
0.69081537
0.69081194
0.69080912
0.69080699
0.67442712
0.67442888
0.67443122
0.67443415
0.67443782
0.6744422
0.67444665
0.67444981
0.67445105
0.67445266
0.67444971
0.6744472
0.6744472
0.6744497
0.67445265
0.67445103
0.67444979
0.67444664
0.67444219
0.67443782
0.67443415
0.67443124
0.67442892
0.67442717
0.65807285
0.6580743
0.65807623
0.65807863
0.65808165
0.65808544
0.65809048
0.65809753
0.65810622
0.65811625
0.65812402
0.6581276
0.65812761
0.65812402
0.65811625
0.65810622
0.65809753
0.65809048
0.65808543
0.65808164
0.65807862
0.6580762
0.65807427
0.65807282
0.64173518
0.64173637
0.64173797
0.64173999
0.64174255
0.64174572
0.64174989
0.64175628
0.64176644
0.64177957
0.6417939
0.64180321
0.64180321
0.64179391
0.64177958
0.64176645
0.64175629
0.6417499
0.64174574
0.64174256
0.64173999
0.64173795
0.64173633
0.64173512
0.62541081
0.62541183
0.62541319
0.62541492
0.62541712
0.62541984
0.62542323
0.62542808
0.62543594
0.6254466
0.62545917
0.62546831
0.62546831
0.62545918
0.62544662
0.62543596
0.6254281
0.62542326
0.62541986
0.62541714
0.62541493
0.62541318
0.6254118
0.62541077
0.60909732
0.60909821
0.6090994
0.60910091
0.60910284
0.60910523
0.60910819
0.6091122
0.60911842
0.60912708
0.60913765
0.60914511
0.60914511
0.60913767
0.60912711
0.60911845
0.60911223
0.60910822
0.60910526
0.60910286
0.6091009
0.60909937
0.60909816
0.60909726
0.59279311
0.5927939
0.59279495
0.59279629
0.59279801
0.59280013
0.59280277
0.5928063
0.59281171
0.59281945
0.59282915
0.59283583
0.59283584
0.59282917
0.59281949
0.59281175
0.59280635
0.59280281
0.59280018
0.59279805
0.59279632
0.59279496
0.59279389
0.59279309
0.57649688
0.57649758
0.57649852
0.57649973
0.57650126
0.57650317
0.57650551
0.57650865
0.57651342
0.57652039
0.57652906
0.57653516
0.57653517
0.57652909
0.57652043
0.57651346
0.57650869
0.57650556
0.57650322
0.57650132
0.57649979
0.57649859
0.57649766
0.57649696
0.5602076
0.56020823
0.56020909
0.56021017
0.56021156
0.56021328
0.56021538
0.56021814
0.5602223
0.56022843
0.56023596
0.56024137
0.56024138
0.56023599
0.56022847
0.56022234
0.56021818
0.56021542
0.56021331
0.56021159
0.5602102
0.5602091
0.56020825
0.56020762
0.54392447
0.54392505
0.54392582
0.54392681
0.54392808
0.54392963
0.54393153
0.54393398
0.54393762
0.543943
0.54394954
0.54395434
0.54395435
0.54394957
0.54394304
0.54393767
0.54393404
0.54393158
0.54392969
0.54392814
0.54392689
0.54392591
0.54392514
0.54392457
0.52764685
0.52764737
0.52764808
0.52764899
0.52765014
0.52765156
0.52765328
0.52765549
0.52765871
0.52766347
0.5276692
0.5276735
0.52767351
0.52766923
0.52766351
0.52765876
0.52765554
0.52765334
0.52765162
0.52765021
0.52764907
0.5276482
0.52764751
0.527647
0.51137419
0.51137467
0.51137532
0.51137614
0.5113772
0.5113785
0.51138007
0.51138206
0.51138494
0.51138919
0.51139425
0.51139813
0.51139814
0.51139428
0.51138924
0.51138499
0.51138212
0.51138012
0.51137855
0.51137724
0.51137619
0.51137537
0.51137474
0.51137426
0.49510602
0.49510646
0.49510705
0.49510781
0.49510877
0.49510997
0.49511141
0.49511322
0.4951158
0.49511961
0.49512412
0.49512762
0.49512763
0.49512415
0.49511966
0.49511586
0.49511329
0.49511148
0.49511005
0.49510885
0.49510789
0.49510715
0.49510657
0.49510614
0.47884194
0.47884234
0.47884289
0.47884358
0.47884447
0.47884557
0.4788469
0.47884855
0.47885088
0.47885431
0.47885836
0.47886153
0.47886154
0.47885839
0.47885436
0.47885094
0.47884862
0.47884697
0.47884565
0.47884456
0.47884368
0.478843
0.47884247
0.47884207
0.46258161
0.46258198
0.46258248
0.46258312
0.46258394
0.46258496
0.46258619
0.4625877
0.46258981
0.46259292
0.46259658
0.46259946
0.46259947
0.46259661
0.46259297
0.46258987
0.46258777
0.46258626
0.46258504
0.46258401
0.46258319
0.46258255
0.46258206
0.4625817
0.44632474
0.44632508
0.44632553
0.44632612
0.44632688
0.44632782
0.44632896
0.44633035
0.44633227
0.4463351
0.44633843
0.44634106
0.44634107
0.44633847
0.44633516
0.44633234
0.44633043
0.44632905
0.44632791
0.44632697
0.4463262
0.44632561
0.44632514
0.4463248
0.43007104
0.43007135
0.43007177
0.43007232
0.43007302
0.43007389
0.43007495
0.43007623
0.43007799
0.43008057
0.43008362
0.43008601
0.43008602
0.43008364
0.43008062
0.43007805
0.4300763
0.43007502
0.43007397
0.4300731
0.4300724
0.43007186
0.43007144
0.43007113
0.41382028
0.41382057
0.41382096
0.41382146
0.41382211
0.41382293
0.41382391
0.4138251
0.41382671
0.41382907
0.41383186
0.41383406
0.41383407
0.41383189
0.4138291
0.41382675
0.41382514
0.41382396
0.41382298
0.41382215
0.41382149
0.41382098
0.41382058
0.41382028
0.39757223
0.3975725
0.39757286
0.39757333
0.39757394
0.3975747
0.39757561
0.39757672
0.3975782
0.39758037
0.39758294
0.39758495
0.39758495
0.39758295
0.39758038
0.39757822
0.39757674
0.39757564
0.39757473
0.39757397
0.39757335
0.39757287
0.3975725
0.39757222
0.38132669
0.38132695
0.38132729
0.38132773
0.3813283
0.38132902
0.38132987
0.38133089
0.38133226
0.38133425
0.38133663
0.38133848
0.38133847
0.38133663
0.38133425
0.38133225
0.38133089
0.38132986
0.38132901
0.38132829
0.38132772
0.38132727
0.38132693
0.38132667
0.3650835
0.36508374
0.36508407
0.36508449
0.36508502
0.36508569
0.36508649
0.36508744
0.3650887
0.36509054
0.36509274
0.36509444
0.36509443
0.36509272
0.36509051
0.36508866
0.3650874
0.36508644
0.36508564
0.36508497
0.36508443
0.36508401
0.36508368
0.36508343
0.34884249
0.34884272
0.34884303
0.34884342
0.34884393
0.34884456
0.3488453
0.34884619
0.34884736
0.34884906
0.34885111
0.34885267
0.34885266
0.34885107
0.34884901
0.3488473
0.34884612
0.34884522
0.34884448
0.34884385
0.34884335
0.34884296
0.34884266
0.34884244
0.3326035
0.33260372
0.33260402
0.3326044
0.33260488
0.33260547
0.33260617
0.332607
0.33260809
0.33260966
0.33261156
0.33261301
0.33261299
0.33261151
0.33260959
0.332608
0.3326069
0.33260606
0.33260535
0.33260476
0.33260428
0.33260391
0.33260362
0.3326034
0.31636644
0.31636664
0.31636692
0.31636728
0.31636774
0.31636829
0.31636895
0.31636973
0.31637074
0.31637221
0.31637398
0.31637532
0.3163753
0.31637391
0.31637211
0.31637063
0.3163696
0.31636882
0.31636817
0.31636762
0.31636717
0.31636683
0.31636656
0.31636635
0.30013116
0.30013135
0.30013162
0.30013195
0.30013238
0.3001329
0.30013352
0.30013425
0.3001352
0.30013656
0.30013821
0.30013946
0.30013944
0.30013815
0.30013646
0.30013508
0.30013412
0.30013338
0.30013277
0.30013225
0.30013184
0.30013153
0.30013129
0.30013111
0.28389755
0.28389773
0.28389798
0.2838983
0.2838987
0.28389919
0.28389977
0.28390045
0.28390134
0.28390261
0.28390416
0.28390533
0.28390531
0.2839041
0.28390252
0.28390123
0.28390033
0.28389964
0.28389906
0.28389857
0.28389817
0.28389787
0.28389764
0.28389746
0.26766552
0.26766569
0.26766592
0.26766621
0.26766659
0.26766705
0.2676676
0.26766824
0.26766907
0.26767026
0.26767172
0.26767281
0.26767279
0.26767166
0.26767018
0.26766898
0.26766814
0.26766749
0.26766695
0.2676665
0.26766613
0.26766586
0.26766564
0.26766549
0.25143496
0.25143512
0.25143533
0.25143561
0.25143596
0.25143639
0.25143691
0.25143751
0.25143829
0.25143941
0.25144078
0.2514418
0.25144179
0.25144074
0.25143935
0.25143823
0.25143744
0.25143684
0.25143632
0.2514359
0.25143555
0.25143529
0.25143509
0.25143494
0.2352058
0.23520595
0.23520614
0.2352064
0.23520673
0.23520714
0.23520762
0.23520819
0.23520893
0.23520997
0.23521127
0.23521223
0.23521222
0.23521125
0.23520995
0.2352089
0.23520816
0.23520759
0.2352071
0.2352067
0.23520637
0.23520612
0.23520593
0.23520578
0.21897795
0.21897809
0.21897827
0.21897851
0.21897881
0.2189792
0.21897966
0.2189802
0.21898089
0.21898187
0.21898308
0.21898398
0.21898399
0.21898308
0.21898187
0.21898089
0.2189802
0.21897966
0.21897921
0.21897882
0.2189785
0.21897826
0.21897807
0.21897793
0.20275134
0.20275147
0.20275164
0.20275186
0.20275214
0.20275251
0.20275294
0.20275345
0.2027541
0.20275502
0.20275617
0.20275703
0.20275704
0.20275619
0.20275505
0.20275413
0.20275348
0.20275298
0.20275255
0.20275219
0.20275191
0.20275168
0.2027515
0.20275137
0.18652591
0.18652602
0.18652618
0.18652638
0.18652665
0.18652699
0.1865274
0.18652788
0.18652849
0.18652935
0.18653042
0.18653123
0.18653124
0.18653046
0.1865294
0.18652854
0.18652793
0.18652745
0.18652703
0.18652669
0.1865264
0.18652618
0.186526
0.18652587
0.17030157
0.17030167
0.17030182
0.170302
0.17030225
0.17030257
0.17030296
0.17030341
0.17030399
0.1703048
0.17030583
0.17030659
0.17030661
0.17030587
0.17030487
0.17030406
0.17030348
0.17030303
0.17030264
0.17030231
0.17030203
0.17030179
0.17030161
0.17030147
0.15407827
0.15407837
0.1540785
0.15407868
0.15407891
0.15407921
0.15407957
0.15408
0.15408054
0.1540813
0.15408224
0.15408295
0.15408297
0.15408229
0.15408136
0.15408061
0.15408007
0.15407965
0.1540793
0.154079
0.15407875
0.15407855
0.15407839
0.15407827
0.13785594
0.13785603
0.13785616
0.13785632
0.13785654
0.13785682
0.13785716
0.13785756
0.13785807
0.13785879
0.13785969
0.13786036
0.13786038
0.13785973
0.13785885
0.13785813
0.13785763
0.13785723
0.13785688
0.13785659
0.13785635
0.13785616
0.13785601
0.1378559
0.12163454
0.12163463
0.12163475
0.12163491
0.12163512
0.12163538
0.1216357
0.12163608
0.12163655
0.12163721
0.12163803
0.12163864
0.12163866
0.12163808
0.12163727
0.12163662
0.12163615
0.12163577
0.12163545
0.12163517
0.12163493
0.12163474
0.12163459
0.12163448
0.10541397
0.10541406
0.10541418
0.10541434
0.10541455
0.1054148
0.1054151
0.10541545
0.10541589
0.10541651
0.10541729
0.10541786
0.10541787
0.10541732
0.10541657
0.10541595
0.10541551
0.10541516
0.10541487
0.10541461
0.1054144
0.10541423
0.1054141
0.105414
0.089194268
0.089194362
0.089194488
0.08919465
0.089194852
0.089195096
0.08919538
0.089195707
0.089196109
0.089196654
0.089197318
0.089197797
0.089197808
0.089197346
0.089196695
0.089196157
0.089195757
0.089195431
0.089195149
0.089194911
0.089194722
0.08919458
0.089194469
0.089194389
0.072975293
0.072975386
0.072975511
0.072975671
0.072975869
0.072976106
0.072976381
0.072976695
0.072977072
0.072977574
0.072978167
0.072978574
0.072978581
0.072978184
0.072977599
0.072977104
0.072976732
0.072976423
0.072976151
0.072975918
0.072975731
0.072975593
0.072975489
0.072975414
0.056757244
0.056757334
0.056757455
0.056757607
0.056757791
0.056758009
0.056758262
0.056758546
0.056758869
0.056759249
0.056759633
0.056759852
0.056759852
0.056759634
0.056759255
0.056758882
0.056758568
0.056758292
0.056758047
0.05675784
0.05675768
0.056757566
0.056757479
0.056757416
0.040539532
0.040539611
0.040539719
0.040539861
0.040540043
0.04054027
0.040540536
0.040540829
0.040541158
0.040541568
0.04054204
0.040542346
0.040542339
0.040542024
0.040541552
0.040541148
0.04054083
0.040540544
0.040540283
0.040540064
0.040539898
0.04053978
0.040539695
0.040539634
0.024323348
0.024323435
0.024323549
0.024323684
0.024323836
0.024324
0.024324174
0.024324358
0.024324526
0.024324605
0.024324517
0.024324282
0.024324274
0.024324497
0.024324582
0.02432451
0.024324354
0.024324178
0.024324007
0.024323848
0.024323706
0.024323592
0.024323498
0.024323427
0.0081053361
0.0081054081
0.0081055031
0.0081056268
0.0081057891
0.0081059898
0.0081062116
0.0081064515
0.0081068285
0.0081076611
0.0081091347
0.0081104976
0.0081104935
0.0081091252
0.0081076515
0.0081068236
0.008106453
0.0081062183
0.0081059999
0.0081058026
0.0081056467
0.0081055339
0.0081054493
0.0081053857
)
;

boundaryField
{
    INLET
    {
        type            zeroGradient;
    }
    OUTLET
    {
        type            fixedValue;
        value           uniform 0;
    }
    WALL
    {
        type            zeroGradient;
    }
    frontAndBackPlanes
    {
        type            empty;
    }
}


// ************************************************************************* //
