/*--------------------------------*- C++ -*----------------------------------*\
| =========                 |                                                 |
| \\      /  F ield         | OpenFOAM: The Open Source CFD Toolbox           |
|  \\    /   O peration     | Version:  2406                                  |
|   \\  /    A nd           | Website:  www.openfoam.com                      |
|    \\/     M anipulation  |                                                 |
\*---------------------------------------------------------------------------*/
FoamFile
{
    version     2.0;
    format      ascii;
    arch        "LSB;label=32;scalar=64";
    class       surfaceScalarField;
    location    "7";
    object      phi;
}
// * * * * * * * * * * * * * * * * * * * * * * * * * * * * * * * * * * * * * //

dimensions      [0 3 -1 0 0 0 0];

oriented        oriented;

internalField   nonuniform List<scalar> 
2279
(
2.3621547e-08
1.0148927e-05
2.0510508e-07
4.982375e-05
6.9332567e-07
0.00014252872
1.5784748e-06
0.00034353082
2.6788429e-06
0.0007537809
3.3472819e-06
0.0015415573
3.0435186e-06
0.0029497096
2.1517051e-06
0.005249171
1.4318519e-06
0.008582269
9.8965547e-07
0.012685995
5.1273462e-07
0.016666385
6.057781e-11
0.01918202
-5.1260636e-07
0.01918202
-9.8952978e-07
0.016666385
-1.4317288e-06
0.012685995
-2.1515813e-06
0.008582269
-3.0433792e-06
0.0052491709
-3.3471164e-06
0.0029497095
-2.678664e-06
0.0015415572
-1.5783081e-06
0.00075378085
-6.9319427e-07
0.0003435308
-2.0502359e-07
0.00014252871
-2.3585512e-08
4.9823747e-05
1.0148926e-05
-9.5241116e-08
1.0244175e-05
-5.3792587e-07
5.0266442e-05
-1.6229832e-06
0.00014361378
-3.5389368e-06
0.00034544678
-5.9201751e-06
0.00075616214
-7.4054886e-06
0.0015430427
-6.5847005e-06
0.0029488889
-3.9361116e-06
0.0052465225
-1.3883157e-06
0.0085797213
-6.5020863e-08
0.012684671
2.4252024e-07
0.016666078
1.0945333e-10
0.019182263
-2.4231003e-07
0.019182263
6.5191015e-08
0.016666078
1.3884252e-06
0.012684671
3.9361435e-06
0.0085797214
6.5846501e-06
0.0052465225
7.4053839e-06
0.0029488889
5.920065e-06
0.0015430427
3.5388557e-06
0.00075616218
1.6229378e-06
0.0003454468
5.3790731e-07
0.0001436138
9.5237487e-08
5.0266447e-05
1.0244176e-05
5.0151627e-08
1.0194035e-05
2.6336828e-07
5.0053237e-05
7.4913843e-07
0.00014312802
1.5314892e-06
0.00034466443
2.3366839e-06
0.00075535695
2.5476952e-06
0.0015428317
1.8391461e-06
0.0029495975
9.7574542e-07
0.0052473859
6.7704923e-07
0.0085800201
6.7190195e-07
0.012684677
4.8430052e-07
0.016666266
1.4900395e-10
0.019182747
-4.8401126e-07
0.019182747
-6.716332e-07
0.016666266
-6.7680817e-07
0.012684677
-9.7553492e-07
0.00858002
-1.838973e-06
0.0052473859
-2.5475591e-06
0.0029495974
-2.336573e-06
0.0015428316
-1.5313982e-06
0.00075535693
-7.4906901e-07
0.00034466442
-2.6332545e-07
0.00014312802
-5.013322e-08
5.0053235e-05
1.0194035e-05
1.9595277e-08
1.0174448e-05
1.1186583e-07
4.9960974e-05
3.6130563e-07
0.00014287859
9.0506701e-07
0.00034412067
1.8716771e-06
0.00075439034
3.0948483e-06
0.0015416085
3.8987719e-06
0.0029487936
3.7286311e-06
0.0052475561
2.924308e-06
0.0085808244
1.9734911e-06
0.012685627
1.0129048e-06
0.016667226
1.447124e-10
0.01918376
-1.012627e-06
0.01918376
-1.9732413e-06
0.016667226
-2.9241014e-06
0.012685627
-3.728485e-06
0.0085808244
-3.8986986e-06
0.0052475561
-3.0948395e-06
0.0029487936
-1.8717032e-06
0.0015416085
-9.0510052e-07
0.00075439035
-3.6133229e-07
0.00034412068
-1.1188184e-07
0.00014287859
-1.9601961e-08
4.9960977e-05
1.0174449e-05
8.0900377e-09
1.0166365e-05
4.7153125e-08
4.9921917e-05
1.5496262e-07
0.00014277078
3.9848049e-07
0.00034387715
8.7981715e-07
0.00075390901
1.7015524e-06
0.0015407868
2.7513323e-06
0.0029477438
3.4624427e-06
0.005246845
3.470963e-06
0.0085808159
2.8008032e-06
0.012686298
1.5506449e-06
0.016668476
1.391733e-10
0.01918531
-1.5503743e-06
0.01918531
-2.8005515e-06
0.016668476
-3.4707361e-06
0.012686298
-3.4622473e-06
0.0085808159
-2.7511698e-06
0.005246845
-1.7014196e-06
0.0029477438
-8.7971227e-07
0.0015407868
-3.984011e-07
0.000753909
-1.5490645e-07
0.00034387715
-4.7119756e-08
0.00014277078
-8.0758143e-09
4.9921916e-05
1.0166364e-05
4.930756e-09
1.0161429e-05
2.8689012e-08
4.9898154e-05
9.5110837e-08
0.00014270436
2.4921217e-07
0.00034372306
5.6362574e-07
0.00075359462
1.1214146e-06
0.001540229
1.918517e-06
0.0029469467
2.6588971e-06
0.0052461047
2.893152e-06
0.0085805817
2.4788728e-06
0.012686712
1.4345446e-06
0.016669521
1.2681333e-10
0.019186745
-1.4342996e-06
0.019186745
-2.4786505e-06
0.016669521
-2.8929649e-06
0.012686712
-2.6587524e-06
0.0085805817
-1.9184225e-06
0.0052461047
-1.121371e-06
0.0029469467
-5.6363107e-07
0.001540229
-2.4925153e-07
0.00075359462
-9.5161309e-08
0.00034372306
-2.8728448e-08
0.00014270436
-4.9505781e-09
4.9898155e-05
1.0161429e-05
4.3990392e-09
1.0157017e-05
2.5499833e-08
4.9877042e-05
8.3797911e-08
0.00014264606
2.1687054e-07
0.00034359
4.8449873e-07
0.00075332702
9.5638419e-07
0.0015397572
1.6414178e-06
0.0029462617
2.3246436e-06
0.0052454215
2.5940329e-06
0.0085803123
2.2394578e-06
0.012687067
1.3067795e-06
0.016670453
1.1335027e-10
0.019188051
-1.3065598e-06
0.019188051
-2.2392556e-06
0.016670453
-2.5938573e-06
0.012687067
-2.3244999e-06
0.0085803123
-1.6413042e-06
0.0052454214
-9.5630145e-07
0.0029462617
-4.8445174e-07
0.0015397571
-2.1685723e-07
0.00075332699
-8.3806665e-08
0.00034358999
-2.5513806e-08
0.00014264605
-4.4085537e-09
4.9877039e-05
1.0157016e-05
3.6172834e-09
1.0153391e-05
2.1020921e-08
4.9859631e-05
6.9418346e-08
0.00014259766
1.8112599e-07
0.00034347829
4.0970947e-07
0.00075309844
8.2391354e-07
0.001539343
1.4540184e-06
0.0029456316
2.1431192e-06
0.0052447324
2.4675364e-06
0.0085799879
2.1884709e-06
0.012687346
1.2867275e-06
0.016671355
8.8606113e-11
0.019189338
-1.2865546e-06
0.019189338
-2.1883085e-06
0.016671355
-2.4673939e-06
0.012687346
-2.1430089e-06
0.0085799879
-1.4539427e-06
0.0052447323
-8.2387825e-07
0.0029456316
-4.0971465e-07
0.001539343
-1.8116054e-07
0.00075309843
-6.946411e-08
0.00034347829
-2.1057435e-08
0.00014259765
-3.6363126e-09
4.985963e-05
1.0153391e-05
2.9881924e-09
1.0150408e-05
1.7357313e-08
4.9845267e-05
5.7390372e-08
0.00014255762
1.5008438e-07
0.0003433856
3.4097571e-07
0.00075290754
6.9193422e-07
0.001538992
1.2441201e-06
0.0029450795
1.9042146e-06
0.0052440723
2.3016477e-06
0.0085795905
2.0975677e-06
0.01268755
1.2520743e-06
0.016672201
6.3246388e-11
0.01919059
-1.2519505e-06
0.01919059
-2.097452e-06
0.016672201
-2.3015465e-06
0.01268755
-1.9041325e-06
0.0085795904
-1.2440572e-06
0.0052440722
-6.918841e-07
0.0029450794
-3.4093516e-07
0.001538992
-1.5005245e-07
0.00075290751
-5.7365942e-08
0.00034338558
-1.7341049e-08
0.00014255762
-2.9804746e-09
4.9845265e-05
1.0150407e-05
2.4823872e-09
1.0147942e-05
1.439556e-08
4.9833369e-05
4.7666189e-08
0.00014252436
1.250585e-07
0.00034330819
2.8559865e-07
0.00075274697
5.8417353e-07
0.0015386934
1.0641801e-06
0.0029445994
1.6641681e-06
0.0052434723
2.0898997e-06
0.0085791648
1.9529299e-06
0.012687687
1.1802834e-06
0.016672973
3.6272495e-11
0.01919177
-1.1802117e-06
0.01919177
-1.9528628e-06
0.016672973
-2.089851e-06
0.012687687
-1.6641451e-06
0.0085791647
-1.0641848e-06
0.0052434722
-5.8418715e-07
0.0029445994
-2.8559168e-07
0.0015386934
-1.2501817e-07
0.00075274695
-4.7604937e-08
0.00034330818
-1.434241e-08
0.00014252435
-2.4532065e-09
4.9833366e-05
1.0147942e-05
2.1246368e-09
1.014584e-05
1.2299385e-08
4.9823212e-05
4.0737946e-08
0.00014249593
1.0702676e-07
0.00034324189
2.4509007e-07
0.00075260888
5.0384354e-07
0.0015384346
9.2621995e-07
0.002944177
1.4715031e-06
0.005242927
1.8909088e-06
0.0085787453
1.8050296e-06
0.012687773
1.1036984e-06
0.016673675
4.5350442e-12
0.019192874
-1.1036894e-06
0.019192874
-1.80502e-06
0.016673675
-1.8908975e-06
0.012687772
-1.4714979e-06
0.0085787452
-9.2622727e-07
0.0052429269
-5.03857e-07
0.002944177
-2.4508778e-07
0.0015384346
-1.0699324e-07
0.00075260887
-4.0681169e-08
0.00034324188
-1.2247994e-08
0.00014249593
-2.0954612e-09
4.9823212e-05
1.014584e-05
1.8438996e-09
1.0144011e-05
1.0693752e-08
4.9814375e-05
3.5462903e-08
0.00014247116
9.3304374e-08
0.00034318403
2.1414144e-07
0.00075248802
4.4191323e-07
0.0015382068
8.1809105e-07
0.0029438008
1.3163561e-06
0.0052424287
1.7244693e-06
0.0085783372
1.6780189e-06
0.012687819
1.0377795e-06
0.016674315
-3.076803e-11
0.019193912
-1.0378421e-06
0.019193912
-1.6780845e-06
0.016674315
-1.7245278e-06
0.012687819
-1.316405e-06
0.0085783371
-8.1812343e-07
0.0052424286
-4.419209e-07
0.0029438008
-2.1411875e-07
0.0015382068
-9.3253129e-08
0.000752488
-3.5396018e-08
0.00034318403
-1.0637194e-08
0.00014247116
-1.8120838e-09
4.9814375e-05
1.0144012e-05
1.6180014e-09
1.0142401e-05
9.4124603e-09
4.9806585e-05
3.1257861e-08
0.00014244932
8.2346362e-08
0.00034313294
1.8931504e-07
0.00075238104
3.918057e-07
0.0015380043
7.2921323e-07
0.0029434634
1.1851064e-06
0.0052419728
1.5781265e-06
0.0085779442
1.5622859e-06
0.012687835
9.7664311e-07
0.0166749
-5.8873587e-11
0.019194888
-9.7675907e-07
0.019194888
-1.5623976e-06
0.0166749
-1.5782403e-06
0.012687835
-1.1852183e-06
0.0085779441
-7.293186e-07
0.0052419728
-3.9188948e-07
0.0029434634
-1.8935519e-07
0.0015380043
-8.2335501e-08
0.00075238103
-3.1213409e-08
0.00034313293
-9.3673973e-09
0.00014244932
-1.5910876e-09
4.9806585e-05
1.0142401e-05
1.4318379e-09
1.0140969e-05
8.3615327e-09
4.9799655e-05
2.7810084e-08
0.00014242987
7.3349013e-08
0.0003430874
1.6886284e-07
0.00075228552
3.5025601e-07
0.0015378229
6.5455735e-07
0.0029431591
1.0720134e-06
0.0052415553
1.446368e-06
0.0085775698
1.4547981e-06
0.012687826
9.1872475e-07
0.016675437
-8.7738497e-11
0.019195807
-9.1889426e-07
0.019195807
-1.4549478e-06
0.016675436
-1.4464922e-06
0.012687826
-1.072112e-06
0.0085775697
-6.5464016e-07
0.0052415553
-3.5033313e-07
0.0029431591
-1.6893146e-07
0.0015378229
-7.3400052e-08
0.00075228553
-2.7841462e-08
0.0003430874
-8.3778438e-09
0.00014242987
-1.4379543e-09
4.9799657e-05
1.0140969e-05
1.2752442e-09
1.0139684e-05
7.4865385e-09
4.9793435e-05
2.4946011e-08
0.00014241241
6.5872339e-08
0.00034304648
1.5182669e-07
0.00075219958
3.1547544e-07
0.0015376593
5.9147414e-07
0.0029428831
9.7473991e-07
0.0052411721
1.3296308e-06
0.0085772149
1.3566929e-06
0.012687799
8.6514463e-07
0.016675928
-1.1414301e-10
0.019196672
-8.6536832e-07
0.019196672
-1.356903e-06
0.016675928
-1.3298044e-06
0.012687799
-9.7486345e-07
0.0085772149
-5.9153695e-07
0.005241172
-3.154862e-07
0.0029428831
-1.5181347e-07
0.0015376593
-6.5860679e-08
0.00075219957
-2.4943958e-08
0.00034304648
-7.4892348e-09
0.00014241241
-1.2775813e-09
4.9793436e-05
1.0139684e-05
1.1450701e-09
1.0138522e-05
6.754106e-09
4.9787812e-05
2.2541966e-08
0.00014239661
5.9584019e-08
0.00034300944
1.3746331e-07
0.00075212172
2.8603525e-07
0.0015375107
5.3768833e-07
0.0029426314
8.906577e-07
0.0052408191
1.2263195e-06
0.0085768792
1.2673853e-06
0.012687758
8.1580564e-07
0.01667638
-1.2607567e-10
0.019197488
-8.1605047e-07
0.019197488
-1.2676119e-06
0.01667638
-1.2265277e-06
0.012687758
-8.9083953e-07
0.0085768792
-5.3783604e-07
0.0052408191
-2.8614621e-07
0.0029426315
-1.3754438e-07
0.0015375107
-5.9646159e-08
0.00075212172
-2.2591367e-08
0.00034300945
-6.7874237e-09
0.00014239661
-1.1610547e-09
4.9787812e-05
1.0138522e-05
1.03867e-09
1.0137466e-05
6.138538e-09
4.9782698e-05
2.0502312e-08
0.00014238224
5.4222555e-08
0.00034297574
1.2517701e-07
0.00075205078
2.6076141e-07
0.0015373752
4.912335e-07
0.002942401
8.1718021e-07
0.0052404931
1.1341068e-06
0.0085765623
1.185684e-06
0.012687707
7.7008778e-07
0.016676795
-1.3191192e-10
0.019198259
-7.7033886e-07
0.019198259
-1.1859009e-06
0.016676795
-1.134281e-06
0.012687707
-8.1731067e-07
0.0085765623
-4.9132879e-07
0.0052404932
-2.6084019e-07
0.002942401
-1.2525707e-07
0.0015373752
-5.4309915e-08
0.0007520508
-2.0589308e-08
0.00034297574
-6.2046612e-09
0.00014238225
-1.073663e-09
4.9782699e-05
1.0137467e-05
9.5029009e-10
1.0136501e-05
5.6132861e-09
4.9778023e-05
1.8746801e-08
0.00014236911
4.958851e-08
0.00034294491
1.1453203e-07
0.00075198586
2.3880649e-07
0.0015372509
4.5068858e-07
0.0029421891
7.5244235e-07
0.0052401914
1.0514272e-06
0.0085762633
1.1107257e-06
0.012687647
7.2755983e-07
0.016677178
-1.3484313e-10
0.019198986
-7.2781888e-07
0.019198986
-1.1109567e-06
0.016677178
-1.0516104e-06
0.012687647
-7.5256253e-07
0.0085762633
-4.5073397e-07
0.0052401914
-2.3879443e-07
0.0029421891
-1.1450689e-07
0.0015372509
-4.958644e-08
0.00075198586
-1.87718e-08
0.00034294491
-5.6433343e-09
0.00014236911
-9.6943867e-10
4.9778023e-05
1.0136501e-05
8.7664576e-10
1.0135616e-05
5.1605575e-09
4.9773732e-05
1.7219921e-08
0.00014235704
4.5543379e-08
0.00034291659
1.0522301e-07
0.00075192619
2.1956737e-07
0.0015371366
4.1502182e-07
0.0029419937
6.9504698e-07
0.0052399114
9.7702375e-07
0.0085759813
1.0417672e-06
0.012687583
6.8788493e-07
0.016677532
-1.2402783e-10
0.019199674
-6.881238e-07
0.019199674
-1.041985e-06
0.016677532
-9.7721657e-07
0.012687583
-6.9520605e-07
0.0085759814
-4.1513784e-07
0.0052399114
-2.1964004e-07
0.0029419937
-1.0526843e-07
0.0015371366
-4.5581418e-08
0.0007519262
-1.7257785e-08
0.00034291659
-5.1900638e-09
0.00014235704
-8.9236515e-10
4.9773732e-05
1.0135615e-05
8.1103763e-10
1.01348e-05
4.7603877e-09
4.9769778e-05
1.587354e-08
0.00014234593
4.1979049e-08
0.00034289049
9.7016299e-08
0.00075187116
2.0257851e-07
0.001537031
3.8342014e-07
0.0029418128
6.4384601e-07
0.0052396509
9.0976844e-07
0.0085757154
9.781363e-07
0.012687514
6.5075079e-07
0.01667786
-1.120242e-10
0.019200325
-6.5096116e-07
0.019200325
-9.7831228e-07
0.01667786
-9.0990678e-07
0.012687514
-6.4394942e-07
0.0085757154
-3.8349789e-07
0.005239651
-2.0264317e-07
0.0029418128
-9.7075237e-08
0.001537031
-4.2033424e-08
0.00075187117
-1.5921191e-08
0.00034289049
-4.7945369e-09
0.00014234593
-8.290577e-10
4.9769778e-05
1.0134799e-05
7.5398147e-10
1.0134045e-05
4.4081162e-09
4.9766124e-05
1.4682979e-08
0.00014233565
3.8819064e-08
0.00034286635
8.9728321e-08
0.00075182024
1.8746589e-07
0.0015369333
3.5522749e-07
0.002941645
5.978992e-07
0.0052394082
8.487069e-07
0.0085754646
9.1926671e-07
0.012687444
6.1590078e-07
0.016678163
-1.0729739e-10
0.019200941
-6.1610614e-07
0.019200941
-9.1944756e-07
0.016678163
-8.4884824e-07
0.012687444
-5.9798771e-07
0.0085754646
-3.5525714e-07
0.0052394082
-1.8745148e-07
0.002941645
-8.9701641e-08
0.0015369333
-3.8805626e-08
0.00075182024
-1.4687497e-08
0.00034286635
-4.4192245e-09
0.00014233565
-7.6244963e-10
4.9766124e-05
1.0134045e-05
7.0527304e-10
1.0133346e-05
4.097769e-09
4.9762737e-05
1.3624533e-08
0.00014232613
3.5998258e-08
0.00034284396
8.321028e-08
0.00075177301
1.7392987e-07
0.0015368425
3.2991518e-07
0.002941489
5.5643711e-07
0.0052391817
7.9303185e-07
0.008575228
8.6466501e-07
0.012687372
5.8312316e-07
0.016678445
-1.0024047e-10
0.019201524
-5.8331854e-07
0.019201524
-8.6485073e-07
0.016678445
-7.9320187e-07
0.012687372
-5.5657911e-07
0.008575228
-3.3001653e-07
0.0052391817
-1.7398283e-07
0.002941489
-8.3221172e-08
0.0015368425
-3.5985334e-08
0.00075177301
-1.3605415e-08
0.00034284396
-4.0826503e-09
0.00014232612
-6.9763667e-10
4.9762735e-05
1.0133346e-05
6.6165045e-10
1.0132697e-05
3.8187538e-09
4.9759589e-05
1.2672778e-08
0.00014231727
3.3461755e-08
0.00034282316
7.7346558e-08
0.0007517291
1.6173849e-07
0.0015367581
3.0706516e-07
0.0029413436
5.1883669e-07
0.0052389699
7.4207339e-07
0.0085750047
8.1390753e-07
0.0126873
5.5223796e-07
0.016678706
-9.69228e-11
0.019202077
-5.5242627e-07
0.019202077
-8.1407907e-07
0.016678706
-7.4222555e-07
0.0126873
-5.1896822e-07
0.0085750047
-3.0717672e-07
0.0052389699
-1.618279e-07
0.0029413437
-7.7408824e-08
0.0015367581
-3.3497001e-08
0.0007517291
-1.2688442e-08
0.00034282316
-3.8243888e-09
0.00014231727
-6.6341953e-10
4.9759588e-05
1.0132697e-05
6.1817405e-10
1.0132092e-05
3.5590123e-09
4.9756658e-05
1.1803633e-08
0.00014230903
3.1162697e-08
0.00034280378
7.204242e-08
0.00075168818
1.5070497e-07
0.0015366794
2.8634199e-07
0.002941208
4.8459215e-07
0.0052387716
6.9527495e-07
0.0085747939
7.6662989e-07
0.012687229
5.230911e-07
0.01667895
-1.0503186e-10
0.0192026
-5.2330057e-07
0.0192026
-7.6683489e-07
0.01667895
-6.9545914e-07
0.012687229
-4.8473677e-07
0.008574794
-2.8643482e-07
0.0052387716
-1.5074447e-07
0.002941208
-7.203982e-08
0.0015366794
-3.1136295e-08
0.00075168818
-1.1771194e-08
0.00034280378
-3.5344388e-09
0.00014230903
-6.0625515e-10
4.9756657e-05
1.0132092e-05
5.7510534e-10
1.0131528e-05
3.3166454e-09
4.9753924e-05
1.1006634e-08
0.00014230134
2.9068723e-08
0.00034278571
6.7220698e-08
0.00075165
1.4067242e-07
0.0015366059
2.674666e-07
0.0029410811
4.5328461e-07
0.0052385857
6.5216967e-07
0.008574595
7.2252652e-07
0.012687158
4.9556722e-07
0.016679177
-1.1110409e-10
0.019203096
-4.9579341e-07
0.019203096
-7.2275632e-07
0.016679177
-6.5239035e-07
0.012687158
-4.5347033e-07
0.0085745951
-2.6759505e-07
0.0052385857
-1.4073864e-07
0.0029410811
-6.7239165e-08
0.0015366059
-2.9060437e-08
0.00075165001
-1.0988709e-08
0.00034278571
-3.3007091e-09
0.00014230134
-5.6605632e-10
4.9753925e-05
1.0131529e-05
5.3346631e-10
1.0131002e-05
3.0913934e-09
4.9751371e-05
1.0274881e-08
0.00014229415
2.7155334e-08
0.00034276881
6.2820236e-08
0.00075161431
1.3151274e-07
0.0015365372
2.5020681e-07
0.0029409624
4.2456207e-07
0.0052384113
6.1235826e-07
0.0085744072
6.8131648e-07
0.012687089
4.6954607e-07
0.016679388
-1.1317434e-10
0.019203565
-4.6977699e-07
0.019203565
-6.8155251e-07
0.016679388
-6.1258472e-07
0.012687089
-4.2475673e-07
0.0085744073
-2.5035409e-07
0.0052384114
-1.3161039e-07
0.0029409624
-6.2876076e-08
0.0015365372
-2.7180547e-08
0.00075161433
-1.0280671e-08
0.00034276882
-3.0890426e-09
0.00014229416
-5.3020667e-10
4.9751372e-05
1.0131002e-05
4.93467e-10
1.0130509e-05
2.8818956e-09
4.9748982e-05
9.6015142e-09
0.00014228743
2.5401984e-08
0.00034275301
5.8791652e-08
0.00075158091
1.231224e-07
0.0015364728
2.3437218e-07
0.0029408511
3.9813118e-07
0.0052382475
5.7550287e-07
0.0085742298
6.4277096e-07
0.012687022
4.449467e-07
0.016679586
-1.0744319e-10
0.01920401
-4.4516604e-07
0.01920401
-6.4299548e-07
0.016679586
-5.7571289e-07
0.012687022
-3.9830371e-07
0.0085742299
-2.3449551e-07
0.0052382476
-1.2319903e-07
0.0029408512
-5.882839e-08
0.0015364729
-2.5408949e-08
0.00075158094
-9.5930137e-09
0.00034275302
-2.871838e-09
0.00014228744
-4.8786651e-10
4.9748983e-05
1.0130509e-05
4.5363334e-10
1.0130048e-05
2.6836035e-09
4.9746745e-05
8.9754986e-09
0.00014228114
2.3784673e-08
0.0003427382
5.5085725e-08
0.00075154962
1.154068e-07
0.0015364125
2.1979633e-07
0.0029407467
3.7373925e-07
0.0052380935
5.4130876e-07
0.0085740622
6.0666354e-07
0.012686957
4.2166351e-07
0.016679771
-9.030008e-11
0.019204432
-4.2184797e-07
0.019204432
-6.06849e-07
0.016679771
-5.4147715e-07
0.012686957
-3.7386352e-07
0.0085740623
-2.1986691e-07
0.0052380936
-1.1544142e-07
0.0029407468
-5.5111933e-08
0.0015364125
-2.3817501e-08
0.00075154965
-9.0130444e-09
0.00034273822
-2.7135907e-09
0.00014228115
-4.6919978e-10
4.9746748e-05
1.0130048e-05
4.1752839e-10
1.0129615e-05
2.5020944e-09
4.9744648e-05
8.4000411e-09
0.00014227524
2.229524e-08
0.00034272432
5.1669821e-08
0.00075152027
1.0829066e-07
0.0015363559
2.0633947e-07
0.0029406487
3.5116966e-07
0.0052379487
5.0952053e-07
0.0085739039
5.7282154e-07
0.012686893
3.9964785e-07
0.016679944
-5.5001961e-11
0.019204832
-3.9976213e-07
0.019204832
-5.7294193e-07
0.016679945
-5.096348e-07
0.012686894
-3.5125892e-07
0.008573904
-2.0638966e-07
0.0052379488
-1.0830808e-07
0.0029406487
-5.1677105e-08
0.0015363559
-2.2310344e-08
0.00075152029
-8.4233122e-09
0.00034272433
-2.5221393e-09
0.00014227524
-4.2803126e-10
4.9744649e-05
1.0129615e-05
3.8899912e-10
1.0129209e-05
2.3441355e-09
4.9742679e-05
7.8816527e-09
0.0001422697
2.0932111e-08
0.00034271129
4.8523229e-08
0.00075149271
1.0171841e-07
0.0015363027
1.9389103e-07
0.0029405566
3.3024301e-07
0.0052378124
4.7991528e-07
0.0085737542
5.4104787e-07
0.012686832
3.7878768e-07
0.016680107
-1.650275e-12
0.019205211
-3.7878992e-07
0.019205211
-5.4104989e-07
0.016680107
-4.7991484e-07
0.012686832
-3.3024295e-07
0.0085737544
-1.9390034e-07
0.0052378125
-1.0174314e-07
0.0029405566
-4.85585e-08
0.0015363028
-2.0970447e-08
0.00075149273
-7.9177699e-09
0.00034271129
-2.3709822e-09
0.0001422697
-4.0313081e-10
4.9742679e-05
1.0129209e-05
3.651968e-10
1.0128828e-05
2.2027703e-09
4.974083e-05
7.4074659e-09
0.00014226449
1.9673777e-08
0.00034269904
4.5609896e-08
0.00075146682
9.5627915e-08
0.0015362528
1.8234554e-07
0.0029404699
3.107984e-07
0.005237684
4.5230066e-07
0.0085736128
5.1121621e-07
0.012686773
3.5905736e-07
0.016680259
5.5073811e-11
0.01920557
-3.5894203e-07
0.01920557
-5.1108537e-07
0.016680259
-4.5215554e-07
0.012686774
-3.1065011e-07
0.0085736129
-1.8221872e-07
0.0052376841
-9.5547383e-08
0.0029404699
-4.5585798e-08
0.0015362528
-1.9699598e-08
0.00075146683
-7.4625308e-09
0.00034269905
-2.2551665e-09
0.00014226449
-3.9596193e-10
4.9740831e-05
1.0128828e-05
3.4661695e-10
1.0128469e-05
2.077431e-09
4.9739091e-05
6.9734897e-09
0.0001422596
1.8509356e-08
0.00034268753
4.2905645e-08
0.00075144246
8.9969777e-08
0.0015362058
1.7161141e-07
0.0029403883
2.9269095e-07
0.0052375631
4.2649524e-07
0.0085734791
4.8315011e-07
0.012686717
3.40339e-07
0.016680402
1.1786988e-10
0.01920591
-3.4010164e-07
0.01920591
-4.8291014e-07
0.016680402
-4.2625646e-07
0.012686717
-2.9246703e-07
0.0085734791
-1.7141864e-07
0.005237563
-8.9819968e-08
0.0029403883
-4.2811305e-08
0.0015362058
-1.8475007e-08
0.00075144245
-6.983883e-09
0.00034268752
-2.1012027e-09
0.00014225959
-3.6353822e-10
4.973909e-05
1.0128469e-05
3.2973723e-10
1.0128132e-05
1.961468e-09
4.9737455e-05
6.5706689e-09
0.00014225499
1.7427441e-08
0.00034267669
4.0391482e-08
0.00075141954
8.4705492e-08
0.0015361615
1.6161397e-07
0.0029403115
2.7579806e-07
0.005237449
4.023466e-07
0.0085733526
4.5674945e-07
0.012686663
3.226248e-07
0.016680536
1.7565935e-10
0.019206232
-3.2226748e-07
0.019206232
-4.563849e-07
0.016680536
-4.0199514e-07
0.012686663
-2.7549895e-07
0.0085733526
-1.6139896e-07
0.0052374489
-8.4578657e-08
0.0029403115
-4.0341208e-08
0.0015361615
-1.7434651e-08
0.00075141951
-6.6086784e-09
0.00034267667
-1.9993113e-09
0.00014225498
-3.5165627e-10
4.9737452e-05
1.0128131e-05
3.1420147e-10
1.0127814e-05
1.8538467e-09
4.9735914e-05
6.1956417e-09
0.00014225065
1.6418574e-08
0.00034266648
3.8046018e-08
0.00075139795
7.9794153e-08
0.0015361198
1.5228309e-07
0.0029402391
2.6001052e-07
0.0052373413
3.7971256e-07
0.008573233
4.3186556e-07
0.01268661
3.0579602e-07
0.016680662
2.0984301e-10
0.019206538
-3.0536845e-07
0.019206538
-4.3142309e-07
0.016680662
-3.7927692e-07
0.01268661
-2.5963114e-07
0.0085732328
-1.5200692e-07
0.0052373412
-7.9631543e-08
0.002940239
-3.7974343e-08
0.0015361198
-1.6403785e-08
0.0007513979
-6.2084287e-09
0.00034266646
-1.8719725e-09
0.00014225064
-3.2663899e-10
4.9735909e-05
1.0127813e-05
3.0150543e-10
1.0127515e-05
1.7566691e-09
4.9734462e-05
5.8492053e-09
0.00014224656
1.5478486e-08
0.00034265686
3.5854131e-08
0.00075137759
7.5200979e-08
0.0015360805
1.4355427e-07
0.0029401708
2.4522922e-07
0.0052372397
3.5847234e-07
0.0085731199
4.0840419e-07
0.012686561
2.8983543e-07
0.016680781
2.1482023e-10
0.019206828
-2.8940054e-07
0.019206828
-4.0795955e-07
0.016680781
-3.5803288e-07
0.01268656
-2.4483358e-07
0.0085731195
-1.4323774e-07
0.0052372395
-7.4978014e-08
0.0029401706
-3.5722318e-08
0.0015360804
-1.5418846e-08
0.00075137753
-5.833574e-09
0.00034265683
-1.7586727e-09
0.00014224655
-3.0629199e-10
4.9734458e-05
1.0127514e-05
2.8996167e-10
1.0127232e-05
1.6663391e-09
4.9733093e-05
5.5259537e-09
0.00014224271
1.4599938e-08
0.0003426478
3.3803958e-08
0.0007513584
7.0902079e-08
0.0015360435
1.3537961e-07
0.0029401064
2.3137166e-07
0.0052371438
3.3851582e-07
0.0085730128
3.8628211e-07
0.012686513
2.7469465e-07
0.016680892
1.8895242e-10
0.019207102
-2.7431627e-07
0.019207102
-3.8590624e-07
0.016680892
-3.3816257e-07
0.012686513
-2.3107385e-07
0.0085730124
-1.3515644e-07
0.0052371435
-7.0747877e-08
0.0029401061
-3.370364e-08
0.0015360433
-1.4535936e-08
0.00075135831
-5.4830103e-09
0.00034264775
-1.6387314e-09
0.00014224269
-2.7608648e-10
4.9733086e-05
1.0127231e-05
2.7669062e-10
1.0126966e-05
1.5770988e-09
4.9731802e-05
5.2171587e-09
0.00014223908
1.3771103e-08
0.00034263924
3.1877987e-08
0.00075134029
6.6868987e-08
0.0015360085
1.2771232e-07
0.0029400456
2.1836645e-07
0.0052370532
3.1974673e-07
0.0085729114
3.6535431e-07
0.012686467
2.6026609e-07
0.016680997
1.3264842e-10
0.019207362
-2.5999707e-07
0.019207362
-3.6508068e-07
0.016680997
-3.1948897e-07
0.012686467
-2.1816559e-07
0.008572911
-1.2759648e-07
0.0052370528
-6.6830863e-08
0.0029400453
-3.1877004e-08
0.0015360083
-1.3764965e-08
0.00075134021
-5.1919279e-09
0.0003426392
-1.5482254e-09
0.00014223906
-2.5843523e-10
4.9731795e-05
1.0126965e-05
2.6687609e-10
1.0126715e-05
1.49886e-09
4.9730583e-05
4.9353443e-09
0.00014223564
1.3001913e-08
0.00034263116
3.0078038e-08
0.0007513232
6.3089225e-08
0.0015359755
1.205184e-07
0.0029399882
2.061527e-07
0.0052369676
3.0209589e-07
0.0085728155
3.4566699e-07
0.012686424
2.4666064e-07
0.016681096
4.1992089e-11
0.019207609
-2.4657341e-07
0.019207609
-3.4556626e-07
0.016681096
-3.0198134e-07
0.012686423
-2.0603622e-07
0.0085728149
-1.204168e-07
0.0052369671
-6.3013686e-08
0.0029399878
-3.0020802e-08
0.0015359753
-1.2943136e-08
0.0007513231
-4.867829e-09
0.00034263112
-1.441623e-09
0.00014223563
-2.3438271e-10
4.9730578e-05
1.0126714e-05
2.5610362e-10
1.0126478e-05
1.4226596e-09
4.9729432e-05
4.6677984e-09
0.00014223241
1.2278266e-08
0.00034262354
2.8389924e-08
0.00075130706
5.9547134e-08
0.0015359443
1.1377422e-07
0.0029399339
1.9468573e-07
0.0052368866
2.8546925e-07
0.0085727247
3.269582e-07
0.012686382
2.3359342e-07
0.01668119
-6.7017411e-11
0.019207843
-2.3372654e-07
0.019207842
-3.2708201e-07
0.016681189
-2.8557932e-07
0.012686382
-1.9477918e-07
0.0085727241
-1.1384303e-07
0.0052368862
-5.9576855e-08
0.0029399336
-2.8361082e-08
0.0015359441
-1.2186892e-08
0.00075130695
-4.5399705e-09
0.00034262349
-1.312531e-09
0.00014223239
-1.9419762e-10
4.9729426e-05
1.0126476e-05
2.4543825e-10
1.0126254e-05
1.3502104e-09
4.9728345e-05
4.4162488e-09
0.00014222934
1.1600679e-08
0.00034261633
2.6809846e-08
0.00075129181
5.622814e-08
0.0015359148
1.074489e-07
0.0029398827
1.8392811e-07
0.0052368101
2.6987621e-07
0.0085726387
3.0948098e-07
0.012686343
2.2143278e-07
0.016681278
-1.6938434e-10
0.019208064
-2.2176032e-07
0.019208064
-3.0977467e-07
0.016681277
-2.7012602e-07
0.012686342
-1.8414504e-07
0.0085726381
-1.076499e-07
0.0052368097
-5.6405442e-08
0.0029398824
-2.6919048e-08
0.0015359147
-1.1613479e-08
0.00075129174
-4.3569522e-09
0.0003426163
-1.2801161e-09
0.00014222933
-2.0177679e-10
4.972834e-05
1.0126253e-05
2.3257862e-10
1.0126042e-05
1.2768301e-09
4.9727318e-05
4.1739112e-09
0.00014222645
1.0961644e-08
0.00034260952
2.5331199e-08
0.0007512774
5.3126877e-08
0.001535887
1.0152769e-07
0.0029398342
1.738192e-07
0.0052367378
2.5513838e-07
0.0085725574
2.9276272e-07
0.012686305
2.0963744e-07
0.016681361
-2.7201292e-10
0.019208274
-2.1015869e-07
0.019208274
-2.9321666e-07
0.01668136
-2.5549668e-07
0.012686304
-1.7407405e-07
0.0085725567
-1.0169356e-07
0.0052367372
-5.3224246e-08
0.0029398338
-2.5365564e-08
0.0015358868
-1.0937538e-08
0.00075127732
-4.1131814e-09
0.00034260949
-1.2183036e-09
0.00014222644
-1.9824863e-10
4.9727315e-05
1.0126041e-05
2.1536878e-10
1.0125841e-05
1.199524e-09
4.9726345e-05
3.9394179e-09
0.00014222371
1.0363912e-08
0.00034260308
2.395944e-08
0.00075126377
5.0246256e-08
0.0015358606
9.6017685e-08
0.0029397884
1.6441901e-07
0.0052366693
2.414731e-07
0.0085724802
2.7738116e-07
0.012686269
1.9887616e-07
0.016681439
-3.4229877e-10
0.019208473
-1.9953324e-07
0.019208473
-2.7796669e-07
0.016681439
-2.4195857e-07
0.012686268
-1.647915e-07
0.0085724796
-9.627111e-08
0.0052366688
-5.0382199e-08
0.002939788
-2.3991385e-08
0.0015358605
-1.0321275e-08
0.00075126369
-3.8612148e-09
0.00034260305
-1.1293843e-09
0.0001422237
-1.751293e-10
4.9726342e-05
1.0125841e-05
1.9459003e-10
1.0125652e-05
1.1165732e-09
4.9725426e-05
3.7024538e-09
0.00014222113
9.7815257e-09
0.00034259699
2.2650117e-08
0.00075125088
4.752508e-08
0.0015358357
9.0822978e-08
0.002939745
1.5551827e-07
0.0052366046
2.2843503e-07
0.0085724073
2.6251717e-07
0.012686235
1.8833901e-07
0.016681513
-3.7002122e-10
0.019208662
-1.8903708e-07
0.019208662
-2.6311426e-07
0.016681513
-2.2890907e-07
0.012686234
-1.558839e-07
0.0085724066
-9.1104895e-08
0.0052366041
-4.773269e-08
0.0029397448
-2.2774439e-08
0.0015358356
-9.8248226e-09
0.00075125082
-3.6921768e-09
0.00034259697
-1.0918028e-09
0.00014222112
-1.7721215e-10
4.9725423e-05
1.0125651e-05
1.6885626e-10
1.0125472e-05
1.0302785e-09
4.9724553e-05
3.4786765e-09
0.00014221867
9.255831e-09
0.00034259121
2.1476377e-08
0.00075123866
4.5068801e-08
0.0015358121
8.6115958e-08
0.0029397039
1.4748104e-07
0.0052365431
2.167407e-07
0.0085723379
2.4933028e-07
0.012686202
1.7909099e-07
0.016681584
-3.7077682e-10
0.019208841
-1.7978109e-07
0.019208841
-2.4989796e-07
0.016681583
-2.1716485e-07
0.012686201
-1.4777643e-07
0.0085723373
-8.6311257e-08
0.0052365427
-4.5197118e-08
0.0029397037
-2.1567731e-08
0.001535812
-9.3309406e-09
0.0007512386
-3.5455612e-09
0.00034259119
-1.0806914e-09
0.00014221866
-1.959123e-10
4.9724551e-05
1.0125471e-05
1.4878476e-10
1.0125303e-05
9.482861e-10
4.9723735e-05
3.242452e-09
0.00014221636
8.6825887e-09
0.00034258578
2.0223237e-08
0.00075122712
4.2553629e-08
0.0015357898
8.1455017e-08
0.002939665
1.3963825e-07
0.0052364849
2.0534839e-07
0.0085722722
2.3634972e-07
0.012686171
1.6991375e-07
0.01668165
-3.2560187e-10
0.019209012
-1.7051783e-07
0.019209011
-2.3685305e-07
0.016681649
-2.0574039e-07
0.01268617
-1.3992009e-07
0.0085722715
-8.1624147e-08
0.0052364845
-4.2629166e-08
0.0029396647
-2.0257993e-08
0.0015357896
-8.7269534e-09
0.00075122706
-3.3092657e-09
0.00034258575
-1.0097246e-09
0.00014221636
-1.8443861e-10
4.9723732e-05
1.0125303e-05
1.4397832e-10
1.012514e-05
9.220103e-10
4.9722941e-05
3.1473805e-09
0.00014221413