/*--------------------------------*- C++ -*----------------------------------*\
| =========                 |                                                 |
| \\      /  F ield         | OpenFOAM: The Open Source CFD Toolbox           |
|  \\    /   O peration     | Version:  2406                                  |
|   \\  /    A nd           | Website:  www.openfoam.com                      |
|    \\/     M anipulation  |                                                 |
\*---------------------------------------------------------------------------*/
FoamFile
{
    version     2.0;
    format      ascii;
    arch        "LSB;label=32;scalar=64";
    class       volVectorField;
    location    "7";
    object      U;
}
// * * * * * * * * * * * * * * * * * * * * * * * * * * * * * * * * * * * * * //

dimensions      [0 1 -1 0 0 0 0];

internalField   nonuniform List<vector> 
1176
(
(0.01949379 7.0783598e-07 0)
(0.066677319 8.1703745e-06 0)
(0.13357994 3.9503698e-05 0)
(0.22724701 0.00010873641 0)
(0.35591523 0.00021176034 0)
(0.52772024 0.00030396234 0)
(0.74780387 0.00031817976 0)
(1.0136216 0.00024904685 0)
(1.3093323 0.00016667329 0)
(1.6017081 0.00011265214 0)
(1.8421723 7.0220289e-05 0)
(1.9793239 2.3946818e-05 0)
(1.9793239 -2.3934912e-05 0)
(1.8421723 -7.0208148e-05 0)
(1.6017081 -0.00011264017 0)
(1.3093323 -0.00016666114 0)
(1.0136216 -0.00024903316 0)
(0.74780387 -0.00031816297 0)
(0.52772023 -0.0003039433 0)
(0.35591522 -0.00021174233 0)
(0.227247 -0.00010872167 0)
(0.13357994 -3.9495414e-05 0)
(0.066677317 -8.1636337e-06 0)
(0.019493789 -7.0787696e-07 0)
(0.020187017 -3.7419585e-06 0)
(0.068813533 -2.4637308e-05 0)
(0.13732107 -9.6547384e-05 0)
(0.23247391 -0.00024839279 0)
(0.36204618 -0.00047268623 0)
(0.53373557 -0.00067421029 0)
(0.75267408 -0.00069486727 0)
(1.0170176 -0.00049687008 0)
(1.3116385 -0.00023345347 0)
(1.6034438 -4.9816235e-05 0)
(1.8436588 1.9774949e-05 0)
(1.9807026 1.343856e-05 0)
(1.9807026 -1.3417701e-05 0)
(1.8436588 -1.9756481e-05 0)
(1.6034438 4.9829759e-05 0)
(1.3116385 0.00023346019 0)
(1.0170176 0.0004968688 0)
(0.75267406 0.00069485886 0)
(0.53373556 0.00067419896 0)
(0.36204617 0.00047267683 0)
(0.23247391 0.00024838701 0)
(0.13732107 9.6544733e-05 0)
(0.068813535 2.4636281e-05 0)
(0.020187018 3.7418921e-06 0)
(0.020018442 2.0917772e-06 0)
(0.068327406 1.2722938e-05 0)
(0.13655405 4.6879257e-05 0)
(0.23159545 0.00011390068 0)
(0.36138709 0.00019769589 0)
(0.5336697 0.00023903581 0)
(0.75344345 0.00020560275 0)
(1.0184882 0.000113617 0)
(1.3134639 7.4321208e-05 0)
(1.6053464 7.9542558e-05 0)
(1.8455118 7.0528477e-05 0)
(1.9825245 2.7839365e-05 0)
(1.9825245 -2.7810959e-05 0)
(1.8455118 -7.0501588e-05 0)
(1.6053464 -7.9517841e-05 0)
(1.3134639 -7.4299137e-05 0)
(1.0184882 -0.00011359801 0)
(0.75344346 -0.00020558649 0)
(0.53366971 -0.00023902255 0)
(0.3613871 -0.00019768564 0)
(0.23159545 -0.00011389281 0)
(0.13655405 -4.6874911e-05 0)
(0.068327408 -1.271945e-05 0)
(0.020018443 -2.0917944e-06 0)
(0.019966547 7.0073039e-07 0)
(0.068159232 4.688597e-06 0)
(0.13624021 1.9356798e-05 0)
(0.2311194 5.6458367e-05 0)
(0.36078094 0.00013444767 0)
(0.53306294 0.00025829545 0)
(0.75295638 0.00035345097 0)
(1.0181104 0.00036912628 0)
(1.313184 0.00030759708 0)
(1.6051633 0.00022778249 0)
(1.8453996 0.00014557153 0)
(1.9824491 5.0010753e-05 0)
(1.9824491 -4.9983245e-05 0)
(1.8453996 -0.00014554596 0)
(1.6051633 -0.00022776034 0)
(1.313184 -0.00030757995 0)
(1.0181104 -0.0003691153 0)
(0.75295638 -0.00035344753 0)
(0.53306294 -0.00025829725 0)
(0.36078093 -0.00013445095 0)
(0.2311194 -5.6461324e-05 0)
(0.13624021 -1.93585e-05 0)
(0.068159232 -4.6899198e-06 0)
(0.019966547 -7.0069935e-07 0)
(0.019942204 2.907283e-07 0)
(0.068078703 1.9883363e-06 0)
(0.13608628 8.2370931e-06 0)
(0.230877 2.3701097e-05 0)
(0.36044745 5.688371e-05 0)
(0.5326645 0.0001230718 0)
(0.75256879 0.00022682268 0)
(1.017808 0.00032272891 0)
(1.3129044 0.00034573342 0)
(1.604912 0.00030731029 0)
(1.8452029 0.00021096509 0)
(1.9822898 7.4627557e-05 0)
(1.9822898 -7.4600994e-05 0)
(1.8452029 -0.00021093967 0)
(1.604912 -0.00030728712 0)
(1.3129044 -0.00034571276 0)
(1.017808 -0.00032271115 0)
(0.7525688 -0.00022680792 0)
(0.5326645 -0.00012305958 0)
(0.36044746 -5.6874295e-05 0)
(0.230877 -2.3694339e-05 0)
(0.13608629 -8.2335665e-06 0)
(0.068078705 -1.9855972e-06 0)
(0.019942204 -2.9075969e-07 0)
(0.019933132 1.7183466e-07 0)
(0.068047756 1.1931742e-06 0)
(0.13602489 5.0644473e-06 0)
(0.23077536 1.4968059e-05 0)
(0.360299 3.6219948e-05 0)
(0.53247922 7.6946629e-05 0)
(0.75239429 0.00014714231 0)
(1.0177222 0.0002374967 0)
(1.3129292 0.00028526417 0)
(1.6049747 0.00027442457 0)
(1.8452865 0.00019645728 0)
(1.9823834 7.1188988e-05 0)
(1.9823834 -7.1164722e-05 0)
(1.8452865 -0.00019643442 0)
(1.6049747 -0.00027440453 0)
(1.3129292 -0.00028524811 0)
(1.0177222 -0.00023748537 0)
(0.75239429 -0.0001471365 0)
(0.53247922 -7.6945938e-05 0)
(0.36029899 -3.6223023e-05 0)
(0.23077536 -1.4972963e-05 0)
(0.13602489 -5.0677528e-06 0)
(0.068047757 -1.1968459e-06 0)
(0.019933132 -1.7170766e-07 0)
(0.0199234 1.5594569e-07 0)
(0.068015508 1.0676464e-06 0)
(0.13596286 4.4913536e-06 0)
(0.23067608 1.3192354e-05 0)
(0.36015775 3.1855329e-05 0)
(0.5323018 6.6958616e-05 0)
(0.75221431 0.00012412169 0)
(1.0176105 0.00019917536 0)
(1.3129358 0.00025491512 0)
(1.6050904 0.00024596038 0)
(1.8454579 0.00018128897 0)
(1.9825798 6.6559342e-05 0)
(1.9825798 -6.6537526e-05 0)
(1.8454579 -0.00018126831 0)
(1.6050904 -0.00024594209 0)
(1.3129358 -0.00025489945 0)
(1.0176105 -0.00019916332 0)
(0.75221431 -0.00012411244 0)
(0.53230179 -6.6952644e-05 0)
(0.36015774 -3.1852745e-05 0)
(0.23067607 -1.3192539e-05 0)
(0.13596286 -4.4919773e-06 0)
(0.068015507 -1.0692915e-06 0)
(0.0199234 -1.558433e-07 0)
(0.019915698 1.2763644e-07 0)
(0.067989795 8.7649108e-07 0)
(0.13591294 3.6947404e-06 0)
(0.23059504 1.0899628e-05 0)
(0.36003989 2.6612061e-05 0)
(0.53214755 5.7237e-05 0)
(0.75204135 0.00010911191 0)
(1.0174723 0.00017936943 0)
(1.3128927 0.0002380299 0)
(1.6051414 0.00023747457 0)
(1.8455877 0.0001775149 0)
(1.9827514 6.5547994e-05 0)
(1.9827514 -6.5530904e-05 0)
(1.8455877 -0.00017749854 0)
(1.6051414 -0.00023745982 0)
(1.3128926 -0.00023801761 0)
(1.0174723 -0.0001793607 0)
(0.75204134 -0.00010910718 0)
(0.53214754 -5.7236448e-05 0)
(0.36003988 -2.6614755e-05 0)
(0.23059503 -1.0904098e-05 0)
(0.13591293 -3.6977011e-06 0)
(0.067989793 -8.8000194e-07 0)
(0.019915697 -1.2750917e-07 0)
(0.019909218 1.046429e-07 0)
(0.067968144 7.2403308e-07 0)
(0.13587084 3.0529882e-06 0)
(0.23052655 9.0130846e-06 0)
(0.35993986 2.2000804e-05 0)
(0.53201544 4.7474005e-05 0)
(0.75188903 9.2014838e-05 0)
(1.0173342 0.00015618385 0)
(1.3128278 0.00021700049 0)
(1.6051595 0.00022710163 0)
(1.8456699 0.00017233243 0)
(1.982868 6.4154012e-05 0)
(1.982868 -6.4141761e-05 0)
(1.8456699 -0.00017232079 0)
(1.6051595 -0.00022709107 0)
(1.3128278 -0.00021699169 0)
(1.0173341 -0.00015617659 0)
(0.75188902 -9.2008918e-05 0)
(0.53201542 -4.7469139e-05 0)
(0.35993985 -2.1997049e-05 0)
(0.23052654 -9.0102581e-06 0)
(0.13587084 -3.051525e-06 0)
(0.067968141 -7.2252386e-07 0)
(0.019909217 -1.0471386e-07 0)
(0.019903972 8.6029859e-08 0)
(0.067950555 6.0002822e-07 0)
(0.13583649 2.5299862e-06 0)
(0.23047031 7.4954687e-06 0)
(0.35985693 1.8378843e-05 0)
(0.53190437 3.9836562e-05 0)
(0.75175838 7.7712086e-05 0)
(1.0172122 0.00013432491 0)
(1.3127614 0.00019323565 0)
(1.6051772 0.00021058655 0)
(1.8457533 0.00016273339 0)
(1.9829863 6.1087999e-05 0)
(1.9829863 -6.1080923e-05 0)
(1.8457533 -0.00016272687 0)
(1.6051772 -0.00021058039 0)
(1.3127613 -0.00019323221 0)
(1.0172122 -0.00013432387 0)
(0.75175836 -7.7712499e-05 0)
(0.53190436 -3.9835774e-05 0)
(0.35985692 -1.83754e-05 0)
(0.2304703 -7.4895643e-06 0)
(0.13583649 -2.5260007e-06 0)
(0.067950552 -5.9474239e-07 0)
(0.019903971 -8.6248534e-08 0)
(0.019899543 7.3197395e-08 0)
(0.067935689 5.129986e-07 0)
(0.13580742 2.1601164e-06 0)
(0.23042259 6.4076043e-06 0)
(0.35978627 1.5750736e-05 0)
(0.53180891 3.4278811e-05 0)
(0.7516441 6.7204021e-05 0)
(1.0171021 0.00011722922 0)
(1.3126976 0.00017262452 0)
(1.6051929 0.00019308955 0)
(1.8458371 0.00015219946 0)
(1.9831061 5.7545466e-05 0)
(1.9831061 -5.7544596e-05 0)
(1.8458371 -0.00015219869 0)
(1.6051928 -0.0001930888 0)
(1.3126976 -0.00017262311 0)
(1.0171021 -0.00011722873 0)
(0.75164409 -6.7204354e-05 0)
(0.5318089 -3.4278359e-05 0)
(0.35978626 -1.574802e-05 0)
(0.23042259 -6.4022699e-06 0)
(0.13580742 -2.156475e-06 0)
(0.067935687 -5.0769649e-07 0)
(0.019899543 -7.3444337e-08 0)
(0.019895721 6.3600255e-08 0)
(0.06792285 4.4536899e-07 0)
(0.13578228 1.8788401e-06 0)
(0.23038125 5.5796151e-06 0)
(0.35972484 1.3740357e-05 0)
(0.53172536 2.9998024e-05 0)
(0.75154265 5.9110251e-05 0)
(1.0170011 0.00010388628 0)
(1.3126345 0.00015540062 0)
(1.6052015 0.00017849306 0)
(1.8459125 0.00014271321 0)
(1.9832185 5.4327977e-05 0)
(1.9832185 -5.4333955e-05 0)
(1.8459125 -0.00014271932 0)
(1.6052015 -0.00017849941 0)
(1.3126344 -0.00015540549 0)
(1.0170011 -0.00010388962 0)
(0.75154263 -5.9111121e-05 0)
(0.53172535 -2.9995992e-05 0)
(0.35972483 -1.3735697e-05 0)
(0.23038125 -5.572965e-06 0)
(0.13578228 -1.8746284e-06 0)
(0.067922851 -4.3950644e-07 0)
(0.019895722 -6.3924725e-08 0)
(0.019892371 5.6015211e-08 0)
(0.067911587 3.9114344e-07 0)
(0.13576021 1.6549867e-06 0)
(0.23034491 4.9199458e-06 0)
(0.35967069 1.2132263e-05 0)
(0.53165137 2.6541603e-05 0)
(0.75145191 5.2496835e-05 0)
(1.0169086 9.287266e-05 0)
(1.3125728 0.00014061077 0)
(1.605205 0.00016529115 0)
(1.8459798 0.00013398413 0)
(1.9833221 5.138197e-05 0)
(1.9833221 -5.1393327e-05 0)
(1.8459798 -0.00013399528 0)
(1.605205 -0.00016530151 0)
(1.3125728 -0.00014062187 0)
(1.0169086 -9.2883207e-05 0)
(0.75145189 -5.2505681e-05 0)
(0.53165135 -2.6546666e-05 0)
(0.35967068 -1.2132585e-05 0)
(0.2303449 -4.9162382e-06 0)
(0.13576021 -1.6519938e-06 0)
(0.067911588 -3.8637667e-07 0)
(0.019892371 -5.6263741e-08 0)
(0.019889403 4.9840965e-08 0)
(0.067901607 3.4654383e-07 0)
(0.13574064 1.4715799e-06 0)
(0.23031264 4.379072e-06 0)
(0.35962253 1.0811785e-05 0)
(0.53158532 2.3690524e-05 0)
(0.7513703 4.6982394e-05 0)
(1.016824 8.3542918e-05 0)
(1.3125139 0.00012773208 0)
(1.6052051 0.00015292643 0)
(1.8460415 0.00012581255 0)
(1.9834196 4.8608138e-05 0)
(1.9834196 -4.8624932e-05 0)
(1.8460415 -0.00012582828 0)
(1.6052051 -0.00015293951 0)
(1.3125139 -0.00012774269 0)
(1.016824 -8.355155e-05 0)
(0.75137029 -4.6990416e-05 0)
(0.53158532 -2.3698123e-05 0)
(0.35962253 -1.0817959e-05 0)
(0.23031264 -4.383097e-06 0)
(0.13574064 -1.4735508e-06 0)
(0.067901607 -3.4776365e-07 0)
(0.019889403 -4.9822178e-08 0)
(0.019886752 4.4767938e-08 0)
(0.067892685 3.0917827e-07 0)
(0.13572314 1.3193173e-06 0)
(0.23028376 3.9299117e-06 0)
(0.35957936 9.714036e-06 0)
(0.53152593 2.1314168e-05 0)
(0.75129649 4.2358488e-05 0)
(1.0167466 7.5616428e-05 0)
(1.3124581 0.00011653639 0)
(1.6052027 0.00014169047 0)
(1.8460982 0.00011826134 0)
(1.9835117 4.6020841e-05 0)
(1.9835117 -4.6042688e-05 0)
(1.8460982 -0.00011828198 0)
(1.6052027 -0.00014170959 0)
(1.3124581 -0.0001165508 0)
(1.0167465 -7.5625296e-05 0)
(0.75129648 -4.2361666e-05 0)
(0.53152593 -2.1313908e-05 0)
(0.35957936 -9.7129219e-06 0)
(0.23028376 -3.9294534e-06 0)
(0.13572314 -1.3192511e-06 0)
(0.067892688 -3.0948687e-07 0)
(0.019886753 -4.4788283e-08 0)
(0.019884363 4.0496475e-08 0)
(0.067884645 2.7805571e-07 0)
(0.13570735 1.1916572e-06 0)
(0.2302577 3.5526442e-06 0)
(0.35954036 8.789938e-06 0)
(0.53147217 1.9307976e-05 0)
(0.75122935 3.8438092e-05 0)
(1.0166753 6.8835253e-05 0)
(1.3124053 0.00010677724 0)
(1.6051983 0.00013154335 0)
(1.8461504 0.00011131709 0)
(1.9835985 4.3619125e-05 0)
(1.9835985 -4.3643207e-05 0)
(1.8461504 -0.00011133972 0)
(1.6051983 -0.00013156415 0)
(1.3124053 -0.00010679653 0)
(1.0166753 -6.885206e-05 0)
(0.75122935 -3.8451523e-05 0)
(0.53147216 -1.9317958e-05 0)
(0.35954036 -8.7972344e-06 0)
(0.2302577 -3.5582991e-06 0)
(0.13570736 -1.1946716e-06 0)
(0.067884647 -2.8112648e-07 0)
(0.019884364 -4.0402506e-08 0)
(0.019882196 3.6834221e-08 0)
(0.067877351 2.5236803e-07 0)
(0.13569303 1.0835528e-06 0)
(0.23023404 3.2317912e-06 0)
(0.35950491 8.0008959e-06 0)
(0.53142321 1.7589325e-05 0)
(0.75116798 3.5065629e-05 0)
(1.0166096 6.2960837e-05 0)
(1.3123554 9.8197142e-05 0)
(1.6051923 0.00012232473 0)
(1.8461982 0.00010490177 0)
(1.9836803 4.1377811e-05 0)
(1.9836803 -4.1402871e-05 0)
(1.8461982 -0.00010492456 0)
(1.6051923 -0.0001223435 0)
(1.3123554 -9.8212003e-05 0)
(1.0166096 -6.2972225e-05 0)
(0.75116799 -3.5075134e-05 0)
(0.53142322 -1.7598509e-05 0)
(0.35950491 -8.0102574e-06 0)
(0.23023403 -3.241155e-06 0)
(0.13569303 -1.0890741e-06 0)
(0.06787735 -2.5880203e-07 0)
(0.019882196 -3.6545791e-08 0)
(0.01988022 3.3663375e-08 0)
(0.067870698 2.3080996e-07 0)
(0.13567996 9.9064759e-07 0)
(0.23021244 2.9550858e-06 0)
(0.35947253 7.3182364e-06 0)
(0.53137843 1.6098945e-05 0)
(0.75111166 3.2131713e-05 0)
(1.0165488 5.7820526e-05 0)
(1.3123083 9.0596941e-05 0)
(1.6051852 0.00011394481 0)
(1.8462424 9.8944458e-05 0)
(1.9837576 3.9276126e-05 0)
(1.9837576 -3.9301684e-05 0)
(1.8462424 -9.8968089e-05 0)
(1.6051852 -0.00011396504 0)
(1.3123083 -9.0611987e-05 0)
(1.0165488 -5.7828646e-05 0)
(0.75111166 -3.2133294e-05 0)
(0.53137844 -1.6097524e-05 0)
(0.35947254 -7.31754e-06 0)
(0.23021244 -2.9569746e-06 0)
(0.13567997 -9.9229161e-07 0)
(0.0678707 -2.3414288e-07 0)
(0.019880221 -3.3496996e-08 0)
(0.01987841 3.0850385e-08 0)
(0.067864603 2.1263636e-07 0)
(0.13566799 9.0993697e-07 0)
(0.23019264 2.7140416e-06 0)
(0.35944283 6.7219889e-06 0)
(0.5313373 1.4794825e-05 0)
(0.75105979 2.9558006e-05 0)
(1.0164925 5.3289397e-05 0)
(1.3122638 8.3826172e-05 0)
(1.6051773 0.00010631582 0)
(1.8462831 9.3392487e-05 0)
(1.9838307 3.7300484e-05 0)
(1.9838307 -3.7324066e-05 0)
(1.8462831 -9.341441e-05 0)
(1.6051773 -0.0001063357 0)
(1.3122638 -8.3843595e-05 0)
(1.0164925 -5.3303526e-05 0)
(0.75105979 -2.9567855e-05 0)
(0.5313373 -1.4800992e-05 0)
(0.35944284 -6.7263191e-06 0)
(0.23019264 -2.7180736e-06 0)
(0.13566799 -9.1226775e-07 0)
(0.067864605 -2.1557419e-07 0)
(0.019878411 -3.0728985e-08 0)
(0.019876746 2.837137e-08 0)
(0.067858997 1.9650294e-07 0)
(0.13565697 8.3875271e-07 0)
(0.23017442 2.5015736e-06 0)
(0.35941549 6.1965133e-06 0)
(0.53129939 1.364445e-05 0)
(0.75101186 2.728308e-05 0)
(1.0164402 4.9267896e-05 0)
(1.312222 7.7761797e-05 0)
(1.6051688 9.9347955e-05 0)
(1.8463207 8.8202925e-05 0)
(1.9838998 3.543833e-05 0)
(1.9838998 -3.5459536e-05 0)
(1.8463207 -8.8221886e-05 0)
(1.6051688 -9.936286e-05 0)
(1.312222 -7.7773586e-05 0)
(1.0164402 -4.927703e-05 0)
(0.75101187 -2.7290771e-05 0)
(0.53129939 -1.3651268e-05 0)
(0.35941549 -6.2025376e-06 0)
(0.23017442 -2.5068662e-06 0)
(0.13565697 -8.4170532e-07 0)
(0.067858995 -1.9984421e-07 0)
(0.019876745 -2.8205705e-08 0)
(0.01987521 2.6184939e-08 0)
(0.067853822 1.8239826e-07 0)
(0.1356468 7.7587436e-07 0)
(0.2301576 2.3134313e-06 0)
(0.35939022 5.7302434e-06 0)
(0.53126432 1.2622157e-05 0)
(0.75096745 2.5257585e-05 0)
(1.0163914 4.5674972e-05 0)
(1.3121824 7.2301473e-05 0)
(1.6051599 9.2964645e-05 0)
(1.8463555 8.3340234e-05 0)
(1.9839652 3.3678923e-05 0)
(1.9839652 -3.3699269e-05 0)
(1.8463555 -8.3358961e-05 0)
(1.6051599 -9.2980452e-05 0)
(1.3121824 -7.2312626e-05 0)
(1.0163914 -4.5680419e-05 0)
(0.75096745 -2.5257974e-05 0)
(0.53126433 -1.2620211e-05 0)
(0.35939022 -5.7286462e-06 0)
(0.2301576 -2.3134794e-06 0)
(0.1356468 -7.7620372e-07 0)
(0.067853821 -1.8381524e-07 0)
(0.019875209 -2.6080983e-08 0)
(0.019873788 2.422463e-08 0)
(0.067849031 1.7021042e-07 0)
(0.13563739 7.2005523e-07 0)
(0.23014201 2.1458435e-06 0)
(0.35936681 5.3136802e-06 0)
(0.5312318 1.1707339e-05 0)
(0.75092619 2.3441988e-05 0)
(1.016346 4.2444951e-05 0)
(1.3121452 6.7360147e-05 0)
(1.6051509 8.7098579e-05 0)
(1.8463879 7.8774767e-05 0)
(1.9840271 3.2013686e-05 0)
(1.9840271 -3.2032871e-05 0)
(1.8463878 -7.8792951e-05 0)
(1.6051509 -8.7115938e-05 0)
(1.3121452 -6.7375355e-05 0)
(1.016346 -4.2456934e-05 0)
(0.75092619 -2.3449319e-05 0)
(0.5312318 -1.1709925e-05 0)
(0.3593668 -5.3130814e-06 0)
(0.23014201 -2.1440539e-06 0)
(0.13563739 -7.1870795e-07 0)
(0.067849032 -1.6884941e-07 0)
(0.019873788 -2.4281421e-08 0)
(0.019872468 2.2445811e-08 0)
(0.067844585 1.5929973e-07 0)
(0.13562865 6.6985879e-07 0)
(0.23012755 1.9951905e-06 0)
(0.35934506 4.9390986e-06 0)
(0.53120158 1.0883999e-05 0)
(0.75088779 2.1805455e-05 0)
(1.0163035 3.9525517e-05 0)
(1.31211 6.2867996e-05 0)
(1.6051418 8.1692135e-05 0)
(1.8464179 7.4481909e-05 0)
(1.9840857 3.0434617e-05 0)
(1.9840857 -3.0453264e-05 0)
(1.8464179 -7.4499617e-05 0)
(1.6051418 -8.170734e-05 0)
(1.31211 -6.2881605e-05 0)
(1.0163035 -3.9537338e-05 0)
(0.75088779 -2.1815539e-05 0)
(0.53120159 -1.0891571e-05 0)
(0.35934506 -4.9438542e-06 0)
(0.23012754 -1.9975505e-06 0)
(0.13562864 -6.7075134e-07 0)
(0.067844582 -1.5972243e-07 0)
(0.019872467 -2.2417276e-08 0)
(0.01987124 2.086464e-08 0)
(0.067840448 1.487091e-07 0)
(0.13562051 6.2390566e-07 0)
(0.23011408 1.85816e-06 0)
(0.35932482 4.5999237e-06 0)
(0.53117343 1.0139062e-05 0)
(0.75085197 2.0323223e-05 0)
(1.0162638 3.6874635e-05 0)
(1.3120768 5.8767737e-05 0)
(1.6051327 7.6696507e-05 0)
(1.8464458 7.0440239e-05 0)
(1.9841412 2.8934654e-05 0)
(1.9841412 -2.8954954e-05 0)
(1.8464458 -7.0460112e-05 0)
(1.6051327 -7.6715695e-05 0)
(1.3120768 -5.8783504e-05 0)
(1.0162638 -3.6885763e-05 0)
(0.75085197 -2.0329076e-05 0)
(0.53117344 -1.0140195e-05 0)
(0.35932482 -4.5980115e-06 0)
(0.23011408 -1.8550019e-06 0)
(0.13562051 -6.2178474e-07 0)
(0.067840446 -1.464389e-07 0)
(0.01987124 -2.0943257e-08 0)
(0.019870096 1.9462946e-08 0)
(0.067836593 1.3843642e-07 0)
(0.13561293 5.8168238e-07 0)
(0.23010153 1.732958e-06 0)
(0.35930594 4.2912958e-06 0)
(0.53114717 9.46179e-06 0)
(0.7508185 1.8974637e-05 0)
(1.0162266 3.4457557e-05 0)
(1.3120455 5.501186e-05 0)
(1.6051237 7.2070109e-05 0)
(1.8464718 6.6632769e-05 0)
(1.9841938 2.7509267e-05 0)
(1.9841938 -2.7530836e-05 0)
(1.8464718 -6.6654737e-05 0)
(1.6051237 -7.2091999e-05 0)
(1.3120455 -5.503172e-05 0)
(1.0162266 -3.4472832e-05 0)
(0.75081851 -1.8983719e-05 0)
(0.53114717 -9.4653076e-06 0)
(0.35930595 -4.2913107e-06 0)
(0.23010154 -1.7314058e-06 0)
(0.13561293 -5.8048731e-07 0)
(0.067836594 -1.3677887e-07 0)
(0.019870097 -1.957666e-08 0)
(0.019869028 1.8205328e-08 0)
(0.067832994 1.2863921e-07 0)
(0.13560586 5.4286452e-07 0)
(0.23008981 1.6183061e-06 0)
(0.35928831 4.0094747e-06 0)
(0.53112262 8.8435739e-06 0)
(0.7507872 1.7742688e-05 0)
(1.0161917 3.2245251e-05 0)
(1.312016 5.156007e-05 0)
(1.6051149 6.7776955e-05 0)
(1.846496 6.3042221e-05 0)
(1.9842437 2.6153232e-05 0)
(1.9842437 -2.617523e-05 0)
(1.846496 -6.3064844e-05 0)
(1.6051149 -6.7799492e-05 0)
(1.312016 -5.1580665e-05 0)
(1.0161917 -3.2262e-05 0)
(0.75078721 -1.7754576e-05 0)
(0.53112263 -8.8508002e-06 0)
(0.35928832 -4.0131537e-06 0)
(0.23008982 -1.6195358e-06 0)
(0.13560586 -5.4321342e-07 0)
(0.067832994 -1.2806542e-07 0)
(0.019869029 -1.8301521e-08 0)
(0.01986803 1.7069796e-08 0)
(0.067829629 1.1933489e-07 0)
(0.13559924 5.0709971e-07 0)
(0.23007885 1.5130424e-06 0)
(0.35927182 3.7513596e-06 0)
(0.53109965 8.2774546e-06 0)
(0.75075788 1.6613553e-05 0)
(1.0161589 3.0213815e-05 0)
(1.311988 4.8378799e-05 0)
(1.6051063 6.3785673e-05 0)
(1.8465186 5.965639e-05 0)
(1.9842909 2.4863363e-05 0)
(1.9842909 -2.4884259e-05 0)
(1.8465187 -5.967786e-05 0)
(1.6051063 -6.3807128e-05 0)
(1.3119881 -4.839763e-05 0)
(1.016159 -3.0228268e-05 0)
(0.7507579 -1.6623107e-05 0)
(0.53109967 -8.2825593e-06 0)
(0.35927183 -3.7530856e-06 0)
(0.23007886 -1.5126558e-06 0)
(0.13559924 -5.0646746e-07 0)
(0.06782963 -1.1831403e-07 0)
(0.01986803 -1.7105104e-08 0)
(0.019867096 1.605259e-08 0)
(0.06782648 1.1021468e-07 0)
(0.13559304 4.7376978e-07 0)
(0.23006859 1.4155797e-06 0)
(0.35925638 3.513589e-06 0)
(0.53107814 7.7567517e-06 0)
(0.75073038 1.5574857e-05 0)
(1.0161281 2.8342485e-05 0)
(1.3119617 4.5438792e-05 0)
(1.6050979 6.0069242e-05 0)
(1.8465398 5.6459588e-05 0)
(1.9843356 2.3635274e-05 0)
(1.9843356 -2.3652814e-05 0)
(1.8465398 -5.647764e-05 0)
(1.6050979 -6.0086846e-05 0)
(1.3119617 -4.5453439e-05 0)
(1.0161282 -2.8352059e-05 0)
(0.7507304 -1.5579973e-05 0)
(0.53107816 -7.7601269e-06 0)
(0.3592564 -3.5170218e-06 0)
(0.2300686 -1.4194673e-06 0)
(0.13559305 -4.7622737e-07 0)
(0.067826483 -1.1302695e-07 0)
(0.019867097 -1.596505e-08 0)
(0.01986622 1.5110013e-08 0)
(0.067823529 1.0191404e-07 0)
(0.13558724 4.4316417e-07 0)
(0.23005898 1.3259009e-06 0)
(0.35924191 3.2945521e-06 0)
(0.53105796 7.2767182e-06 0)
(0.75070458 1.461659e-05 0)
(1.0160992 2.6613821e-05 0)
(1.3119368 4.2715345e-05 0)
(1.6050897 5.6602818e-05 0)
(1.8465596 5.3443891e-05 0)
(1.984378 2.24675e-05 0)
(1.984378 -2.2478235e-05 0)
(1.8465596 -5.3455356e-05 0)
(1.6050898 -5.6614614e-05 0)
(1.3119368 -4.2725926e-05 0)
(1.0160992 -2.6621033e-05 0)
(0.75070459 -1.4619864e-05 0)
(0.53105797 -7.2779809e-06 0)
(0.35924192 -3.2958579e-06 0)
(0.23005899 -1.3280811e-06 0)
(0.13558725 -4.4473898e-07 0)
(0.067823533 -1.0375707e-07 0)
(0.019866222 -1.5099985e-08 0)
(0.019865399 1.4215472e-08 0)
(0.067820761 9.5136393e-08 0)
(0.1355818 4.1574364e-07 0)
(0.23004995 1.2444399e-06 0)
(0.35922832 3.0934598e-06 0)
(0.53103901 6.8340992e-06 0)
(0.75068033 1.3731122e-05 0)
(1.016072 2.5013593e-05 0)
(1.3119132 4.0186968e-05 0)
(1.6050819 5.3365603e-05 0)
(1.8465782 5.0593024e-05 0)
(1.9844182 2.1355118e-05 0)
(1.9844182 -2.1355537e-05 0)
(1.8465782 -5.0593231e-05 0)
(1.6050819 -5.3366195e-05 0)
(1.3119132 -4.0187468e-05 0)
(1.016072 -2.5014622e-05 0)
(0.75068035 -1.3733385e-05 0)
(0.53103902 -6.8375648e-06 0)
(0.35922833 -3.0973828e-06 0)
(0.23004996 -1.2483067e-06 0)
(0.1355818 -4.179514e-07 0)
(0.067820762 -9.782381e-08 0)
(0.019865399 -1.4061759e-08 0)
(0.019864628 1.3378571e-08 0)
(0.067818161 8.9327051e-08 0)
(0.13557668 3.9073292e-07 0)
(0.23004148 1.1695784e-06 0)
(0.35921556 2.9075636e-06 0)
(0.53102121 6.4241794e-06 0)
(0.75065754 1.2910405e-05 0)
(1.0160463 2.3528814e-05 0)
(1.311891 3.7835544e-05 0)
(1.6050743 5.0337747e-05 0)
(1.8465955 4.7902858e-05 0)
(1.9844563 2.029694e-05 0)
(1.9844563 -2.0286271e-05 0)
(1.8465955 -4.7891529e-05 0)
(1.6050743 -5.03246e-05 0)
(1.311891 -3.7821632e-05 0)
(1.0160463 -2.3515405e-05 0)
(0.75065755 -1.2900703e-05 0)
(0.53102122 -6.4203081e-06 0)
(0.35921557 -2.9089655e-06 0)
(0.23004148 -1.1746058e-06 0)
(0.13557668 -3.9429384e-07 0)
(0.067818161 -9.493272e-08 0)
(0.019864628 -1.3008894e-08 0)
(0.019863903 1.255546e-08 0)
(0.067815718 8.4578067e-08 0)
(0.13557187 3.6791988e-07 0)
(0.23003351 1.1007036e-06 0)
(0.35920356 2.7353644e-06 0)
(0.53100447 6.0436398e-06 0)
(0.75063609 1.2147812e-05 0)
(1.0160221 2.2147725e-05 0)
(1.3118699 3.5643602e-05 0)
(1.605067 4.7502727e-05 0)
(1.8466119 4.5356358e-05 0)
(1.9844924 1.9287661e-05 0)
(1.9844924 -1.9265175e-05 0)
(1.8466119 -4.5333308e-05 0)
(1.605067 -4.7480128e-05 0)
(1.3118699 -3.562148e-05 0)
(1.0160221 -2.2127455e-05 0)
(0.75063609 -1.2131101e-05 0)
(0.53100447 -6.0322207e-06 0)
(0.35920357 -2.7297658e-06 0)
(0.23003352 -1.1003794e-06 0)
(0.13557188 -3.6867108e-07 0)
(0.067815719 -8.7543756e-08 0)
(0.019863904 -1.2347935e-08 0)
(0.019863222 1.1779588e-08 0)
(0.06781342 8.023954e-08 0)
(0.13556735 3.4674339e-07 0)
(0.23002602 1.0367257e-06 0)
(0.35919228 2.5753101e-06 0)
(0.53098871 5.6897616e-06 0)
(0.75061589 1.1438074e-05 0)
(1.0159994 2.0860888e-05 0)
(1.31185 3.3597309e-05 0)
(1.60506 4.484365e-05 0)
(1.8466272 4.2951914e-05 0)
(1.9845266 1.8327348e-05 0)
(1.9845266 -1.8293522e-05 0)
(1.8466272 -4.2917166e-05 0)
(1.60506 -4.4809028e-05 0)
(1.31185 -3.3565749e-05 0)
(1.0159994 -2.0836168e-05 0)
(0.75061588 -1.1422203e-05 0)
(0.5309887 -5.6821635e-06 0)
(0.35919227 -2.574092e-06 0)
(0.23002601 -1.0396885e-06 0)
(0.13556735 -3.4925961e-07 0)
(0.067813418 -8.4259494e-08 0)
(0.019863221 -1.1551485e-08 0)
(0.01986258 1.1065265e-08 0)
(0.067811256 7.6221719e-08 0)
(0.1355631 3.2703754e-07 0)
(0.23001897 9.7709284e-07 0)
(0.35918165 2.4259907e-06 0)
(0.53097388 5.3596322e-06 0)
(0.75059686 1.0775914e-05 0)
(1.0159779 1.9659435e-05 0)
(1.3118312 3.1683293e-05 0)
(1.6050532 4.2347739e-05 0)
(1.8466416 4.0673304e-05 0)
(1.9845591 1.7409217e-05 0)
(1.9845591 -1.736879e-05 0)
(1.8466416 -4.0631712e-05 0)
(1.6050532 -4.230504e-05 0)
(1.3118312 -3.1643187e-05 0)
(1.0159779 -1.9627304e-05 0)
(0.75059684 -1.0755135e-05 0)
(0.53097385 -5.3490866e-06 0)
(0.35918163 -2.4224251e-06 0)
(0.23001895 -9.7746166e-07 0)
(0.13556308 -3.2793237e-07 0)
(0.067811249 -7.8440193e-08 0)
(0.019862578 -1.0861357e-08 0)
(0.019861975 1.0383982e-08 0)
(0.067809218 7.2799433e-08 0)
(0.13555909 3.0888656e-07 0)
(0.23001232 9.2175493e-07 0)
(0.35917163 2.2866512e-06 0)
(0.53095989 5.0510136e-06 0)
(0.75057892 1.0156631e-05 0)
(1.0159576 1.8535418e-05 0)
(1.3118134 2.9890433e-05 0)
(1.6050468 4.0001355e-05 0)
(1.8466551 3.8517592e-05 0)
(1.9845898 1.653341e-05 0)
(1.9845898 -1.6492079e-05 0)
(1.8466551 -3.8475392e-05 0)
(1.6050467 -3.9958469e-05 0)
(1.3118134 -2.9849195e-05 0)
(1.0159576 -1.8500107e-05 0)
(0.75057889 -1.0130221e-05 0)
(0.53095986 -5.0341152e-06 0)
(0.35917161 -2.277858e-06 0)
(0.2300123 -9.1861024e-07 0)
(0.13555907 -3.0809159e-07 0)
(0.067809211 -7.3517331e-08 0)
(0.019861973 -1.026772e-08 0)
(0.019861406 9.7401944e-09 0)
(0.067807296 6.9666929e-08 0)
(0.1355553 2.9195111e-07 0)
(0.23000605 8.7006774e-07 0)
(0.35916219 2.1563664e-06 0)
(0.5309467 4.7622792e-06 0)
(0.750562 9.576942e-06 0)
(1.0159385 1.748253e-05 0)
(1.3117966 2.8208852e-05 0)
(1.6050406 3.779396e-05 0)
(1.8466678 3.6477566e-05 0)
(1.9846189 1.5696749e-05 0)
(1.9846189 -1.566062e-05 0)
(1.8466678 -3.64412e-05 0)
(1.6050406 -3.7758384e-05 0)
(1.3117965 -2.8176564e-05 0)
(1.0159384 -1.7456838e-05 0)
(0.75056194 -9.5582859e-06 0)
(0.53094666 -4.7494635e-06 0)
(0.35916215 -2.1480261e-06 0)
(0.23000603 -8.6464968e-07 0)
(0.13555529 -2.8937226e-07 0)
(0.067807291 -6.7050838e-08 0)
(0.019861404 -9.8740127e-09 0)
(0.019860868 9.1598116e-09 0)
(0.067805485 6.627396e-08 0)
(0.13555174 2.7570668e-07 0)
(0.23000014 8.209894e-07 0)
(0.35915328 2.0336582e-06 0)
(0.53093427 4.4911422e-06 0)
(0.75054603 9.0331546e-06 0)
(1.0159204 1.6494825e-05 0)
(1.3117807 2.6629437e-05 0)
(1.6050347 3.5715591e-05 0)
(1.8466798 3.4538452e-05 0)
(1.9846465 1.4895817e-05 0)
(1.9846465 -1.4870367e-05 0)
(1.8466798 -3.4512623e-05 0)
(1.6050347 -3.5689135e-05 0)
(1.3117806 -2.6606277e-05 0)
(1.0159203 -1.6479217e-05 0)
(0.75054596 -9.0258624e-06 0)
(0.53093421 -4.4889517e-06 0)
(0.35915324 -2.0327223e-06 0)
(0.23000011 -8.1871792e-07 0)
(0.13555172 -2.741605e-07 0)
(0.067805475 -6.3007087e-08 0)
(0.019860865 -9.3621874e-09 0)
(0.019860361 8.6011896e-09 0)
(0.067803775 6.3588358e-08 0)
(0.13554838 2.6097447e-07 0)
(0.22999456 7.7580676e-07 0)
(0.35914488 1.9193963e-06 0)
(0.53092252 4.237444e-06 0)
(0.75053095 8.5233318e-06 0)
(1.0159033 1.5568098e-05 0)
(1.3117656 2.5146528e-05 0)
(1.6050291 3.3757746e-05 0)
(1.8466911 3.2714082e-05 0)
(1.9846726 1.4134346e-05 0)
(1.9846726 -1.4126541e-05 0)
(1.846691 -3.2705316e-05 0)
(1.605029 -3.3747156e-05 0)
(1.3117655 -2.5134437e-05 0)
(1.0159032 -1.5556479e-05 0)
(0.75053088 -8.5136066e-06 0)
(0.53092247 -4.2298602e-06 0)
(0.35914483 -1.9128642e-06 0)
(0.22999453 -7.6877017e-07 0)
(0.13554836 -2.5687682e-07 0)
(0.067803766 -5.752422e-08 0)
(0.019860359 -8.9604841e-09 0)
(0.019859883 8.0972412e-09 0)
(0.067802162 6.0781176e-08 0)
(0.1355452 2.4694073e-07 0)
(0.2299893 7.3311563e-07 0)
(0.35913694 1.8120525e-06 0)
(0.53091144 3.9995937e-06 0)
(0.7505167 8.0454714e-06 0)
(1.0158872 1.4698429e-05 0)
(1.3117513 2.3751362e-05 0)
(1.6050237 3.191284e-05 0)
(1.8467018 3.096618e-05 0)
(1.9846975 1.3401371e-05 0)
(1.9846975 -1.3414547e-05 0)
(1.8467017 -3.0978853e-05 0)
(1.6050236 -3.1923998e-05 0)
(1.3117512 -2.3760895e-05 0)
(1.0158871 -1.4705664e-05 0)
(0.75051661 -8.0485186e-06 0)
(0.53091136 -3.9969952e-06 0)
(0.35913689 -1.8038994e-06 0)
(0.22998927 -7.2057884e-07 0)
(0.13554519 -2.387398e-07 0)
(0.067802155 -4.950307e-08 0)
(0.019859881 -8.6707215e-09 0)
(0.019859431 7.6209787e-09 0)
(0.067800638 5.8060453e-08 0)
(0.1355422 2.3373427e-07 0)
(0.22998433 6.9310804e-07 0)
(0.35912945 1.7116027e-06 0)
(0.53090097 3.7768005e-06 0)
(0.75050325 7.5974847e-06 0)
(1.0158719 1.3883297e-05 0)
(1.3117378 2.2444577e-05 0)
(1.6050185 3.017831e-05 0)
(1.8467117 2.9341255e-05 0)
(1.9847209 1.2714398e-05 0)
(1.9847209 -1.2747116e-05 0)
(1.8467117 -2.9371718e-05 0)
(1.6050185 -3.0204547e-05 0)
(1.3117377 -2.2466888e-05 0)
(1.0158718 -1.3903206e-05 0)
(0.75050317 -7.6151451e-06 0)
(0.5309009 -3.7891874e-06 0)
(0.3591294 -1.7158349e-06 0)
(0.2299843 -6.8911014e-07 0)
(0.13554218 -2.2968859e-07 0)
(0.06780063 -5.041948e-08 0)
(0.019859429 -7.9976742e-09 0)
(0.019859003 7.1897157e-09 0)
(0.067799196 5.4995318e-08 0)
(0.13553936 2.2091661e-07 0)
(0.22997962 6.5500025e-07 0)
(0.35912236 1.6172737e-06 0)
(0.53089106 3.5685375e-06 0)
(0.75049052 7.1785217e-06 0)
(1.0158575 1.3118139e-05 0)
(1.311725 2.1211541e-05 0)
(1.6050137 2.8539831e-05 0)
(1.8467213 2.7768064e-05 0)
(1.9847434 1.2048256e-05 0)
(1.9847434 -1.2100278e-05 0)
(1.8467212 -2.7816093e-05 0)
(1.6050136 -2.8579409e-05 0)
(1.3117249 -2.124104e-05 0)
(1.0158574 -1.3137361e-05 0)
(0.75049044 -7.1896432e-06 0)
(0.53089101 -3.5734398e-06 0)
(0.35912232 -1.6166612e-06 0)
(0.2299796 -6.4982799e-07 0)
(0.13553935 -2.1699493e-07 0)
(0.06779919 -4.8741595e-08 0)
(0.019859002 -7.5313651e-09 0)
(0.0198586 6.8380675e-09 0)
(0.067797837 5.1204847e-08 0)
(0.13553669 2.0839108e-07 0)
(0.22997519 6.1881719e-07 0)
(0.35911568 1.5293855e-06 0)
(0.53088173 3.3749997e-06 0)
(0.75047853 6.7888652e-06 0)
(1.0158439 1.2407202e-05 0)
(1.3117129 2.006871e-05 0)
(1.605009 2.7015424e-05 0)
(1.8467301 2.6333001e-05 0)
(1.9847642 1.143683e-05 0)
(1.9847642 -1.1502223e-05 0)
(1.84673 -2.6393509e-05 0)
(1.6050089 -2.7067876e-05 0)
(1.3117128 -2.0110592e-05 0)
(1.0158438 -1.243706e-05 0)
(0.75047844 -6.8061411e-06 0)
(0.53088167 -3.3810107e-06 0)