/*--------------------------------*- C++ -*----------------------------------*\
| =========                 |                                                 |
| \\      /  F ield         | OpenFOAM: The Open Source CFD Toolbox           |
|  \\    /   O peration     | Version:  2406                                  |
|   \\  /    A nd           | Website:  www.openfoam.com                      |
|    \\/     M anipulation  |                                                 |
\*---------------------------------------------------------------------------*/
FoamFile
{
    version     2.0;
    format      ascii;
    arch        "LSB;label=32;scalar=64";
    class       volScalarField;
    location    "22";
    object      p;
}
// * * * * * * * * * * * * * * * * * * * * * * * * * * * * * * * * * * * * * //

dimensions      [0 2 -2 0 0 0 0];

internalField   nonuniform List<scalar> 
1176
(
0.79699976
0.79702263
0.79704629
0.79705396
0.79702243
0.79692773
0.7967705
0.79658434
0.79640514
0.79623798
0.79608336
0.79598775
0.79598775
0.79608335
0.79623797
0.79640511
0.79658428
0.79677042
0.79692762
0.79702226
0.79705372
0.79704597
0.79702223
0.79699929
0.77385133
0.77380437
0.77375661
0.77373971
0.77380221
0.77400457
0.77436989
0.77483429
0.77526515
0.77555126
0.77567065
0.77570491
0.77570491
0.77567066
0.77555127
0.77526518
0.77483434
0.77436996
0.77400467
0.77380235
0.77373988
0.77375681
0.7738046
0.77385158
0.75676657
0.75678858
0.75680838
0.75680647
0.7567474
0.75658623
0.75631446
0.75598652
0.7556803
0.75546751
0.75535671
0.75530789
0.75530789
0.7553567
0.7554675
0.75568028
0.75598649
0.75631444
0.75658622
0.7567474
0.75680647
0.75680839
0.75678861
0.75676661
0.74009468
0.7401038
0.74011586
0.74013226
0.74015481
0.74017238
0.74014014
0.74000673
0.73977462
0.73950206
0.73927785
0.73915736
0.73915736
0.73927785
0.73950205
0.73977461
0.74000673
0.74014014
0.74017238
0.74015482
0.74013228
0.74011588
0.74010382
0.7400947
0.72367563
0.72367958
0.72368457
0.72369064
0.72370034
0.72372061
0.7237568
0.72379831
0.72381998
0.72379611
0.72373399
0.72368136
0.72368136
0.72373399
0.7237961
0.72381997
0.7237983
0.7237568
0.72372063
0.72370036
0.72369067
0.72368461
0.72367962
0.72367567
0.70721397
0.70721639
0.70721963
0.70722367
0.70722859
0.70723542
0.70724959
0.7072809
0.70733089
0.70738814
0.70743085
0.70744751
0.70744751
0.70743085
0.70738814
0.70733088
0.7072809
0.70724959
0.70723543
0.7072286
0.70722369
0.70721965
0.70721641
0.707214
0.69080816
0.6908103
0.69081311
0.69081654
0.69082044
0.69082395
0.69082602
0.69082819
0.69083674
0.69085397
0.69087187
0.69088359
0.69088359
0.69087187
0.69085397
0.69083674
0.69082819
0.69082602
0.69082396
0.69082045
0.69081655
0.69081312
0.69081031
0.69080818
0.6744283
0.67443006
0.67443238
0.6744353
0.67443898
0.67444335
0.6744478
0.67445096
0.67445219
0.67445381
0.67445086
0.67444835
0.67444835
0.67445086
0.67445381
0.67445219
0.67445096
0.6744478
0.67444335
0.67443898
0.67443531
0.67443239
0.67443006
0.67442831
0.65807402
0.65807547
0.6580774
0.65807981
0.65808283
0.65808661
0.65809166
0.65809871
0.65810739
0.65811742
0.65812519
0.65812878
0.65812878
0.65812519
0.65811742
0.65810739
0.65809871
0.65809166
0.65808662
0.65808283
0.65807981
0.6580774
0.65807547
0.65807401
0.64173633
0.64173753
0.64173914
0.64174117
0.64174374
0.64174691
0.64175108
0.64175747
0.64176762
0.64178076
0.64179509
0.64180439
0.64180439
0.64179509
0.64178076
0.64176763
0.64175747
0.64175108
0.64174692
0.64174374
0.64174117
0.64173913
0.64173752
0.64173632
0.62541195
0.62541298
0.62541435
0.6254161
0.62541831
0.62542103
0.62542443
0.62542927
0.62543714
0.6254478
0.62546036
0.6254695
0.6254695
0.62546036
0.6254478
0.62543714
0.62542928
0.62542443
0.62542103
0.6254183
0.62541609
0.62541434
0.62541296
0.62541193
0.60909847
0.60909937
0.60910056
0.60910209
0.60910403
0.60910643
0.60910939
0.6091134
0.60911962
0.60912828
0.60913884
0.60914629
0.60914629
0.60913884
0.60912828
0.60911962
0.6091134
0.60910939
0.60910643
0.60910402
0.60910208
0.60910055
0.60909935
0.60909845
0.59279428
0.59279507
0.59279612
0.59279747
0.59279919
0.59280132
0.59280396
0.59280749
0.5928129
0.59282064
0.59283033
0.59283701
0.59283701
0.59283033
0.59282065
0.5928129
0.5928075
0.59280396
0.59280132
0.59279918
0.59279746
0.5927961
0.59279504
0.59279425
0.57649806
0.57649876
0.5764997
0.5765009
0.57650244
0.57650435
0.57650669
0.57650983
0.5765146
0.57652157
0.57653024
0.57653633
0.57653633
0.57653024
0.57652158
0.57651461
0.57650983
0.5765067
0.57650434
0.57650243
0.57650089
0.57649968
0.57649873
0.57649803
0.56020879
0.56020942
0.56021027
0.56021135
0.56021273
0.56021445
0.56021655
0.56021931
0.56022347
0.5602296
0.56023712
0.56024253
0.56024253
0.56023713
0.5602296
0.56022348
0.56021932
0.56021655
0.56021444
0.56021272
0.56021132
0.56021023
0.56020938
0.56020875
0.54392567
0.54392624
0.543927
0.54392798
0.54392924
0.54393079
0.54393269
0.54393514
0.54393878
0.54394415
0.54395069
0.54395548
0.54395548
0.54395069
0.54394416
0.54393879
0.54393515
0.54393269
0.54393079
0.54392922
0.54392796
0.54392697
0.54392619
0.54392562
0.52764804
0.52764856
0.52764926
0.52765015
0.52765129
0.52765271
0.52765443
0.52765663
0.52765985
0.52766462
0.52767034
0.52767463
0.52767463
0.52767034
0.52766462
0.52765986
0.52765664
0.52765443
0.5276527
0.52765127
0.52765012
0.52764921
0.52764851
0.52764799
0.51137537
0.51137584
0.51137648
0.51137729
0.51137834
0.51137964
0.51138121
0.5113832
0.51138607
0.51139032
0.51139537
0.51139923
0.51139923
0.51139537
0.51139033
0.51138608
0.51138321
0.51138121
0.51137963
0.51137832
0.51137725
0.51137643
0.51137578
0.5113753
0.49510717
0.4951076
0.49510819
0.49510894
0.4951099
0.49511109
0.49511253
0.49511434
0.49511692
0.49512072
0.49512522
0.4951287
0.4951287
0.49512522
0.49512073
0.49511693
0.49511435
0.49511254
0.49511108
0.49510988
0.4951089
0.49510813
0.49510754
0.4951071
0.47884306
0.47884346
0.478844
0.47884469
0.47884558
0.47884668
0.478848
0.47884965
0.47885197
0.47885539
0.47885943
0.47886258
0.47886258
0.47885943
0.47885541
0.47885199
0.47884966
0.47884801
0.47884667
0.47884555
0.47884464
0.47884394
0.47884339
0.47884298
0.46258269
0.46258306
0.46258356
0.4625842
0.46258502
0.46258604
0.46258726
0.46258877
0.46259087
0.46259397
0.46259761
0.46260048
0.46260048
0.46259762
0.46259398
0.46259089
0.46258878
0.46258726
0.46258602
0.46258499
0.46258414
0.46258349
0.46258298
0.4625826
0.44632576
0.4463261
0.44632656
0.44632715
0.44632791
0.44632886
0.44632999
0.44633138
0.44633329
0.44633611
0.44633942
0.44634203
0.44634203
0.44633943
0.44633612
0.44633331
0.4463314
0.44633
0.44632885
0.44632788
0.4463271
0.44632648
0.44632601
0.44632566
0.43007199
0.43007231
0.43007274
0.43007329
0.430074
0.43007488
0.43007593
0.43007721
0.43007896
0.43008153
0.43008456
0.43008694
0.43008694
0.43008456
0.43008154
0.43007898
0.43007723
0.43007593
0.43007486
0.43007396
0.43007323
0.43007266
0.43007221
0.43007189
0.41382116
0.41382145
0.41382185
0.41382237
0.41382303
0.41382384
0.41382482
0.41382601
0.41382762
0.41382997
0.41383275
0.41383493
0.41383493
0.41383276
0.41382998
0.41382764
0.41382603
0.41382483
0.41382383
0.41382299
0.4138223
0.41382177
0.41382135
0.41382104
0.39757304
0.39757332
0.39757369
0.39757417
0.39757478
0.39757555
0.39757646
0.39757756
0.39757904
0.3975812
0.39758377
0.39758577
0.39758577
0.39758378
0.39758122
0.39757907
0.39757758
0.39757647
0.39757553
0.39757474
0.3975741
0.3975736
0.39757321
0.39757292
0.38132745
0.38132771
0.38132805
0.3813285
0.38132908
0.38132979
0.38133065
0.38133167
0.38133304
0.38133503
0.3813374
0.38133925
0.38133925
0.38133741
0.38133505
0.38133306
0.38133169
0.38133065
0.38132977
0.38132903
0.38132843
0.38132796
0.3813276
0.38132733
0.36508421
0.36508445
0.36508477
0.36508519
0.36508573
0.3650864
0.3650872
0.36508815
0.36508942
0.36509126
0.36509346
0.36509516
0.36509517
0.36509347
0.36509128
0.36508944
0.36508817
0.3650872
0.36508638
0.36508569
0.36508512
0.36508468
0.36508433
0.36508408
0.34884316
0.34884338
0.34884369
0.34884408
0.34884459
0.34884521
0.34884596
0.34884685
0.34884803
0.34884973
0.34885178
0.34885335
0.34885335
0.34885179
0.34884975
0.34884805
0.34884687
0.34884596
0.34884519
0.34884454
0.348844
0.34884359
0.34884327
0.34884303
0.33260415
0.33260436
0.33260465
0.33260502
0.33260549
0.33260608
0.33260678
0.33260762
0.33260871
0.33261029
0.3326122
0.33261366
0.33261366
0.33261221
0.33261031
0.33260874
0.33260764
0.33260679
0.33260606
0.33260544
0.33260494
0.33260455
0.33260425
0.33260402
0.31636706
0.31636726
0.31636753
0.31636788
0.31636832
0.31636887
0.31636953
0.31637031
0.31637133
0.3163728
0.31637458
0.31637594
0.31637594
0.31637459
0.31637282
0.31637136
0.31637034
0.31636954
0.31636885
0.31636827
0.3163678
0.31636743
0.31636714
0.31636693
0.30013176
0.30013195
0.3001322
0.30013253
0.30013295
0.30013347
0.30013409
0.30013482
0.30013577
0.30013714
0.30013881
0.30014007
0.30014007
0.30013881
0.30013716
0.3001358
0.30013484
0.30013409
0.30013345
0.3001329
0.30013245
0.3001321
0.30013183
0.30013163
0.28389815
0.28389832
0.28389856
0.28389887
0.28389926
0.28389975
0.28390033
0.28390102
0.28390191
0.28390319
0.28390474
0.28390592
0.28390592
0.28390475
0.28390321
0.28390194
0.28390104
0.28390034
0.28389973
0.28389921
0.28389879
0.28389846
0.2838982
0.28389801
0.26766611
0.26766627
0.2676665
0.26766678
0.26766715
0.26766762
0.26766816
0.26766881
0.26766964
0.26767084
0.2676723
0.26767339
0.2676734
0.26767231
0.26767086
0.26766967
0.26766883
0.26766817
0.2676676
0.26766711
0.26766671
0.26766639
0.26766615
0.26766597
0.25143555
0.2514357
0.25143591
0.25143618
0.25143653
0.25143697
0.25143748
0.25143809
0.25143887
0.25143999
0.25144136
0.25144238
0.25144238
0.25144136
0.25144001
0.2514389
0.25143812
0.25143749
0.25143695
0.25143649
0.25143611
0.25143581
0.25143558
0.25143541
0.23520638
0.23520653
0.23520673
0.23520698
0.23520731
0.23520772
0.23520821
0.23520878
0.23520951
0.23521056
0.23521184
0.2352128
0.2352128
0.23521185
0.23521058
0.23520954
0.2352088
0.23520821
0.2352077
0.23520726
0.2352069
0.23520662
0.2352064
0.23520624
0.21897852
0.21897866
0.21897885
0.21897909
0.2189794
0.21897979
0.21898024
0.21898078
0.21898147
0.21898245
0.21898366
0.21898455
0.21898455
0.21898366
0.21898247
0.21898151
0.21898081
0.21898025
0.21897977
0.21897935
0.21897901
0.21897874
0.21897853
0.21897837
0.2027519
0.20275203
0.20275221
0.20275243
0.20275273
0.20275309
0.20275352
0.20275403
0.20275468
0.2027556
0.20275673
0.20275758
0.20275758
0.20275675
0.20275562
0.20275471
0.20275406
0.20275353
0.20275307
0.20275267
0.20275234
0.20275209
0.20275189
0.20275174
0.18652644
0.18652656
0.18652673
0.18652694
0.18652722
0.18652756
0.18652797
0.18652845
0.18652906
0.18652992
0.18653098
0.18653177
0.18653177
0.18653099
0.18652994
0.1865291
0.18652848
0.18652798
0.18652754
0.18652716
0.18652685
0.1865266
0.18652641
0.18652627
0.17030207
0.17030219
0.17030234
0.17030255
0.17030281
0.17030313
0.17030352
0.17030397
0.17030454
0.17030535
0.17030636
0.1703071
0.1703071
0.17030637
0.17030538
0.17030458
0.170304
0.17030353
0.17030311
0.17030274
0.17030244
0.1703022
0.17030201
0.17030188
0.15407874
0.15407885
0.154079
0.15407919
0.15407944
0.15407974
0.15408011
0.15408053
0.15408107
0.15408182
0.15408276
0.15408344
0.15408345
0.15408277
0.15408185
0.15408111
0.15408057
0.15408012
0.15407972
0.15407937
0.15407907
0.15407884
0.15407866
0.15407853
0.13785637
0.13785648
0.13785662
0.1378568
0.13785703
0.13785732
0.13785767
0.13785807
0.13785857
0.13785928
0.13786017
0.13786081
0.13786082
0.13786018
0.13785932
0.13785862
0.13785811
0.13785768
0.13785729
0.13785695
0.13785666
0.13785644
0.13785626
0.13785613
0.12163495
0.12163504
0.12163518
0.12163535
0.12163557
0.12163584
0.12163617
0.12163654
0.12163701
0.12163767
0.12163847
0.12163906
0.12163906
0.12163849
0.1216377
0.12163707
0.12163659
0.12163618
0.12163581
0.12163548
0.12163519
0.12163497
0.1216348
0.12163467
0.10541436
0.10541446
0.10541458
0.10541474
0.10541495
0.10541521
0.10541552
0.10541587
0.10541631
0.10541692
0.10541768
0.10541822
0.10541822
0.10541769
0.10541696
0.10541637
0.10541592
0.10541553
0.10541517
0.10541484
0.10541457
0.10541435
0.10541417
0.10541405
0.08919465
0.089194739
0.089194858
0.089195011
0.089195209
0.089195453
0.089195741
0.089196072
0.089196474
0.089197009
0.08919765
0.089198105
0.089198107
0.089197667
0.089197053
0.089196537
0.089196127
0.089195755
0.089195403
0.089195082
0.089194807
0.089194587
0.089194416
0.089194296
0.072975646
0.072975728
0.07297584
0.072975985
0.072976174
0.072976409
0.072976685
0.072977001
0.072977376
0.072977865
0.072978434
0.072978818
0.072978821
0.072978453
0.072977913
0.072977446
0.07297706
0.072976699
0.07297635
0.07297603
0.072975757
0.07297554
0.072975373
0.072975256
0.056757526
0.056757606
0.056757714
0.056757853
0.056758029
0.056758245
0.056758499
0.056758783
0.056759103
0.05675947
0.056759831
0.05676003
0.056760032
0.056759851
0.056759523
0.056759179
0.056758848
0.056758512
0.056758181
0.056757874
0.056757608
0.056757395
0.056757231
0.056757116
0.040539738
0.040539809
0.040539906
0.040540037
0.040540213
0.040540438
0.040540704
0.040540996
0.04054132
0.040541718
0.040542169
0.040542459
0.040542461
0.04054219
0.040541775
0.040541403
0.040541067
0.04054072
0.040540371
0.040540054
0.040539788
0.040539584
0.040539432
0.040539328
0.024323468
0.02432355
0.024323658
0.024323786
0.024323933
0.024324095
0.024324269
0.024324452
0.024324617
0.024324686
0.024324582
0.024324333
0.024324335
0.024324601
0.024324742
0.024324699
0.02432452
0.024324283
0.024324032
0.02432379
0.024323571
0.02432339
0.024323246
0.024323144
0.0081053686
0.0081054389
0.0081055319
0.0081056536
0.0081058149
0.0081060153
0.0081062369
0.0081064769
0.0081068541
0.0081076849
0.0081091526
0.0081105093
0.0081105091
0.0081091615
0.0081077169
0.0081069038
0.0081065182
0.008106243
0.0081059734
0.0081057255
0.0081055243
0.0081053748
0.0081052652
0.0081051867
)
;

boundaryField
{
    INLET
    {
        type            zeroGradient;
    }
    OUTLET
    {
        type            fixedValue;
        value           uniform 0;
    }
    WALL
    {
        type            zeroGradient;
    }
    frontAndBackPlanes
    {
        type            empty;
    }
}


// ************************************************************************* //
