/*--------------------------------*- C++ -*----------------------------------*\
| =========                 |                                                 |
| \\      /  F ield         | OpenFOAM: The Open Source CFD Toolbox           |
|  \\    /   O peration     | Version:  2406                                  |
|   \\  /    A nd           | Website:  www.openfoam.com                      |
|    \\/     M anipulation  |                                                 |
\*---------------------------------------------------------------------------*/
FoamFile
{
    version     2.0;
    format      ascii;
    arch        "LSB;label=32;scalar=64";
    class       surfaceScalarField;
    location    "22";
    object      phi;
}
// * * * * * * * * * * * * * * * * * * * * * * * * * * * * * * * * * * * * * //

dimensions      [0 3 -1 0 0 0 0];

oriented        oriented;

internalField   nonuniform List<scalar> 
2279
(
2.3617427e-08
1.0148926e-05
2.0509755e-07
4.982375e-05
6.9331757e-07
0.00014252872
1.5784717e-06
0.00034353082
2.6788482e-06
0.00075378089
3.3472923e-06
0.0015415573
3.0435214e-06
0.0029497096
2.151686e-06
0.005249171
1.431806e-06
0.008582269
9.8959451e-07
0.012685995
5.1267061e-07
0.016666385
5.5444804e-12
0.01918202
-5.1265543e-07
0.01918202
-9.8956461e-07
0.016666385
-1.4317476e-06
0.012685995
-2.1516007e-06
0.008582269
-3.0434028e-06
0.0052491709
-3.3470967e-06
0.0029497095
-2.6785096e-06
0.0015415572
-1.5780021e-06
0.00075378079
-6.9281637e-07
0.00034353075
-2.047227e-07
0.00014252868
-2.3427653e-08
4.9823731e-05
1.0148922e-05
-9.524855e-08
1.0244175e-05
-5.3794023e-07
5.0266441e-05
-1.6230014e-06
0.00014361378
-3.5389525e-06
0.00034544677
-5.9201864e-06
0.00075616213
-7.4055018e-06
0.0015430426
-6.584726e-06
0.0029488888
-3.9361576e-06
0.0052465224
-1.3883862e-06
0.0085797213
-6.5115376e-08
0.012684671
2.424114e-07
0.016666078
5.2474286e-12
0.019182263
-2.4239949e-07
0.019182263
6.5125388e-08
0.016666078
1.3883845e-06
0.012684671
3.9361347e-06
0.0085797213
6.5846707e-06
0.0052465225
7.4054013e-06
0.0029488889
5.920024e-06
0.0015430427
3.5387505e-06
0.00075616215
1.6228112e-06
0.00034544679
5.3781074e-07
0.00014361379
9.5189288e-08
5.0266443e-05
1.0244175e-05
5.0139749e-08
1.0194035e-05
2.6334477e-07
5.0053236e-05
7.4910681e-07
0.00014312802
1.5314579e-06
0.00034466442
2.3366553e-06
0.00075535693
2.547662e-06
0.0015428316
1.8390969e-06
0.0029495974
9.7567605e-07
0.0052473858
6.7695988e-07
0.00858002
6.7178792e-07
0.012684677
4.8416576e-07
0.016666266
3.4816541e-12
0.019182747
-4.8415879e-07
0.019182747
-6.7178258e-07
0.016666266
-6.7696149e-07
0.012684677
-9.7568438e-07
0.00858002
-1.8391116e-06
0.0052473858
-2.5476936e-06
0.0029495974
-2.336711e-06
0.0015428316
-1.5315257e-06
0.00075535692
-7.4917105e-07
0.00034466442
-2.6339056e-07
0.00014312802
-5.0162814e-08
5.0053237e-05
1.0194035e-05
1.958652e-08
1.0174448e-05
1.1184877e-07
4.9960974e-05
3.6128344e-07
0.00014287858
9.050466e-07
0.00034412066
1.8716587e-06
0.00075439032
3.0948228e-06
0.0015416085
3.8987239e-06
0.0029487935
3.7285551e-06
0.005247556
2.9242101e-06
0.0085808243
1.9733734e-06
0.012685627
1.0127705e-06
0.016667226
4.2641388e-12
0.01918376
-1.0127597e-06
0.01918376
-1.9733566e-06
0.016667226
-2.9241886e-06
0.012685627
-3.7285417e-06
0.0085808243
-3.8987341e-06
0.005247556
-3.0948548e-06
0.0029487935
-1.8716948e-06
0.0015416085
-9.050726e-07
0.00075439031
-3.6129248e-07
0.00034412066
-1.1184807e-07
0.00014287858
-1.9583743e-08
4.9960973e-05
1.0174448e-05
8.0836891e-09
1.0166364e-05
4.7140845e-08
4.9921916e-05
1.5494575e-07
0.00014277078
3.9846156e-07
0.00034387714
8.7979302e-07
0.00075390899
1.7015153e-06
0.0015407867
2.7512749e-06
0.0029477437
3.4623612e-06
0.0052468449
3.4708605e-06
0.0085808158
2.8006838e-06
0.012686298
1.550513e-06
0.016668476
3.152674e-12
0.01918531
-1.5505036e-06
0.01918531
-2.8006695e-06
0.016668476
-3.4708507e-06
0.012686298
-3.4623632e-06
0.0085808158
-2.7512989e-06
0.0052468449
-1.7015603e-06
0.0029477437
-8.7984765e-07
0.0015407867
-3.9851226e-07
0.00075390899
-1.5498311e-07
0.00034387714
-4.7162379e-08
0.00014277078
-8.0925325e-09
4.9921916e-05
1.0166364e-05
4.9355574e-09
1.0161429e-05
2.8698086e-08
4.9898153e-05
9.5120117e-08
0.00014270436
2.4921262e-07
0.00034372305
5.6360783e-07
0.00075359459
1.1213742e-06
0.001540229
1.9184578e-06
0.0029469467
2.6588206e-06
0.0052461046
2.8930571e-06
0.0085805816
2.4787623e-06
0.012686712
1.4344221e-06
0.016669521
1.459644e-12
0.019186745
-1.4344153e-06
0.019186745
-2.4787488e-06
0.016669521
-2.893044e-06
0.012686712
-2.6588199e-06
0.0085805816
-1.9184725e-06
0.0052461046
-1.1214e-06
0.0029469467
-5.6363808e-07
0.001540229
-2.4924049e-07
0.00075359459
-9.5140915e-08
0.00034372305
-2.8710411e-08
0.00014270436
-4.9408776e-09
4.9898153e-05
1.0161429e-05
4.4119529e-09
1.0157016e-05
2.5524751e-08
4.987704e-05
8.3828656e-08
0.00014264605
2.1689245e-07
0.00034358998
4.8449989e-07
0.00075332698
9.5636076e-07
0.0015397571
1.6413747e-06
0.0029462616
2.3245832e-06
0.0052454214
2.5939519e-06
0.0085803122
2.2393585e-06
0.012687066
1.3066685e-06
0.016670453
-1.433406e-13
0.019188051
-1.3066651e-06
0.019188051
-2.2393493e-06
0.016670453
-2.5939432e-06
0.012687066
-2.3245835e-06
0.0085803122
-1.6413837e-06
0.0052454214
-9.5637483e-07
0.0029462616
-4.8451514e-07
0.0015397571
-2.1690537e-07
0.00075332698
-8.3837493e-08
0.00034358998
-2.5529582e-08
0.00014264605
-4.4139276e-09
4.987704e-05
1.0157016e-05
3.6251434e-09
1.0153391e-05
2.1035746e-08
4.9859629e-05
6.9436898e-08
0.00014259765
1.8114031e-07
0.00034347828
4.0971391e-07
0.00075309841
8.2390471e-07
0.0015393429
1.4539944e-06
0.0029456316
2.1430773e-06
0.0052447323
2.4674728e-06
0.0085799878
2.1883902e-06
0.012687346
1.2866386e-06
0.016671355
-4.184055e-13
0.019189338
-1.2866374e-06
0.019189338
-2.1883868e-06
0.016671355
-2.4674714e-06
0.012687346
-2.1430806e-06
0.0085799878
-1.4539997e-06
0.0052447323
-8.2390949e-07
0.0029456316
-4.0971741e-07
0.0015393429
-1.8114263e-07
0.00075309841
-6.9438504e-08
0.00034347828
-2.1036723e-08
0.00014259765
-3.6256542e-09
4.9859629e-05
1.0153391e-05
2.9828613e-09
1.0150408e-05
1.7346479e-08
4.9845265e-05
5.7376675e-08
0.00014255762
1.5007356e-07
0.00034338558
3.4097175e-07
0.00075290751
6.9193364e-07
0.001538992
1.2441115e-06
0.0029450794
1.9041885e-06
0.0052440722
2.3016012e-06
0.0085795904
2.0975061e-06
0.01268755
1.2520079e-06
0.016672201
2.1084625e-14
0.01919059
-1.2520076e-06
0.01919059
-2.097507e-06
0.016672201
-2.3016046e-06
0.01268755
-1.9041926e-06
0.0085795904
-1.2441122e-06
0.0052440722
-6.9192941e-07
0.0029450794
-3.4096424e-07
0.001538992
-1.5006567e-07
0.00075290751
-5.7370902e-08
0.00034338558
-1.7343272e-08
0.00014255762
-2.9816801e-09
4.9845265e-05
1.0150408e-05
2.4653095e-09
1.0147942e-05
1.4362966e-08
4.9833367e-05
4.7626499e-08
0.00014252436
1.2502925e-07
0.00034330818
2.8559041e-07
0.00075274695
5.8418196e-07
0.0015386934
1.0641876e-06
0.0029445994
1.6641607e-06
0.0052434722
2.0898755e-06
0.0085791647
1.9528932e-06
0.012687687
1.180243e-06
0.016672973
2.0265215e-13
0.01919177
-1.1802435e-06
0.01919177
-1.9528966e-06
0.016672973
-2.089881e-06
0.012687687
-1.6641639e-06
0.0085791647
-1.064184e-06
0.0052434722
-5.8417049e-07
0.0029445994
-2.8557394e-07
0.0015386934
-1.2501272e-07
0.00075274695
-4.7614179e-08
0.00034330818
-1.4355872e-08
0.00014252436
-2.4624862e-09
4.9833367e-05
1.0147942e-05
2.1024626e-09
1.014584e-05
1.2258201e-08
4.9823212e-05
4.0688723e-08
0.00014249593
1.0699125e-07
0.00034324188
2.4508026e-07
0.00075260886
5.0385553e-07
0.0015384346
9.2623783e-07
0.002944177
1.471514e-06
0.0052429269
1.8909096e-06
0.0085787453
1.8050218e-06
0.012687772
1.103689e-06
0.016673675
3.2401351e-13
0.019192874
-1.1036899e-06
0.019192874
-1.8050262e-06
0.016673675
-1.8909156e-06
0.012687772
-1.4715162e-06
0.0085787453
-9.2623106e-07
0.0052429269
-5.0383826e-07
0.002944177
-2.4505619e-07
0.0015384346
-1.0696716e-07
0.00075260886
-4.0670595e-08
0.00034324188
-1.224764e-08
0.00014249593
-2.0981778e-09
4.9823212e-05
1.014584e-05
1.8283391e-09
1.0144011e-05
1.0665812e-08
4.9814374e-05
3.5430975e-08
0.00014247116
9.3284161e-08
0.00034318403
2.1414078e-07
0.00075248801
4.4192958e-07
0.0015382068
8.1811589e-07
0.0029438008
1.316383e-06
0.0052424287
1.7244953e-06
0.0085783372
1.6780428e-06
0.012687819
1.0378043e-06
0.016674315
4.9101436e-13
0.019193912
-1.0378052e-06
0.019193912
-1.6780476e-06
0.016674315
-1.7245016e-06
0.012687819
-1.3163848e-06
0.0085783372
-8.181066e-07
0.0052424287
-4.4190702e-07
0.0029438008
-2.141094e-07
0.0015382068
-9.3252624e-08
0.00075248801
-3.540707e-08
0.00034318403
-1.0651792e-08
0.00014247116
-1.822601e-09
4.9814374e-05
1.0144011e-05
1.6106478e-09
1.0142401e-05
9.4000685e-09
4.9806585e-05
3.1245144e-08
0.00014244932
8.2341451e-08
0.00034313293
1.8932192e-07
0.00075238103
3.9182435e-07
0.0015380043
7.2924303e-07
0.0029434634
1.1851474e-06
0.0052419728
1.5781768e-06
0.0085779441
1.5623401e-06
0.012687835
9.7669884e-07
0.0166749
6.5258156e-13
0.019194888
-9.7669979e-07
0.019194888
-1.5623457e-06
0.0166749
-1.5781842e-06
0.012687835
-1.1851494e-06
0.0085779441
-7.2923157e-07
0.0052419728
-3.9179643e-07
0.0029434634
-1.8928286e-07
0.0015380043
-8.2302033e-08
0.00075238103
-3.1215148e-08
0.00034313293
-9.3824209e-09
0.00014244932
-1.6033971e-09
4.9806585e-05
1.0142401e-05
1.4324963e-09
1.0140969e-05
8.3634475e-09
4.9799654e-05
2.7813324e-08
0.00014242987
7.3353689e-08
0.00034308739
1.688697e-07
0.00075228551
3.5026884e-07
0.0015378229
6.5458396e-07
0.0029431591
1.0720605e-06
0.0052415553
1.446435e-06
0.0085775698
1.4548778e-06
0.012687826
9.1881107e-07
0.016675437
7.7450148e-13
0.019195807
-9.1881229e-07
0.019195807
-1.4548847e-06
0.016675437
-1.4464444e-06
0.012687826
-1.0720634e-06
0.0085775698
-6.5457032e-07
0.0052415553
-3.5023498e-07
0.0029431591
-1.6882212e-07
0.0015378229
-7.330561e-08
0.00075228551
-2.7776716e-08
0.00034308739
-8.3419059e-09
0.00014242987
-1.4236398e-09
4.9799655e-05
1.0140969e-05
1.2851885e-09
1.0139684e-05
7.505502e-09
4.9793434e-05
2.4969506e-08
0.0001424124
6.5891897e-08
0.00034304647
1.5183874e-07
0.00075219956
3.1548585e-07
0.0015376593
5.9149716e-07
0.0029428831
9.7478797e-07
0.005241172
1.3297064e-06
0.0085772148
1.3567894e-06
0.012687799
8.6525446e-07
0.016675928
8.4006434e-13
0.019196672
-8.6525618e-07
0.019196672
-1.3567981e-06
0.016675928
-1.3297182e-06
0.012687799
-9.7479185e-07
0.0085772148
-5.9148101e-07
0.005241172
-3.1544523e-07
0.0029428831
-1.5178161e-07
0.0015376593
-6.5834231e-08
0.00075219956
-2.4925662e-08
0.00034304647
-7.47974e-09
0.0001424124
-1.2746057e-09
4.9793434e-05
1.0139684e-05
1.1616703e-09
1.0138522e-05
6.7856086e-09
4.9787811e-05
2.2581068e-08
0.00014239661
5.961606e-08
0.00034300943
1.3748158e-07
0.0007521217
2.8604683e-07
0.0015375107
5.3771115e-07
0.0029426314
8.9070671e-07
0.005240819
1.2263995e-06
0.0085768792
1.2674927e-06
0.012687758
8.1593003e-07
0.01667638
8.7427654e-13
0.019197488
-8.1593241e-07
0.019197488
-1.2675035e-06
0.01667638
-1.2264141e-06
0.012687758
-8.9071167e-07
0.0085768791
-5.3769206e-07
0.005240819
-2.8599864e-07
0.0029426314
-1.3741392e-07
0.0015375107
-5.9547941e-08
0.0007521217
-2.2529394e-08
0.00034300944
-6.7553057e-09
0.00014239661
-1.1492383e-09
4.9787811e-05
1.0138522e-05
1.0563314e-09
1.0137466e-05
6.1713783e-09
4.9782696e-05
2.0541921e-08
0.00014238224
5.4252682e-08
0.00034297572
1.2519105e-07
0.00075205076
2.6076779e-07
0.0015373751
4.9125136e-07
0.0029424009
8.1722541e-07
0.005240493
1.1341854e-06
0.0085765622
1.1857943e-06
0.012687707
7.7021896e-07
0.016676795
9.2118935e-13
0.019198259
-7.7022208e-07
0.019198259
-1.1858076e-06
0.016676795
-1.134203e-06
0.012687707
-8.172314e-07
0.0085765622
-4.9122895e-07
0.005240493
-2.6071136e-07
0.0029424009
-1.251121e-07
0.0015373751
-5.4173421e-08
0.00075205076
-2.0481934e-08
0.00034297572
-6.1362676e-09
0.00014238224
-1.0419439e-09
4.9782696e-05
1.0137466e-05
9.6533991e-10
1.0136501e-05
5.6405742e-09
4.9778021e-05
1.8778829e-08
0.0001423691
4.9611718e-08
0.00034294489
1.1454169e-07
0.00075198583
2.3881037e-07
0.0015372508
4.5070305e-07
0.002942189
7.5248255e-07
0.0052401913
1.0515016e-06
0.0085762632
1.1108359e-06
0.012687647
7.2769375e-07
0.016677178
1.0140515e-12
0.019198986
-7.2769759e-07
0.019198986
-1.1108517e-06
0.016677178
-1.0515223e-06
0.012687647
-7.5248948e-07
0.0085762632
-4.5067701e-07
0.0052401912
-2.3874526e-07
0.002942189
-1.1445097e-07
0.0015372508
-4.952089e-08
0.00075198583
-1.8710224e-08
0.00034294489
-5.6004841e-09
0.0001423691
-9.4892618e-10
4.9778021e-05
1.0136501e-05
8.8601258e-10
1.0135615e-05
5.1776211e-09
4.9773729e-05
1.7240385e-08
0.00014235704
4.5559259e-08
0.00034291657
1.0523201e-07
0.00075192616
2.1957542e-07
0.0015371365
4.1504072e-07
0.0029419935
6.950884e-07
0.0052399112
9.77096e-07
0.0085759812
1.0418725e-06
0.012687582
6.8801119e-07
0.016677532
1.1690139e-12
0.019199674
-6.8801568e-07
0.019199674
-1.0418908e-06
0.016677532
-9.7711972e-07
0.012687582
-6.9509612e-07
0.0085759812
-4.1501084e-07
0.0052399112
-2.1950144e-07
0.0029419935
-1.0512934e-07
0.0015371365
-4.545674e-08
0.00075192616
-1.716308e-08
0.00034291657
-5.1325037e-09
0.00014235704
-8.6755075e-10
4.977373e-05
1.0135615e-05
8.1624665e-10
1.0134799e-05
4.7703407e-09
4.9769775e-05
1.588644e-08
0.00014234592
4.199075e-08
0.00034289047
9.7026269e-08
0.00075187112
2.0259202e-07
0.0015370309
3.8344673e-07
0.0029418127
6.4389443e-07
0.0052396508
9.0984471e-07
0.0085757152
9.78242e-07
0.012687514
6.5087362e-07
0.01667786
1.3907954e-12
0.019200325
-6.5087866e-07
0.019200325
-9.7826276e-07
0.01667786
-9.0987138e-07
0.012687514
-6.4390281e-07
0.0085757152
-3.8341294e-07
0.0052396507
-2.0250921e-07
0.0029418127
-9.6911818e-08
0.0015370309
-4.1876736e-08
0.00075187112
-1.5800587e-08
0.00034289047
-4.7202858e-09
0.00014234592
-7.9577084e-10
4.9769776e-05
1.0134799e-05
7.5438603e-10
1.0134045e-05
4.4091333e-09
4.9766121e-05
1.4685309e-08
0.00014233564
3.8823552e-08
0.00034286633
8.9737622e-08
0.0007518202
1.8748488e-07
0.0015369332
3.5526262e-07
0.0029416449
5.9795669e-07
0.0052394081
8.4879058e-07
0.0085754644
9.193739e-07
0.012687443
6.1601917e-07
0.016678163
1.6763766e-12
0.019200941
-6.1602465e-07
0.019200941
-9.1939698e-07
0.016678163
-8.4882004e-07
0.012687443
-5.9796556e-07
0.0085754644
-3.5522495e-07
0.005239408
-1.8739353e-07
0.0029416449
-8.9611875e-08
0.0015369332
-3.8698559e-08
0.00075182021
-1.4591302e-08
0.00034286633
-4.3543697e-09
0.00014233565
-7.3198737e-10
4.9766121e-05
1.0134045e-05
6.9913931e-10
1.0133346e-05
4.0864982e-09
4.9762734e-05
1.3612192e-08
0.00014232612
3.5992821e-08
0.00034284395
8.3218942e-08
0.00075177298
1.7395684e-07
0.0015368425
3.2996181e-07
0.0029414889
5.5650531e-07
0.0052391815
7.9312321e-07
0.0085752278
8.6477666e-07
0.012687372
5.8324181e-07
0.016678444
2.0177631e-12
0.019201524
-5.832476e-07
0.019201524
-8.6480188e-07
0.016678444
-7.931552e-07
0.012687372
-5.5651454e-07
0.0085752278
-3.299204e-07
0.0052391815
-1.7385748e-07
0.0029414889
-8.3082696e-08
0.0015368425
-3.5857665e-08
0.00075177298
-1.3510648e-08
0.00034284395
-4.027383e-09
0.00014232612
-6.7496154e-10
4.9762734e-05
1.0133346e-05
6.4949031e-10
1.0132697e-05
3.7965219e-09
4.9759587e-05
1.2647512e-08
0.00014231727
3.3447288e-08
0.00034282315
7.7353631e-08
0.00075172907
1.6177152e-07
0.001536758
3.0712269e-07
0.0029413436
5.1891706e-07
0.0052389697
7.421757e-07
0.0085750045
8.1402372e-07
0.0126873
5.5235439e-07
0.016678706
2.4057816e-12
0.019202077
-5.5236036e-07
0.019202077
-8.1405085e-07
0.016678706
-7.4220992e-07
0.0126873
-5.189265e-07
0.0085750045
-3.070778e-07
0.0052389697
-1.6166491e-07
0.0029413435
-7.7207958e-08
0.001536758
-3.3303046e-08
0.00075172907
-1.2539235e-08
0.00034282315
-3.7335206e-09
0.00014231727
-6.2372099e-10
4.9759587e-05
1.0132697e-05
6.0462622e-10
1.0132092e-05
3.5344682e-09
4.9756657e-05
1.1775572e-08
0.00014230903
3.1145797e-08
0.00034280378
7.2047913e-08
0.00075168817
1.5073817e-07
0.0015366793
2.8640283e-07
0.0029412079
4.8467875e-07
0.0052387715
6.95384e-07
0.0085747938
7.6675505e-07
0.012687229
5.2321812e-07
0.01667895
2.8256841e-12
0.0192026
-5.2322415e-07
0.0192026
-7.6678381e-07
0.01667895
-6.9542014e-07
0.012687229
-4.8468827e-07
0.0085747938
-2.8635485e-07
0.0052387714
-1.5062525e-07
0.0029412079
-7.1894107e-08
0.0015366793
-3.0993744e-08
0.00075168817
-1.1661511e-08
0.00034280378
-3.4681251e-09
0.00014230903
-5.7748464e-10
4.9756657e-05
1.0132092e-05
5.6388979e-10
1.0131528e-05
3.2965049e-09
4.9753924e-05
1.0983666e-08
0.00014230134
2.9055007e-08
0.0003427857
6.7225723e-08
0.00075164999
1.4070174e-07
0.0015366059
2.675228e-07
0.0029410811
4.5336888e-07
0.0052385856
6.5227918e-07
0.0085745949
7.2264872e-07
0.012687158
4.956894e-07
0.016679177
3.2590772e-12
0.019203096
-4.9569536e-07
0.019203096
-7.2267883e-07
0.016679177
-6.523169e-07
0.012687158
-4.5337842e-07
0.0085745949
-2.6747219e-07
0.0052385856
-1.4058358e-07
0.0029410811
-6.7065218e-08
0.0015366059
-2.8896536e-08
0.00075165
-1.0864845e-08
0.00034278571
-3.2274061e-09
0.00014230134
-5.3561167e-10
4.9753925e-05
1.0131529e-05
5.2674269e-10
1.0131002e-05
3.0794934e-09
4.9751372e-05
1.0261382e-08
0.00014229416
2.7147576e-08
0.00034276882
6.2824601e-08
0.00075161432
1.3153456e-07
0.0015365371
2.5025127e-07
0.0029409623
4.246339e-07
0.0052384112
6.1245707e-07
0.0085744071
6.8143687e-07
0.012687089
4.6967422e-07
0.016679388
3.685062e-12
0.019203565
-4.6968004e-07
0.019203565
-6.8146805e-07
0.016679388
-6.1249605e-07
0.012687089
-4.2464343e-07
0.0085744071
-2.5019857e-07
0.0052384112
-1.3141229e-07
0.0029409623
-6.2658872e-08
0.0015365372
-2.6984099e-08
0.00075161432
-1.013883e-08
0.00034276882
-3.0082234e-09
0.00014229416
-4.9756261e-10
4.9751372e-05
1.0131002e-05
4.9274075e-10
1.0130509e-05
2.8808449e-09
4.9748983e-05
9.6001321e-09
0.00014228744
2.5400951e-08
0.00034275301
5.8792995e-08
0.00075158092
1.2313117e-07
0.0015364728
2.3439682e-07
0.0029408511
3.9818086e-07
0.0052382474
5.7558118e-07
0.0085742297
6.4286732e-07
0.012687022
4.450512e-07
0.016679586
4.080656e-12
0.01920401
-4.4505683e-07
0.01920401
-6.4289933e-07
0.016679586
-5.7562114e-07
0.012687022
-3.9819041e-07
0.0085742297
-2.3434261e-07
0.0052382474
-1.2300591e-07
0.0029408511
-5.8623447e-08
0.0015364728
-2.5233787e-08
0.00075158093
-9.4748034e-09
0.00034275302
-2.8079405e-09
0.00014228744
-4.6287346e-10
4.9748984e-05
1.0130509e-05
4.6151242e-10
1.0130048e-05
2.6983958e-09
4.9746746e-05
8.9927391e-09
0.00014228114
2.3796262e-08
0.00034273821
5.5087712e-08
0.00075154963
1.1540298e-07
0.0015364125
2.1979773e-07
0.0029407467
3.7375842e-07
0.0052380935
5.41354e-07
0.0085740621
6.0673984e-07
0.012686957
4.2176078e-07
0.016679771
4.4221519e-12
0.019204432
-4.2176622e-07
0.019204432
-6.0677248e-07
0.016679771
-5.4139476e-07
0.012686957
-3.7376809e-07
0.0085740621
-2.1974256e-07
0.0052380935
-1.1527573e-07
0.0029407467
-5.4915559e-08
0.0015364125
-2.3626526e-08
0.00075154963
-8.8654259e-09
0.00034273821
-2.6242991e-09
0.00014228114
-4.3113386e-10
4.9746747e-05
1.0130048e-05
4.3274524e-10
1.0129615e-05
2.5303259e-09
4.9744648e-05
8.4331641e-09
0.00014227524
2.2317644e-08
0.00034272432
5.1672463e-08
0.00075152027
1.0827558e-07
0.0015363559
2.0631827e-07
0.0029406486
3.5115658e-07
0.0052379487
5.0952743e-07
0.0085739038
5.7284664e-07
0.012686893
3.9968839e-07
0.016679944
4.6860907e-12
0.019204832
-3.9969368e-07
0.019204832
-5.7287978e-07
0.016679944
-5.0956886e-07
0.012686893
-3.5116649e-07
0.0085739037
-2.0626264e-07
0.0052379486
-1.0814714e-07
0.0029406486
-5.1498613e-08
0.0015363559
-2.2146138e-08
0.00075152027
-8.3044205e-09
0.00034272432
-2.455339e-09
0.00014227524
-4.0197454e-10
4.9744649e-05
1.0129615e-05
4.0617408e-10
1.0129209e-05
2.3750923e-09
4.9742679e-05
7.9162849e-09
0.00014226969
2.0951614e-08
0.00034271128
4.851631e-08
0.0007514927
1.0168529e-07
0.0015363027
1.9384144e-07
0.0029405565
3.3019077e-07
0.0052378123
4.7987645e-07
0.0085737541
5.4104112e-07
0.012686832
3.7880622e-07
0.016680107
4.8580273e-12
0.01920521
-3.7881145e-07
0.01920521
-5.4107472e-07
0.016680107
-4.7991854e-07
0.012686832
-3.3020111e-07
0.0085737541
-1.9378574e-07
0.0052378123
-1.0155616e-07
0.0029405565
-4.8341259e-08
0.0015363027
-2.0778723e-08
0.00075149271
-7.7863534e-09
0.00034271129
-2.2993366e-09
0.0001422697
-3.7505734e-10
4.974268e-05
1.0129209e-05
3.8157198e-10
1.0128828e-05
2.2313687e-09
4.9740829e-05
7.4376988e-09
0.00014226449
1.9686607e-08
0.00034269903
4.5592808e-08
0.00075146679
9.5577844e-08
0.0015362527
1.8226786e-07
0.0029404698
3.1070584e-07
0.0052376839
4.5221262e-07
0.0085736126
5.1114004e-07
0.012686773
3.5899302e-07
0.016680259
4.9283145e-12
0.019205569
-3.5899835e-07
0.019205569
-5.1117418e-07
0.016680259
-4.5225548e-07
0.012686773
-3.1071684e-07
0.0085736126
-1.8221232e-07
0.0052376839
-9.5448158e-08
0.0029404698
-4.5416539e-08
0.0015362527
-1.9512213e-08
0.0007514668
-7.3064462e-09
0.00034269904
-2.1547484e-09
0.00014226449
-3.5006731e-10
4.9740829e-05
1.0128828e-05
3.5874604e-10
1.0128469e-05
2.0980306e-09
4.9739089e-05
6.9936659e-09
0.00014225959
1.8512747e-08
0.00034268751
4.2879199e-08
0.00075144242
8.9906181e-08
0.0015362057
1.7151055e-07
0.0029403882
2.9256285e-07
0.0052375628
4.2636316e-07
0.0085734788
4.8304567e-07
0.012686717
3.4025674e-07
0.016680402
4.8898748e-12
0.01920591
-3.4026234e-07
0.01920591
-4.8308052e-07
0.016680402
-4.2640704e-07
0.012686717
-2.9257475e-07
0.0085734788
-1.7145523e-07
0.0052375628
-8.9775636e-08
0.0029403882
-4.2701114e-08
0.0015362057
-1.8336158e-08
0.00075144243
-6.8605321e-09
0.00034268751
-2.0202039e-09
0.00014225959
-3.2671215e-10
4.973909e-05
1.0128469e-05
3.3752608e-10
1.0128131e-05
1.9740746e-09
4.9737452e-05
6.5808493e-09
0.00014225498
1.7421286e-08
0.00034267667
4.0355544e-08
0.00075141949
8.4629439e-08
0.0015361614
1.6149445e-07
0.0029403113
2.7564342e-07
0.0052374487
4.0217895e-07
0.0085733523
4.5658076e-07
0.012686662
3.2245479e-07
0.016680536
4.7390968e-12
0.019206232
-3.2246091e-07
0.019206232
-4.5661663e-07
0.016680536
-4.0222425e-07
0.012686662
-2.7565652e-07
0.0085733523
-1.6143919e-07
0.0052374487
-8.4497257e-08
0.0029403113
-4.0174397e-08
0.0015361614
-1.7241176e-08
0.00075141949
-6.4448031e-09
0.00034267667
-1.8944276e-09
0.00014225498
-3.0471137e-10
4.9737453e-05
1.0128131e-05
3.1777167e-10
1.0127813e-05
1.8586812e-09
4.973591e-05
6.1965146e-09
0.00014225064
1.6404943e-08
0.00034266646
3.8004899e-08
0.00075139788
7.9712277e-08
0.0015361197
1.5215387e-07
0.0029402389
2.5984205e-07
0.005237341
3.7952937e-07
0.0085732326
4.3170064e-07
0.01268661
3.0564177e-07
0.016680662
4.4698519e-12
0.019206538
-3.0564872e-07
0.019206538
-4.3173798e-07
0.016680662
-3.7957665e-07
0.01268661
-2.5985669e-07
0.0085732326
-1.520983e-07
0.005237341
-7.9577173e-08
0.0029402389
-3.7818762e-08
0.0015361197
-1.6219319e-08
0.00075139789
-6.0560291e-09
0.00034266646
-1.7763146e-09
0.00014225064
-2.8380896e-10
4.9735911e-05
1.0127814e-05
2.9934852e-10
1.0127514e-05
1.7510447e-09
4.9734458e-05
5.8379788e-09
0.00014224655
1.5456743e-08
0.00034265684
3.5811552e-08
0.00075137753
7.5122761e-08
0.0015360804
1.4342991e-07
0.0029401706
2.4506389e-07
0.0052372394
3.5828673e-07
0.0085731194
4.082117e-07
0.01268656
2.8963438e-07
0.01668078
4.0803848e-12
0.019206827
-2.896425e-07
0.019206827
-4.0825113e-07
0.01668078
-3.5833675e-07
0.01268656
-2.4508045e-07
0.0085731194
-1.4337346e-07
0.0052372393
-7.4982933e-08
0.0029401706
-3.5617798e-08
0.0015360804
-1.5262928e-08
0.00075137753
-5.691021e-09
0.00034265684
-1.6647683e-09
0.00014224656
-2.6375305e-10
4.9734459e-05
1.0127514e-05
2.8215964e-10
1.0127232e-05
1.6506075e-09
4.9733089e-05
5.5033702e-09
0.0001422427
1.4571579e-08
0.00034264776
3.3763245e-08
0.00075135833
7.0834726e-08
0.0015360433
1.3527381e-07
0.0029401061
2.3123201e-07
0.0052371434
3.3836297e-07
0.0085730123
3.8613852e-07
0.012686512
2.7455403e-07
0.016680892
3.5725899e-12
0.019207102
-2.7456372e-07
0.019207102
-3.8618081e-07
0.016680892
-3.3841666e-07
0.012686512
-2.3125093e-07
0.0085730122
-1.3521564e-07
0.0052371434
-7.0687848e-08
0.0029401061
-3.3558536e-08
0.0015360433
-1.4366195e-08
0.00075135834
-5.3473812e-09
0.00034264777
-1.5589251e-09
0.0001422427
-2.4432133e-10
4.973309e-05
1.0127232e-05
2.6608652e-10
1.0126965e-05
1.5566387e-09
4.9731798e-05
5.1902591e-09
0.00014223906
1.3743283e-08
0.00034263921
3.1846564e-08
0.00075134022
6.6821611e-08
0.0015360083
1.2763617e-07
0.0029400453
2.1826247e-07
0.0052370528
3.1963016e-07
0.0085729109
3.6523879e-07
0.012686467
2.6014842e-07
0.016680997
2.96529e-12
0.019207362
-2.6016011e-07
0.019207362
-3.6528484e-07
0.016680997
-3.1968863e-07
0.012686467
-2.1828423e-07
0.0085729109
-1.2757526e-07
0.0052370528
-6.6664833e-08
0.0029400453
-3.1626858e-08
0.0015360083
-1.3522268e-08
0.00075134023
-5.0221752e-09
0.00034263921
-1.4577647e-09
0.00014223907
-2.2527864e-10
4.9731798e-05
1.0126966e-05
2.5108125e-10
1.0126714e-05
1.4688946e-09
4.9730579e-05
4.8978082e-09
0.00014223563
1.296924e-08
0.00034263113
3.005423e-08
0.00075132314
6.3066377e-08
0.0015359753
1.2048524e-07
0.0029399879
2.061109e-07
0.0052369672
3.0205867e-07
0.008572815
3.4564134e-07
0.012686423
2.4663961e-07
0.016681096
2.3067204e-12
0.019207609
-2.4665369e-07
0.019207609
-3.4569215e-07
0.016681096
-3.0212314e-07
0.012686423
-2.0613598e-07
0.0085728149
-1.2042028e-07
0.0052369671
-6.2896321e-08
0.0029399879
-2.9814806e-08
0.0015359753
-1.272788e-08
0.00075132314
-4.7140902e-09
0.00034263114
-1.3607745e-09
0.00014223564
-2.0646964e-10
4.973058e-05
1.0126714e-05
2.3701148e-10
1.0126477e-05
1.3865268e-09
4.9729429e-05
4.6232187e-09
0.0001422324
1.2242682e-08
0.00034262351
2.8372605e-08
0.000751307
5.9543731e-08
0.0015359442
1.1377343e-07
0.0029399337
1.9468697e-07
0.0052368863
2.8548562e-07
0.0085727242
3.2700366e-07
0.012686382
2.3366392e-07
0.016681189
1.6705657e-12
0.019207842
-2.3368071e-07
0.019207842
-3.2706024e-07
0.016681189
-2.8555739e-07
0.012686382
-1.9471578e-07
0.0085727242
-1.1370286e-07
0.0052368862
-5.9356541e-08
0.0029399337
-2.8108171e-08
0.0015359442
-1.1975763e-08
0.00075130701
-4.4199968e-09
0.00034262352
-1.2669357e-09
0.0001422324
-1.8770109e-10
4.972943e-05
1.0126477e-05
2.2391881e-10
1.0126253e-05
1.3098814e-09
4.9728342e-05
4.3675777e-09
0.00014222934
1.156544e-08
0.00034261631
2.6802668e-08
0.00075129176
5.6250528e-08
0.0015359147
1.074946e-07
0.0029398824
1.8399978e-07
0.0052368098
2.6998506e-07
0.0085726382
3.0962695e-07
0.012686342
2.2159984e-07
0.016681277
1.1864719e-12
0.019208064
-2.2161943e-07
0.019208064
-3.096902e-07
0.016681277
-2.7006533e-07
0.012686342
-1.8403262e-07
0.0085726382
-1.0741657e-07
0.0052368097
-5.6041917e-08
0.0029398824
-2.6507421e-08
0.0015359147
-1.1267259e-08
0.00075129177
-4.1406055e-09
0.00034261632
-1.1763671e-09
0.00014222934
-1.6891708e-10
4.9728343e-05
1.0126253e-05
2.1158394e-10
1.0126041e-05
1.2375079e-09
4.9727316e-05
4.126161e-09
0.00014222645
1.0926711e-08
0.00034260951
2.5324714e-08
0.00075127736
5.3154125e-08
0.0015358869
1.0158795e-07
0.002939834
1.7391935e-07
0.0052367374
2.552949e-07
0.0085725569
2.9298522e-07
0.012686304
2.0990965e-07
0.01668136
9.6166747e-13
0.019208274
-2.0993195e-07
0.019208274
-2.9305586e-07
0.01668136
-2.5538467e-07
0.012686304
-1.7395625e-07
0.0085725568
-1.0150034e-07
0.0052367374
-5.2919531e-08
0.002939834
-2.499261e-08
0.0015358869
-1.0591404e-08
0.00075127737
-3.8711166e-09
0.00034260951
-1.0875971e-09
0.00014222645
-1.4989982e-10
4.9727317e-05
1.0126042e-05
2.0028797e-10
1.0125841e-05
1.1713066e-09
4.9726344e-05
3.9050673e-09
0.00014222371
1.0339685e-08
0.00034260307
2.3960097e-08
0.00075126374
5.0283732e-08
0.0015358605
9.6103738e-08
0.0029397882
1.6456899e-07
0.005236669
2.416996e-07
0.0085724797
2.7768142e-07
0.012686268
1.9922285e-07
0.016681439
1.2179507e-12
0.019208473
-1.9924732e-07
0.019208473
-2.7775969e-07
0.016681439
-2.4179933e-07
0.012686268
-1.6460943e-07
0.0085724797
-9.600402e-08
0.0052366689
-5.0018402e-08
0.0029397881
-2.3585059e-08
0.0015358605
-9.9614523e-09
0.00075126375
-3.6177479e-09
0.00034260308
-1.0026313e-09
0.00014222371
-1.3099271e-10
4.9726346e-05
1.0125841e-05
1.8942823e-10
1.0125652e-05
1.107352e-09
4.9725426e-05
3.6916981e-09
0.00014222112
9.7762628e-09
0.00034259698
2.266009e-08
0.00075125085
4.7565971e-08
0.0015358356
9.0918573e-08
0.0029397448
1.5569563e-07
0.0052366042
2.2871156e-07
0.0085724067
2.6288283e-07
0.012686234
1.8874597e-07
0.016681513
1.9536084e-12
0.019208662
-1.8877212e-07
0.019208662
-2.6296896e-07
0.016681513
-2.2882108e-07
0.012686234
-1.5573789e-07
0.0085724067
-9.0802878e-08
0.0052366041
-4.7264097e-08
0.0029397448
-2.2235431e-08
0.0015358356
-9.3490789e-09
0.00075125086
-3.3678855e-09
0.00034259699
-9.1760011e-10
0.00014222113
-1.1163808e-10
4.9725428e-05
1.0125652e-05
1.8014008e-10
1.0125472e-05
1.0528927e-09
4.9724553e-05
3.5091006e-09
0.00014221867
9.2875519e-09
0.0003425912
2.1512578e-08
0.00075123862
4.5130133e-08
0.001535812
8.6238487e-08
0.0029397037
1.4769736e-07
0.0052365427
2.1706317e-07
0.0085723374
2.4974123e-07
0.012686202
1.795298e-07
0.016681583
3.347911e-12
0.019208841
-1.7955679e-07
0.019208841
-2.4983518e-07
0.016681583
-2.1718171e-07
0.012686202
-1.4773826e-07
0.0085723373
-8.6101199e-08
0.0052365427
-4.478482e-08
0.0029397037
-2.1031641e-08
0.001535812
-8.8062789e-09
0.00075123863
-3.1456509e-09
0.00034259121
-8.4055318e-10
0.00014221867
-9.3358197e-11
4.9724555e-05
1.0125472e-05
1.691242e-10
1.0125303e-05
9.8816581e-10
4.9723734e-05
3.2959883e-09
0.00014221636
8.7383353e-09
0.00034258576
2.0285663e-08
0.00075122707
4.2649862e-08
0.0015357896
8.1626934e-08
0.0029396647
1.3991681e-07
0.0052364845
2.0573192e-07
0.0085722716
2.3680088e-07
0.012686171
1.7035842e-07
0.01668165
5.561451e-12
0.019209011
-1.7038556e-07
0.019209011
-2.3690312e-07
0.01668165
-2.0585907e-07
0.012686171
-1.3995289e-07
0.0085722715
-8.1463059e-08
0.0052364844
-4.2258685e-08
0.0029396647
-1.975143e-08
0.0015357897
-8.2108305e-09
0.00075122708
-2.9022619e-09
0.00034258577
-7.6042623e-10
0.00014221636
-7.6862098e-11
4.9723736e-05
1.0125303e-05
1.6440188e-10
1.0125139e-05
9.6041752e-10
4.9722937e-05
3.1970612e-09