/*--------------------------------*- C++ -*----------------------------------*\
| =========                 |                                                 |
| \\      /  F ield         | OpenFOAM: The Open Source CFD Toolbox           |
|  \\    /   O peration     | Version:  2406                                  |
|   \\  /    A nd           | Website:  www.openfoam.com                      |
|    \\/     M anipulation  |                                                 |
\*---------------------------------------------------------------------------*/
FoamFile
{
    version     2.0;
    format      ascii;
    arch        "LSB;label=32;scalar=64";
    class       volVectorField;
    location    "22";
    object      U;
}
// * * * * * * * * * * * * * * * * * * * * * * * * * * * * * * * * * * * * * //

dimensions      [0 1 -1 0 0 0 0];

internalField   nonuniform List<vector> 
1176
(
(0.019493789 7.0786137e-07 0)
(0.066677318 8.1696484e-06 0)
(0.13357994 3.9503153e-05 0)
(0.22724701 0.00010873576 0)
(0.35591522 0.00021176029 0)
(0.52772023 0.00030396292 0)
(0.74780387 0.00031818031 0)
(1.0136216 0.00024904603 0)
(1.3093323 0.00016667012 0)
(1.6017081 0.00011264697 0)
(1.8421723 7.0214293e-05 0)
(1.9793239 2.3941129e-05 0)
(1.9793239 -2.3939892e-05 0)
(1.8421723 -7.0212156e-05 0)
(1.6017081 -0.00011264273 0)
(1.3093323 -0.0001666632 0)
(1.0136215 -0.00024903656 0)
(0.74780384 -0.00031816576 0)
(0.52772019 -0.00030393649 0)
(0.35591518 -0.00021171813 0)
(0.22724696 -0.00010868541 0)
(0.13357991 -3.9458179e-05 0)
(0.066677297 -8.142769e-06 0)
(0.019493782 -7.0153263e-07 0)
(0.020187017 -3.7419206e-06 0)
(0.068813532 -2.4638651e-05 0)
(0.13732107 -9.6548571e-05 0)
(0.23247391 -0.00024839462 0)
(0.36204617 -0.00047268782 0)
(0.53373556 -0.00067421181 0)
(0.75267407 -0.00069486936 0)
(1.0170176 -0.00049687355 0)
(1.3116385 -0.00023345902 0)
(1.6034438 -4.9824213e-05 0)
(1.8436588 1.9764984e-05 0)
(1.9807026 1.3428093e-05 0)
(1.9807026 -1.3427249e-05 0)
(1.8436588 -1.9764206e-05 0)
(1.6034438 4.9824669e-05 0)
(1.3116385 0.00023345822 0)
(1.0170177 0.00049687006 0)
(0.75267409 0.00069486194 0)
(0.53373557 0.0006741985 0)
(0.36204616 0.00047266874 0)
(0.23247389 0.00024837443 0)
(0.13732105 9.6532519e-05 0)
(0.06881352 2.46298e-05 0)
(0.020187012 3.7400336e-06 0)
(0.020018442 2.0918341e-06 0)
(0.068327405 1.2720759e-05 0)
(0.13655404 4.687723e-05 0)
(0.23159544 0.00011389735 0)
(0.36138708 0.00019769264 0)
(0.53366969 0.00023903233 0)
(0.75344344 0.00020559815 0)
(1.0184881 0.00011361118 0)
(1.3134639 7.4313602e-05 0)
(1.6053464 7.9532862e-05 0)
(1.8455118 7.0516529e-05 0)
(1.9825245 2.782584e-05 0)
(1.9825245 -2.782504e-05 0)
(1.8455118 -7.0515845e-05 0)
(1.6053464 -7.9532745e-05 0)
(1.3134639 -7.4314436e-05 0)
(1.0184881 -0.00011361315 0)
(0.75344343 -0.00020559945 0)
(0.53366968 -0.00023903728 0)
(0.36138709 -0.00019769896 0)
(0.23159545 -0.00011390398 0)
(0.13655405 -4.6882773e-05 0)
(0.068327409 -1.2724042e-05 0)
(0.020018443 -2.0926036e-06 0)
(0.019966547 7.0075854e-07 0)
(0.068159231 4.6870169e-06 0)
(0.13624021 1.9355378e-05 0)
(0.2311194 5.6456068e-05 0)
(0.36078093 0.00013444553 0)
(0.53306293 0.00025829305 0)
(0.75295637 0.00035344731 0)
(1.0181104 0.00036911992 0)
(1.313184 0.00030758861 0)
(1.6051633 0.00022777225 0)
(1.8453995 0.00014555933 0)
(1.9824491 4.999742e-05 0)
(1.9824491 -4.9996485e-05 0)
(1.8453995 -0.00014555801 0)
(1.6051633 -0.00022777075 0)
(1.313184 -0.00030758647 0)
(1.0181104 -0.00036911924 0)
(0.75295637 -0.00035345051 0)
(0.53306293 -0.00025829628 0)
(0.36078093 -0.00013444867 0)
(0.2311194 -5.6457702e-05 0)
(0.13624021 -1.9355606e-05 0)
(0.068159231 -4.6868003e-06 0)
(0.019966547 -7.006537e-07 0)
(0.019942203 2.9076145e-07 0)
(0.068078703 1.9871658e-06 0)
(0.13608628 8.2360371e-06 0)
(0.23087699 2.3699193e-05 0)
(0.36044744 5.6881457e-05 0)
(0.53266448 0.00012306869 0)
(0.75256878 0.00022681804 0)
(1.017808 0.00032272206 0)
(1.3129044 0.00034572442 0)
(1.604912 0.00030729949 0)
(1.8452029 0.00021095285 0)
(1.9822898 7.4614567e-05 0)
(1.9822898 -7.4613849e-05 0)
(1.8452029 -0.00021095171 0)
(1.604912 -0.00030729812 0)
(1.3129044 -0.00034572424 0)
(1.017808 -0.00032272315 0)
(0.75256877 -0.00022682165 0)
(0.53266448 -0.00012307371 0)
(0.36044744 -5.6886853e-05 0)
(0.23087699 -2.3703592e-05 0)
(0.13608628 -8.2388915e-06 0)
(0.068078702 -1.9885677e-06 0)
(0.019942203 -2.9104297e-07 0)
(0.019933132 1.7180533e-07 0)
(0.068047755 1.1940272e-06 0)
(0.13602488 5.0650995e-06 0)
(0.23077535 1.4968708e-05 0)
(0.36029898 3.6219371e-05 0)
(0.5324792 7.6944105e-05 0)
(0.75239427 0.00014713765 0)
(1.0177222 0.00023749024 0)
(1.3129292 0.00028525581 0)
(1.6049746 0.00027441458 0)
(1.8452865 0.0001964458 0)
(1.9823834 7.117686e-05 0)
(1.9823834 -7.1176431e-05 0)
(1.8452865 -0.00019644482 0)
(1.6049746 -0.00027441313 0)
(1.3129292 -0.00028525517 0)
(1.0177222 -0.00023749098 0)
(0.75239427 -0.00014713973 0)
(0.5324792 -7.6946975e-05 0)
(0.36029898 -3.6222325e-05 0)
(0.23077535 -1.4971122e-05 0)
(0.13602489 -5.0667119e-06 0)
(0.068047755 -1.1948492e-06 0)
(0.019933132 -1.7197761e-07 0)
(0.0199234 1.558629e-07 0)
(0.068015506 1.0700146e-06 0)
(0.13596286 4.4933483e-06 0)
(0.23067607 1.3195303e-05 0)
(0.36015773 3.185697e-05 0)
(0.53230178 6.6958151e-05 0)
(0.75221429 0.0001241189 0)
(1.0176105 0.00019917059 0)
(1.3129358 0.00025490844 0)
(1.6050904 0.00024595148 0)
(1.8454579 0.00018127857 0)
(1.9825798 6.6548295e-05 0)
(1.9825798 -6.6548206e-05 0)
(1.8454579 -0.00018127798 0)
(1.6050904 -0.00024595054 0)
(1.3129358 -0.00025490798 0)
(1.0176105 -0.00019917107 0)
(0.75221429 -0.0001241201 0)
(0.53230178 -6.6959652e-05 0)
(0.36015773 -3.1858393e-05 0)
(0.23067607 -1.3196372e-05 0)
(0.13596286 -4.4940057e-06 0)
(0.068015507 -1.0703301e-06 0)
(0.0199234 -1.5592727e-07 0)
(0.019915697 1.2757366e-07 0)
(0.067989792 8.7795872e-07 0)
(0.13591293 3.6958976e-06 0)
(0.23059503 1.0901479e-05 0)
(0.36003987 2.6613253e-05 0)
(0.53214753 5.7237114e-05 0)
(0.75204133 0.00010911059 0)
(1.0174723 0.00017936644 0)
(1.3128926 0.00023802487 0)
(1.6051414 0.00023746742 0)
(1.8455877 0.00017750651 0)
(1.9827514 6.5539228e-05 0)
(1.9827514 -6.5539258e-05 0)
(1.8455877 -0.0001775063 0)
(1.6051414 -0.00023746715 0)
(1.3128926 -0.00023802494 0)
(1.0174723 -0.00017936689 0)
(0.75204133 -0.00010911109 0)
(0.53214753 -5.7237513e-05 0)
(0.36003987 -2.6613535e-05 0)
(0.23059503 -1.0901671e-05 0)
(0.13591293 -3.6960294e-06 0)
(0.067989792 -8.7803124e-07 0)
(0.019915697 -1.2759202e-07 0)
(0.019909217 1.0464954e-07 0)
(0.067968141 7.2309855e-07 0)
(0.13587084 3.0520452e-06 0)
(0.23052654 9.0117815e-06 0)
(0.35993984 2.1999885e-05 0)
(0.53201542 4.7473537e-05 0)
(0.75188901 9.2014254e-05 0)
(1.0173341 0.0001561821 0)
(1.3128278 0.00021699689 0)
(1.6051595 0.00022709623 0)
(1.8456699 0.00017232614 0)
(1.982868 6.4147612e-05 0)
(1.982868 -6.4147607e-05 0)
(1.8456699 -0.00017232617 0)
(1.6051595 -0.00022709643 0)
(1.3128278 -0.00021699729 0)
(1.0173341 -0.00015618234 0)
(0.75188901 -9.2014042e-05 0)
(0.53201542 -4.7472899e-05 0)
(0.35993984 -2.1999081e-05 0)
(0.23052654 -9.0111e-06 0)
(0.13587084 -3.0516204e-06 0)
(0.067968141 -7.2290035e-07 0)
(0.019909217 -1.0461415e-07 0)
(0.019903971 8.6123221e-08 0)
(0.067950552 5.969492e-07 0)
(0.13583649 2.5273684e-06 0)
(0.2304703 7.4916406e-06 0)
(0.35985692 1.8376399e-05 0)
(0.53190436 3.9835883e-05 0)
(0.75175836 7.7712428e-05 0)
(1.0172122 0.00013432463 0)
(1.3127613 0.00019323388 0)
(1.6051772 0.00021058348 0)
(1.8457533 0.00016272962 0)
(1.9829863 6.1084219e-05 0)
(1.9829863 -6.1084206e-05 0)
(1.8457533 -0.00016272981 0)
(1.6051772 -0.00021058395 0)
(1.3127613 -0.00019323434 0)
(1.0172122 -0.0001343246 0)
(0.75175836 -7.7711631e-05 0)
(0.53190436 -3.9834409e-05 0)
(0.35985692 -1.8374693e-05 0)
(0.2304703 -7.4902019e-06 0)
(0.13583649 -2.5264368e-06 0)
(0.067950552 -5.9649464e-07 0)
(0.019903971 -8.6035308e-08 0)
(0.019899543 7.3357323e-08 0)
(0.067935688 5.0896803e-07 0)
(0.13580742 2.1569147e-06 0)
(0.23042259 6.402838e-06 0)
(0.35978626 1.5747738e-05 0)
(0.5318089 3.4278049e-05 0)
(0.75164409 6.7204889e-05 0)
(1.017102 0.00011723023 0)
(1.3126976 0.00017262485 0)
(1.6051928 0.0001930891 0)
(1.8458371 0.00015219863 0)
(1.9831061 5.7544799e-05 0)
(1.9831061 -5.7544783e-05 0)
(1.8458371 -0.00015219888 0)
(1.6051928 -0.00019308964 0)
(1.3126976 -0.00017262528 0)
(1.017102 -0.00011723001 0)
(0.75164409 -6.7203638e-05 0)
(0.5318089 -3.427588e-05 0)
(0.35978626 -1.5745252e-05 0)
(0.23042259 -6.4007315e-06 0)
(0.13580742 -2.1555326e-06 0)
(0.067935688 -5.082851e-07 0)
(0.019899543 -7.322286e-08 0)
(0.019895721 6.3730616e-08 0)
(0.06792285 4.4253997e-07 0)
(0.13578228 1.8767847e-06 0)
(0.23038125 5.5766214e-06 0)
(0.35972483 1.3738834e-05 0)
(0.53172535 2.9998211e-05 0)
(0.75154264 5.9111803e-05 0)
(1.0170011 0.00010388844 0)
(1.3126344 0.00015540301 0)
(1.6052015 0.00017849538 0)
(1.8459125 0.00014271559 0)
(1.9832185 5.4330664e-05 0)
(1.9832185 -5.4330631e-05 0)
(1.8459125 -0.00014271587 0)
(1.6052015 -0.00017849595 0)
(1.3126344 -0.00015540345 0)
(1.0170011 -0.00010388809 0)
(0.75154264 -5.9110155e-05 0)
(0.53172535 -2.9995383e-05 0)
(0.35972483 -1.3735585e-05 0)
(0.23038125 -5.5738528e-06 0)
(0.13578228 -1.8749542e-06 0)
(0.06792285 -4.416296e-07 0)
(0.019895721 -6.3550037e-08 0)
(0.019892371 5.6095224e-08 0)
(0.067911586 3.8980323e-07 0)
(0.13576021 1.6541795e-06 0)
(0.2303449 4.9188588e-06 0)
(0.35967069 1.2132144e-05 0)
(0.53165136 2.6542595e-05 0)
(0.7514519 5.249895e-05 0)
(1.0169086 9.2875884e-05 0)
(1.3125728 0.00014061508 0)
(1.605205 0.00016529634 0)
(1.8459798 0.00013398941 0)
(1.9833221 5.1387552e-05 0)
(1.9833221 -5.1387504e-05 0)
(1.8459798 -0.00013398972 0)
(1.605205 -0.00016529699 0)
(1.3125728 -0.00014061559 0)
(1.0169086 -9.2875442e-05 0)
(0.7514519 -5.2496914e-05 0)
(0.53165136 -2.6539083e-05 0)
(0.35967069 -1.212809e-05 0)
(0.2303449 -4.9153913e-06 0)
(0.13576021 -1.6518779e-06 0)
(0.067911586 -3.8865519e-07 0)
(0.019892371 -5.5866785e-08 0)
(0.019889403 4.9854786e-08 0)
(0.067901606 3.4664475e-07 0)
(0.13574064 1.4718185e-06 0)
(0.23031264 4.3794731e-06 0)
(0.35962253 1.0812413e-05 0)
(0.53158531 2.3691514e-05 0)
(0.75137029 4.6984242e-05 0)
(1.016824 8.3546424e-05 0)
(1.3125139 0.00012773762 0)
(1.6052051 0.00015293367 0)
(1.8460415 0.00012582058 0)
(1.9834196 4.8616654e-05 0)
(1.9834196 -4.8616602e-05 0)
(1.8460415 -0.00012582097 0)
(1.6052051 -0.00015293448 0)
(1.3125139 -0.00012773828 0)
(1.016824 -8.3545923e-05 0)
(0.75137029 -4.6981786e-05 0)
(0.53158531 -2.3687242e-05 0)
(0.35962253 -1.0807472e-05 0)
(0.23031264 -4.3752425e-06 0)
(0.13574064 -1.4690089e-06 0)
(0.067901607 -3.4524284e-07 0)
(0.019889403 -4.9575647e-08 0)
(0.019886752 4.4704703e-08 0)
(0.067892685 3.1097034e-07 0)
(0.13572313 1.3208681e-06 0)
(0.23028375 3.9322769e-06 0)
(0.35957935 9.7159581e-06 0)
(0.53152592 2.1315658e-05 0)
(0.75129648 4.2360312e-05 0)
(1.0167465 7.5619966e-05 0)
(1.3124581 0.00011654249 0)
(1.6052027 0.00014169895 0)
(1.8460982 0.00011827129 0)
(1.9835117 4.6031763e-05 0)
(1.9835117 -4.6031721e-05 0)
(1.8460982 -0.00011827179 0)
(1.6052027 -0.00014169998 0)
(1.3124581 -0.00011654333 0)
(1.0167465 -7.5619399e-05 0)
(0.75129648 -4.2357375e-05 0)
(0.53152592 -2.131053e-05 0)
(0.35957935 -9.7100289e-06 0)
(0.23028375 -3.9272069e-06 0)
(0.13572313 -1.3175058e-06 0)
(0.067892685 -3.0929426e-07 0)
(0.019886752 -4.4371118e-08 0)
(0.019884362 4.0392082e-08 0)
(0.067884643 2.8106481e-07 0)
(0.13570735 1.1942022e-06 0)
(0.23025769 3.5565477e-06 0)
(0.35954035 8.7929537e-06 0)
(0.53147216 1.931007e-05 0)
(0.75122934 3.8440179e-05 0)
(1.0166753 6.8838981e-05 0)
(1.3124053 0.00010678367 0)
(1.6051982 0.00013155255 0)
(1.8461504 0.00011132836 0)
(1.9835985 4.3631387e-05 0)
(1.9835985 -4.3631363e-05 0)
(1.8461504 -0.00011132899 0)
(1.6051982 -0.00013155383 0)
(1.3124053 -0.00010678472 0)
(1.0166753 -6.8838329e-05 0)
(0.75122933 -3.8436696e-05 0)
(0.53147216 -1.9303993e-05 0)
(0.35954035 -8.7859427e-06 0)
(0.23025769 -3.5505664e-06 0)
(0.13570735 -1.1902436e-06 0)
(0.067884644 -2.7909429e-07 0)
(0.019884362 -4.0000181e-08 0)
(0.019882195 3.6717104e-08 0)
(0.067877348 2.5556394e-07 0)
(0.13569303 1.0861237e-06 0)
(0.23023403 3.2356849e-06 0)
(0.3595049 8.0036289e-06 0)
(0.5314232 1.7590944e-05 0)
(0.75116796 3.5067205e-05 0)
(1.0166096 6.2964141e-05 0)
(1.3123553 9.8203326e-05 0)
(1.6051923 0.00012233392 0)
(1.8461982 0.00010491358 0)
(1.9836803 4.1390739e-05 0)
(1.9836803 -4.1390734e-05 0)
(1.8461982 -0.00010491434 0)
(1.6051923 -0.00012233547 0)
(1.3123553 -9.8204597e-05 0)
(1.0166096 -6.2963382e-05 0)
(0.75116796 -3.5063121e-05 0)
(0.5314232 -1.7583844e-05 0)
(0.3595049 -7.9954621e-06 0)
(0.23023403 -3.2287345e-06 0)
(0.13569303 -1.0815327e-06 0)
(0.067877349 -2.5328183e-07 0)
(0.019882195 -3.6263513e-08 0)
(0.019880219 3.3544735e-08 0)
(0.067870695 2.3353746e-07 0)
(0.13567996 9.9271918e-07 0)
(0.23021243 2.958206e-06 0)
(0.35947252 7.3203298e-06 0)
(0.53137842 1.6100124e-05 0)
(0.75111164 3.2132942e-05 0)
(1.0165488 5.7823346e-05 0)
(1.3123082 9.060257e-05 0)
(1.6051852 0.00011395376 0)
(1.8462423 9.8956471e-05 0)
(1.9837576 3.928928e-05 0)
(1.9837576 -3.9289287e-05 0)
(1.8462423 -9.8957391e-05 0)
(1.6051852 -0.00011395559 0)
(1.3123082 -9.0604057e-05 0)
(1.0165488 -5.7822458e-05 0)
(0.75111164 -3.212822e-05 0)
(0.53137842 -1.6091954e-05 0)
(0.35947252 -7.3109609e-06 0)
(0.23021243 -2.9502504e-06 0)
(0.13567996 -9.8747302e-07 0)
(0.067870696 -2.3093254e-07 0)
(0.01988022 -3.3027172e-08 0)
(0.019878409 3.0780752e-08 0)
(0.0678646 2.143355e-07 0)
(0.13566798 9.1125035e-07 0)
(0.23019263 2.7160397e-06 0)
(0.35944282 6.7234516e-06 0)
(0.53133728 1.4795974e-05 0)
(0.75105976 2.9559582e-05 0)
(1.0164925 5.3292448e-05 0)
(1.3122638 8.3831666e-05 0)
(1.6051772 0.00010632444 0)
(1.846283 9.340383e-05 0)
(1.9838307 3.731281e-05 0)
(1.9838307 -3.7312819e-05 0)
(1.846283 -9.34049e-05 0)
(1.6051772 -0.00010632656 0)
(1.3122638 -8.3833361e-05 0)
(1.0164925 -5.3291415e-05 0)
(0.75105976 -2.9554202e-05 0)
(0.53133728 -1.4786716e-05 0)
(0.35944282 -6.7128663e-06 0)
(0.23019263 -2.7070687e-06 0)
(0.13566798 -9.0534252e-07 0)
(0.0678646 -2.1140446e-07 0)
(0.01987841 -3.0198475e-08 0)
(0.019876745 2.8351165e-08 0)
(0.067858993 1.9744896e-07 0)
(0.13565697 8.3957637e-07 0)
(0.23017441 2.5028826e-06 0)
(0.35941547 6.1976676e-06 0)
(0.53129936 1.3645737e-05 0)
(0.75101183 2.7285171e-05 0)
(1.0164401 4.9271604e-05 0)
(1.3122219 7.7767798e-05 0)
(1.6051688 9.9356584e-05 0)
(1.8463207 8.8214265e-05 0)
(1.9838998 3.5449954e-05 0)
(1.9838998 -3.5449954e-05 0)
(1.8463207 -8.8215477e-05 0)
(1.6051688 -9.9358978e-05 0)
(1.3122219 -7.7769689e-05 0)
(1.0164401 -4.9270415e-05 0)
(0.75101183 -2.7279132e-05 0)
(0.53129936 -1.3635403e-05 0)
(0.35941547 -6.1858849e-06 0)
(0.23017441 -2.4929141e-06 0)
(0.13565697 -8.330185e-07 0)
(0.067858993 -1.9419744e-07 0)
(0.019876745 -2.7705196e-08 0)
(0.019875208 2.6197779e-08 0)
(0.067853817 1.8247689e-07 0)
(0.1356468 7.7600921e-07 0)
(0.23015758 2.3137611e-06 0)
(0.3593902 5.7308753e-06 0)
(0.53126429 1.2623479e-05 0)
(0.75096742 2.5260175e-05 0)
(1.0163914 4.5679397e-05 0)
(1.3121824 7.2308171e-05 0)
(1.6051599 9.2973926e-05 0)
(1.8463555 8.3351162e-05 0)
(1.9839652 3.3690058e-05 0)
(1.9839652 -3.3690037e-05 0)
(1.8463555 -8.3352504e-05 0)
(1.6051599 -9.2976582e-05 0)
(1.3121824 -7.2310241e-05 0)
(1.0163914 -4.5678045e-05 0)
(0.75096741 -2.5253494e-05 0)
(0.53126429 -1.261211e-05 0)
(0.3593902 -5.7179475e-06 0)
(0.23015758 -2.3028405e-06 0)
(0.1356468 -7.688312e-07 0)
(0.067853818 -1.7891956e-07 0)
(0.019875209 -2.5490944e-08 0)
(0.019873786 2.4275321e-08 0)
(0.067849027 1.6910661e-07 0)
(0.13563738 7.1922958e-07 0)
(0.230142 2.1447793e-06 0)
(0.35936679 5.3135706e-06 0)
(0.53123178 1.1708772e-05 0)
(0.75092616 2.3445367e-05 0)
(1.016346 4.2450372e-05 0)
(1.3121452 6.7367748e-05 0)
(1.6051509 8.7108183e-05 0)
(1.8463878 7.8786178e-05 0)
(1.9840271 3.202454e-05 0)
(1.9840271 -3.2024486e-05 0)
(1.8463878 -7.8787636e-05 0)
(1.6051509 -8.7111079e-05 0)
(1.3121451 -6.7369976e-05 0)
(1.016346 -4.2448855e-05 0)
(0.75092616 -2.343808e-05 0)
(0.53123178 -1.1696439e-05 0)
(0.35936679 -5.2995812e-06 0)
(0.230142 -2.132978e-06 0)
(0.13563738 -7.1147824e-07 0)
(0.067849028 -1.6526648e-07 0)
(0.019873787 -2.3512112e-08 0)
(0.019872467 2.2548211e-08 0)
(0.067844581 1.5709198e-07 0)
(0.13562864 6.6819712e-07 0)
(0.23012754 1.9928597e-06 0)
(0.35934504 4.9382304e-06 0)
(0.53120156 1.0885408e-05 0)
(0.75088776 2.1809523e-05 0)
(1.0163035 3.9532005e-05 0)
(1.31211 6.2876657e-05 0)
(1.6051418 8.1702847e-05 0)
(1.8464178 7.4493075e-05 0)
(1.9840857 3.0445252e-05 0)
(1.9840857 -3.0445156e-05 0)
(1.8464178 -7.4494631e-05 0)
(1.6051418 -8.1705955e-05 0)
(1.31211 -6.2879021e-05 0)
(1.0163035 -3.9530331e-05 0)
(0.75088776 -2.1801683e-05 0)
(0.53120156 -1.0872207e-05 0)
(0.35934505 -4.9232904e-06 0)
(0.23012754 -1.9802718e-06 0)
(0.13562864 -6.599336e-07 0)
(0.067844582 -1.5299906e-07 0)
(0.019872467 -2.1734512e-08 0)
(0.01987124 2.098801e-08 0)
(0.067840446 1.4623603e-07 0)
(0.13562051 6.2207852e-07 0)
(0.23011408 1.855535e-06 0)
(0.35932481 4.598811e-06 0)
(0.53117342 1.0140327e-05 0)
(0.75085194 2.0327386e-05 0)
(1.0162638 3.6881601e-05 0)
(1.3120768 5.8777182e-05 0)
(1.6051327 7.6707637e-05 0)
(1.8464458 7.045273e-05 0)
(1.9841412 2.894615e-05 0)
(1.9841412 -2.8946003e-05 0)
(1.8464458 -7.0454366e-05 0)
(1.6051327 -7.6710929e-05 0)
(1.3120768 -5.8779658e-05 0)
(1.0162638 -3.687978e-05 0)
(0.75085194 -2.0319061e-05 0)
(0.53117342 -1.0126374e-05 0)
(0.35932481 -4.5830528e-06 0)
(0.23011408 -1.8422709e-06 0)
(0.13562051 -6.1337455e-07 0)
(0.067840446 -1.4192546e-07 0)
(0.01987124 -2.0130718e-08 0)
(0.019870096 1.9571734e-08 0)
(0.067836592 1.363795e-07 0)
(0.13561293 5.8019937e-07 0)
(0.23010153 1.7308067e-06 0)
(0.35930594 4.2904146e-06 0)
(0.53114716 9.462928e-06 0)
(0.75081849 1.8978399e-05 0)
(1.0162266 3.4464166e-05 0)
(1.3120455 5.5021188e-05 0)
(1.6051237 7.2081763e-05 0)
(1.8464718 6.6644368e-05 0)
(1.9841938 2.7520795e-05 0)
(1.9841938 -2.7520591e-05 0)
(1.8464718 -6.6646064e-05 0)
(1.6051237 -7.2085205e-05 0)
(1.3120455 -5.5023753e-05 0)
(1.0162266 -3.4462218e-05 0)
(0.75081849 -1.8969669e-05 0)
(0.53114716 -9.4483554e-06 0)
(0.35930594 -4.2739836e-06 0)
(0.23010153 -1.7169868e-06 0)
(0.13561293 -5.7113241e-07 0)
(0.067836592 -1.3188906e-07 0)
(0.019870096 -1.8678276e-08 0)
(0.019869029 1.8280568e-08 0)
(0.067832994 1.2739199e-07 0)
(0.13560586 5.4200743e-07 0)
(0.23008981 1.6170374e-06 0)
(0.35928831 4.0090224e-06 0)
(0.53112262 8.8444977e-06 0)
(0.75078719 1.7745612e-05 0)
(1.0161917 3.2250758e-05 0)
(1.3120159 5.1568475e-05 0)
(1.6051149 6.7787379e-05 0)
(1.846496 6.3054761e-05 0)
(1.9842436 2.6165153e-05 0)
(1.9842436 -2.6164891e-05 0)
(1.846496 -6.30565e-05 0)
(1.6051149 -6.7790942e-05 0)
(1.3120159 -5.1571109e-05 0)
(1.0161917 -3.2248708e-05 0)
(0.75078719 -1.7736565e-05 0)
(0.53112262 -8.8294414e-06 0)
(0.35928832 -3.9920669e-06 0)
(0.23008981 -1.6027829e-06 0)
(0.13560586 -5.3265498e-07 0)
(0.067832995 -1.2275934e-07 0)
(0.019869029 -1.7358351e-08 0)
(0.019868031 1.7098995e-08 0)
(0.067829631 1.1916593e-07 0)
(0.13559924 5.0704713e-07 0)
(0.23007886 1.5128765e-06 0)
(0.35927183 3.7513192e-06 0)
(0.53109965 8.2778449e-06 0)
(0.75075787 1.6615017e-05 0)
(1.0161589 3.0217293e-05 0)
(1.311988 4.8385012e-05 0)
(1.6051063 6.3794873e-05 0)
(1.8465186 5.9665712e-05 0)
(1.9842909 2.4873862e-05 0)
(1.9842909 -2.4873544e-05 0)
(1.8465187 -5.966748e-05 0)
(1.6051063 -6.3798529e-05 0)
(1.311988 -4.8387703e-05 0)
(1.0161589 -3.0215171e-05 0)
(0.75075787 -1.6605739e-05 0)
(0.53109965 -8.262436e-06 0)
(0.35927183 -3.7339788e-06 0)
(0.23007886 -1.4982999e-06 0)
(0.13559924 -4.9748067e-07 0)
(0.067829631 -1.1442564e-07 0)
(0.019868031 -1.6154812e-08 0)
(0.019867096 1.601404e-08 0)
(0.067826482 1.1161146e-07 0)
(0.13559305 4.7493793e-07 0)
(0.2300686 1.4171946e-06 0)
(0.35925639 3.5145288e-06 0)
(0.53107814 7.7569324e-06 0)
(0.75073038 1.5574827e-05 0)
(1.0161281 2.8343517e-05 0)
(1.3119617 4.5442147e-05 0)
(1.6050979 6.007473e-05 0)
(1.8465398 5.6468772e-05 0)
(1.9843356 2.3644602e-05 0)
(1.9843356 -2.3644234e-05 0)
(1.8465398 -5.6470559e-05 0)
(1.6050979 -6.0078457e-05 0)
(1.3119617 -4.5444887e-05 0)
(1.0161281 -2.8341355e-05 0)
(0.75073038 -1.5565399e-05 0)
(0.53107814 -7.7412857e-06 0)
(0.35925639 -3.4969225e-06 0)
(0.2300686 -1.4023905e-06 0)
(0.13559305 -4.6521663e-07 0)
(0.067826482 -1.0679192e-07 0)
(0.019867097 -1.5053475e-08 0)
(0.019866221 1.501479e-08 0)
(0.06782353 1.0465293e-07 0)
(0.13558724 4.453595e-07 0)
(0.23005898 1.329042e-06 0)
(0.35924191 3.2963189e-06 0)
(0.53105795 7.276695e-06 0)
(0.75070457 1.4615139e-05 0)
(1.0160992 2.6612246e-05 0)
(1.3119367 4.2715044e-05 0)
(1.6050897 5.6605279e-05 0)
(1.8465596 5.3446364e-05 0)
(1.984378 2.2472392e-05 0)
(1.984378 -2.2471985e-05 0)
(1.8465596 -5.3448165e-05 0)
(1.6050897 -5.6609065e-05 0)
(1.3119367 -4.2717832e-05 0)
(1.0160992 -2.6610075e-05 0)
(0.75070457 -1.4605627e-05 0)
(0.53105795 -7.2608984e-06 0)
(0.35924191 -3.2785335e-06 0)
(0.23005898 -1.314077e-06 0)
(0.13558724 -4.3552427e-07 0)
(0.067823531 -9.9773494e-08 0)
(0.019866221 -1.4041645e-08 0)
(0.019865399 1.4091994e-08 0)
(0.067820761 9.8226297e-08 0)
(0.1355818 4.1804047e-07 0)
(0.23004995 1.2476124e-06 0)
(0.35922832 3.0947029e-06 0)
(0.531039 6.8327996e-06 0)
(0.75068032 1.3727464e-05 0)
(1.0160719 2.5008852e-05 0)
(1.3119132 4.0182812e-05 0)
(1.6050818 5.336259e-05 0)
(1.8465781 5.0594671e-05 0)
(1.9844182 2.1356476e-05 0)
(1.9844182 -2.1356046e-05 0)
(1.8465781 -5.059649e-05 0)
(1.6050818 -5.3366432e-05 0)
(1.3119132 -4.0185656e-05 0)
(1.0160719 -2.50067e-05 0)
(0.75068032 -1.3717914e-05 0)
(0.531039 -6.8169035e-06 0)
(0.35922832 -3.0767826e-06 0)
(0.23004996 -1.2325171e-06 0)
(0.1355818 -4.0810857e-07 0)
(0.067820762 -9.3294649e-08 0)
(0.0198654 -1.3107775e-08 0)
(0.019864628 1.3237726e-08 0)
(0.06781816 9.2276497e-08 0)
(0.13557668 3.9274732e-07 0)
(0.23004148 1.1722134e-06 0)
(0.35921555 2.907982e-06 0)
(0.53102119 6.4215571e-06 0)
(0.75065751 1.2904569e-05 0)
(1.0160463 2.3520635e-05 0)
(1.3118909 3.7826636e-05 0)
(1.6050743 5.0330841e-05 0)
(1.8465955 4.7894955e-05 0)
(1.9844563 2.0291544e-05 0)
(1.9844563 -2.0291108e-05 0)
(1.8465955 -4.7896801e-05 0)
(1.6050743 -5.0334746e-05 0)
(1.3118909 -3.7829551e-05 0)
(1.0160463 -2.3518526e-05 0)
(0.75065751 -1.2894998e-05 0)
(0.5310212 -6.4055661e-06 0)
(0.35921555 -2.8899186e-06 0)
(0.23004148 -1.1569744e-06 0)
(0.13557668 -3.8270742e-07 0)
(0.067818161 -8.7286276e-08 0)
(0.019864628 -1.224117e-08 0)
(0.019863903 1.2445256e-08 0)
(0.067815716 8.6756948e-08 0)
(0.13557187 3.6928233e-07 0)
(0.23003351 1.1022557e-06 0)
(0.35920355 2.7346973e-06 0)
(0.53100445 6.0397691e-06 0)
(0.75063606 1.2140168e-05 0)
(1.0160221 2.2136792e-05 0)
(1.3118699 3.5631135e-05 0)
(1.6050669 4.7489992e-05 0)
(1.8466118 4.5348733e-05 0)
(1.9844924 1.9278551e-05 0)
(1.9844924 -1.927813e-05 0)
(1.8466118 -4.5350624e-05 0)
(1.6050669 -4.749398e-05 0)
(1.3118699 -3.5634147e-05 0)
(1.0160221 -2.2134742e-05 0)
(0.75063605 -1.2130563e-05 0)
(0.53100445 -6.0236344e-06 0)
(0.35920355 -2.7164229e-06 0)
(0.23003351 -1.0868099e-06 0)
(0.13557187 -3.5909074e-07 0)
(0.067815717 -8.1685897e-08 0)
(0.019863903 -1.1431969e-08 0)
(0.019863221 1.1708641e-08 0)
(0.067813416 8.1626052e-08 0)
(0.13556735 3.4746832e-07 0)
(0.23002601 1.0372146e-06 0)
(0.35919225 2.5735666e-06 0)
(0.53098868 5.6846622e-06 0)
(0.75061585 1.1428808e-05 0)
(1.0159993 2.0847578e-05 0)
(1.31185 3.3581356e-05 0)
(1.6050599 4.482852e-05 0)
(1.8466271 4.2934099e-05 0)
(1.9845266 1.831107e-05 0)
(1.9845266 -1.8310685e-05 0)
(1.8466271 -4.2936061e-05 0)
(1.6050599 -4.4832625e-05 0)
(1.31185 -3.35845e-05 0)
(1.0159993 -2.0845595e-05 0)
(0.75061585 -1.1419119e-05 0)
(0.53098868 -5.6682761e-06 0)
(0.35919226 -2.5549477e-06 0)
(0.23002601 -1.0214438e-06 0)
(0.13556735 -3.3704555e-07 0)
(0.067813417 -7.643431e-08 0)
(0.019863221 -1.0670749e-08 0)
(0.019862579 1.1022984e-08 0)
(0.067811252 7.6850035e-08 0)
(0.13556309 3.2716153e-07 0)
(0.23001895 9.7665817e-07 0)
(0.35918162 2.4235083e-06 0)
(0.53097384 5.3538376e-06 0)
(0.75059681 1.0765761e-05 0)
(1.0159778 1.9644981e-05 0)
(1.3118312 3.1666225e-05 0)
(1.6050532 4.2329445e-05 0)
(1.8466415 4.0659477e-05 0)
(1.984559 1.7392283e-05 0)
(1.984559 -1.7391959e-05 0)
(1.8466415 -4.0661547e-05 0)
(1.6050532 -4.2333719e-05 0)
(1.3118312 -3.1669549e-05 0)
(1.0159778 -1.9643064e-05 0)
(0.75059681 -1.0755902e-05 0)
(0.53097384 -5.3370305e-06 0)
(0.35918162 -2.4043415e-06 0)
(0.23001895 -9.6038639e-07 0)
(0.13556309 -3.1639048e-07 0)
(0.067811252 -7.1479273e-08 0)
(0.019862579 -9.9489659e-09 0)
(0.019861974 1.0383592e-08 0)
(0.067809213 7.2395505e-08 0)
(0.13555907 3.0821885e-07 0)
(0.2300123 9.2016536e-07 0)
(0.3591716 2.2835078e-06 0)
(0.53095985 5.04513e-06 0)
(0.75057886 1.014676e-05 0)
(1.0159575 1.8521131e-05 0)
(1.3118134 2.9872932e-05 0)
(1.6050467 3.9984005e-05 0)
(1.8466551 3.8497158e-05 0)
(1.9845898 1.651363e-05 0)
(1.9845898 -1.6513395e-05 0)
(1.8466551 -3.8499382e-05 0)
(1.6050467 -3.9988514e-05 0)
(1.3118134 -2.9876495e-05 0)
(1.0159575 -1.8519272e-05 0)
(0.75057886 -1.0136606e-05 0)
(0.53095985 -5.0276685e-06 0)
(0.3591716 -2.2635187e-06 0)
(0.2300123 -9.0315723e-07 0)
(0.13555908 -2.9694406e-07 0)
(0.067809213 -6.6768589e-08 0)
(0.019861974 -9.2582228e-09 0)
(0.019861404 9.7870897e-09 0)
(0.067807291 6.8239709e-08 0)
(0.13555529 2.9054342e-07 0)
(0.23000603 8.674385e-07 0)
(0.35916216 2.1527919e-06 0)
(0.53094666 4.7567688e-06 0)
(0.75056193 9.5682968e-06 0)
(1.0159384 1.7470339e-05 0)
(1.3117965 2.819443e-05 0)
(1.6050405 3.7778519e-05 0)
(1.8466677 3.6465184e-05 0)
(1.9846188 1.5681537e-05 0)
(1.9846188 -1.5681419e-05 0)
(1.8466677 -3.6467617e-05 0)
(1.6050405 -3.7783349e-05 0)
(1.3117965 -2.8198303e-05 0)
(1.0159384 -1.7468522e-05 0)
(0.75056193 -9.5576838e-06 0)
(0.53094666 -4.7383549e-06 0)
(0.35916216 -2.1316333e-06 0)
(0.23000603 -8.4939752e-07 0)
(0.1355553 -2.7856927e-07 0)
(0.067807292 -6.2259599e-08 0)
(0.019861404 -8.5911799e-09 0)
(0.019860867 9.2293292e-09 0)
(0.067805479 6.4352177e-08 0)
(0.13555173 2.7400388e-07 0)
(0.23000012 8.1809866e-07 0)
(0.35915325 2.0304824e-06 0)
(0.53093421 4.4869499e-06 0)
(0.75054596 9.0268255e-06 0)
(1.0159203 1.6485666e-05 0)
(1.3117806 2.6618251e-05 0)
(1.6050346 3.5704755e-05 0)
(1.8466798 3.4526299e-05 0)
(1.9846465 1.4883855e-05 0)
(1.9846465 -1.4883881e-05 0)
(1.8466798 -3.4529006e-05 0)
(1.6050346 -3.5710007e-05 0)
(1.3117806 -2.6622518e-05 0)
(1.0159203 -1.6483865e-05 0)
(0.75054595 -9.0155514e-06 0)
(0.53093421 -4.4672215e-06 0)
(0.35915325 -2.0077358e-06 0)
(0.23000012 -7.9866924e-07 0)
(0.13555173 -2.6109654e-07 0)
(0.06780548 -5.7903143e-08 0)
(0.019860867 -7.9400095e-09 0)
(0.01986036 8.7086719e-09 0)
(0.06780377 6.0723483e-08 0)
(0.13554837 2.5856091e-07 0)
(0.22999455 7.7200741e-07 0)
(0.35914485 1.9161462e-06 0)
(0.53092248 4.2345387e-06 0)
(0.75053089 8.5200412e-06 0)
(1.0159032 1.5563924e-05 0)
(1.3117655 2.5142304e-05 0)
(1.605029 3.3754366e-05 0)
(1.846691 3.271254e-05 0)
(1.9846726 1.4132004e-05 0)
(1.9846726 -1.4132194e-05 0)
(1.846691 -3.2715585e-05 0)
(1.605029 -3.3760152e-05 0)
(1.3117655 -2.5147057e-05 0)
(1.0159032 -1.5562102e-05 0)
(0.75053088 -8.5078632e-06 0)
(0.53092248 -4.2130706e-06 0)
(0.35914485 -1.8913246e-06 0)
(0.22999455 -7.5077787e-07 0)
(0.13554837 -2.4445077e-07 0)
(0.067803771 -5.3672459e-08 0)
(0.01986036 -7.2996782e-09 0)
(0.019859881 8.2204548e-09 0)
(0.067802156 5.7317693e-08 0)
(0.13554519 2.4405914e-07 0)
(0.22998928 7.2873377e-07 0)
(0.35913691 1.8088591e-06 0)
(0.53091139 3.9977951e-06 0)
(0.75051664 8.0445912e-06 0)
(1.0158871 1.4697911e-05 0)
(1.3117512 2.3751852e-05 0)
(1.6050236 3.191564e-05 0)
(1.8467017 3.0971652e-05 0)
(1.9846975 1.3408039e-05 0)
(1.9846975 -1.3408402e-05 0)
(1.8467017 -3.09751e-05 0)
(1.6050236 -3.1922076e-05 0)
(1.3117512 -2.3757184e-05 0)
(1.0158871 -1.4696013e-05 0)
(0.75051663 -8.0312277e-06 0)
(0.53091139 -3.9741075e-06 0)
(0.35913691 -1.7814208e-06 0)
(0.22998928 -7.052517e-07 0)
(0.13554519 -2.2845306e-07 0)
(0.067802157 -4.9521146e-08 0)
(0.019859882 -6.6636532e-09 0)
(0.01985943 7.7662523e-09 0)
(0.067800634 5.415072e-08 0)
(0.13554219 2.3056859e-07 0)
(0.22998431 6.8843306e-07 0)
(0.35912943 1.7087765e-06 0)
(0.53090093 3.7765887e-06 0)
(0.7505032 7.5999738e-06 0)
(1.0158719 1.3888321e-05 0)
(1.3117377 2.245296e-05 0)
(1.6050185 3.0191031e-05 0)
(1.8467116 2.9356655e-05 0)
(1.9847208 1.2731308e-05 0)
(1.9847208 -1.2731825e-05 0)
(1.8467117 -2.9360552e-05 0)
(1.6050185 -3.0198226e-05 0)
(1.3117377 -2.2458952e-05 0)
(1.0158718 -1.3886274e-05 0)
(0.7505032 -7.585107e-06 0)
(0.53090093 -3.7501537e-06 0)
(0.35912943 -1.6781289e-06 0)
(0.22998432 -6.6220286e-07 0)
(0.1355422 -2.1314391e-07 0)
(0.067800636 -4.5449971e-08 0)
(0.01985943 -6.0303479e-09 0)
(0.019859002 7.33822e-09 0)
(0.067799193 5.1159967e-08 0)
(0.13553936 2.1781941e-07 0)
(0.22997961 6.5038702e-07 0)
(0.35912234 1.6144886e-06 0)
(0.53089102 3.5685795e-06 0)
(0.75049046 7.1819635e-06 0)
(1.0158574 1.3125419e-05 0)
(1.3117249 2.122385e-05 0)
(1.6050136 2.8557821e-05 0)
(1.8467212 2.7792488e-05 0)
(1.9847433 1.2074765e-05 0)
(1.9847433 -1.2075397e-05 0)
(1.8467212 -2.7796865e-05 0)
(1.6050136 -2.8565865e-05 0)
(1.3117249 -2.1230564e-05 0)
(1.0158574 -1.3123123e-05 0)
(0.75049046 -7.1652475e-06 0)
(0.53089102 -3.5388423e-06 0)
(0.35912234 -1.5800191e-06 0)
(0.22997961 -6.2090195e-07 0)
(0.13553936 -1.9824948e-07 0)
(0.067799194 -4.1395603e-08 0)
(0.019859003 -5.3920021e-09 0)
(0.0198586 6.9466627e-09 0)
(0.067797836 4.8428978e-08 0)
(0.13553669 2.0616955e-07 0)
(0.22997518 6.1551345e-07 0)
(0.35911566 1.527643e-06 0)
(0.5308817 3.376074e-06 0)
(0.75047848 6.794154e-06 0)
(1.0158438 1.2418149e-05 0)
(1.3117128 2.0086908e-05 0)
(1.6050089 2.7041516e-05 0)
(1.84673 2.6364587e-05 0)
(1.9847642 1.1470649e-05 0)
(1.9847642 -1.1471323e-05 0)
(1.84673 -2.6369426e-05 0)
(1.6050089 -2.7050451e-05 0)
(1.3117128 -2.0094351e-05 0)
(1.0158438 -1.2415458e-05 0)
(0.75047848 -6.7752141e-06 0)