/*--------------------------------*- C++ -*----------------------------------*\
  =========                 |
  \\      /  F ield         | OpenFOAM: The Open Source CFD Toolbox
   \\    /   O peration     | Website:  https://openfoam.org
    \\  /    A nd           | Version:  10
     \\/     M anipulation  |
\*---------------------------------------------------------------------------*/
FoamFile
{
    format      ascii;
    class       volScalarField;
    location    "9.1";
    object      T_0;
}
// * * * * * * * * * * * * * * * * * * * * * * * * * * * * * * * * * * * * * //

dimensions      [0 0 -1 0 0 0 0];

internalField   nonuniform List<scalar> 
100
(
-0.0354409
-0.105066
-0.17097
-0.230817
-0.282487
-0.32415
-0.354329
-0.371956
-0.376407
-0.367523
-0.34562
-0.311472
-0.266291
-0.211676
-0.149563
-0.0821508
-0.0118287
0.0589125
0.127567
0.191702
0.249046
0.297567
0.335547
0.36164
0.374922
0.374921
0.36164
0.335547
0.297567
0.249045
0.191701
0.127566
0.0589119
-0.0118293
-0.0821514
-0.149563
-0.211677
-0.266291
-0.311473
-0.34562
-0.367523
-0.376407
-0.371956
-0.354329
-0.324149
-0.282486
-0.230816
-0.170969
-0.105066
-0.0354401
0.0354409
0.105066
0.17097
0.230817
0.282487
0.324149
0.354329
0.371956
0.376407
0.367523
0.34562
0.311472
0.266291
0.211676
0.149563
0.0821506
0.0118285
-0.0589126
-0.127567
-0.191702
-0.249046
-0.297567
-0.335547
-0.36164
-0.374922
-0.374921
-0.36164
-0.335546
-0.297566
-0.249045
-0.191701
-0.127566
-0.0589117
0.0118295
0.0821516
0.149563
0.211677
0.266292
0.311473
0.34562
0.367523
0.376407
0.371956
0.354329
0.324149
0.282486
0.230816
0.170969
0.105066
0.0354402
)
;

boundaryField
{
    inlet
    {
        type            cyclic;
    }
    outlet
    {
        type            cyclic;
    }
    bottom
    {
        type            slip;
    }
    top
    {
        type            slip;
    }
    frontAndBack
    {
        type            empty;
    }
}


// ************************************************************************* //
