/*--------------------------------*- C++ -*----------------------------------*\
  =========                 |
  \\      /  F ield         | OpenFOAM: The Open Source CFD Toolbox
   \\    /   O peration     | Website:  https://openfoam.org
    \\  /    A nd           | Version:  10
     \\/     M anipulation  |
\*---------------------------------------------------------------------------*/
FoamFile
{
    format      ascii;
    class       volScalarField;
    location    "17";
    object      T;
}
// * * * * * * * * * * * * * * * * * * * * * * * * * * * * * * * * * * * * * //

dimensions      [0 0 0 1 0 0 0];

internalField   nonuniform List<scalar> 
10000
(
374.975
361.25
356.542
354.463
353.322
352.593
352.076
351.684
351.372
351.114
350.894
350.703
350.534
350.381
350.242
350.114
349.996
349.884
349.78
349.681
349.586
349.497
349.41
349.328
349.248
349.172
349.098
349.026
348.957
348.889
348.824
348.761
348.699
348.639
348.581
348.524
348.469
348.416
348.363
348.313
348.263
348.215
348.168
348.123
348.078
348.035
347.994
347.953
347.913
347.875
347.838
347.802
347.767
347.732
347.7
347.668
347.637
347.607
347.578
347.55
347.523
347.496
347.471
347.447
347.424
347.401
347.379
347.358
347.338
347.319
347.301
347.283
347.266
347.25
347.234
347.22
347.206
347.193
347.18
347.168
347.157
347.146
347.136
347.127
347.118
347.11
347.103
347.096
347.09
347.084
347.079
347.075
347.071
347.067
347.065
347.062
347.061
347.059
347.059
347.059
388.574
374.728
366.989
362.442
359.549
357.558
356.097
354.966
354.055
353.296
352.648
352.081
351.578
351.124
350.71
350.328
349.973
349.641
349.328
349.031
348.749
348.48
348.222
347.975
347.737
347.507
347.285
347.07
346.862
346.661
346.465
346.275
346.09
345.911
345.736
345.566
345.401
345.24
345.084
344.932
344.783
344.639
344.499
344.362
344.23
344.1
343.975
343.853
343.734
343.619
343.508
343.399
343.294
343.192
343.093
342.997
342.904
342.815
342.728
342.644
342.562
342.484
342.408
342.335
342.265
342.198
342.132
342.07
342.01
341.952
341.897
341.844
341.793
341.744
341.698
341.654
341.612
341.572
341.535
341.499
341.465
341.434
341.404
341.376
341.35
341.326
341.304
341.283
341.264
341.247
341.232
341.219
341.207
341.197
341.189
341.182
341.177
341.173
341.172
341.171
393.162
382.106
374.247
368.772
364.876
361.999
359.791
358.034
356.591
355.374
354.324
353.401
352.578
351.832
351.15
350.521
349.934
349.384
348.865
348.374
347.906
347.459
347.031
346.62
346.224
345.842
345.473
345.115
344.769
344.434
344.108
343.792
343.484
343.186
342.895
342.612
342.337
342.069
341.809
341.555
341.308
341.068
340.834
340.607
340.386
340.171
339.962
339.759
339.561
339.37
339.183
339.003
338.827
338.657
338.493
338.333
338.178
338.029
337.884
337.744
337.609
337.478
337.352
337.231
337.114
337.001
336.892
336.788
336.688
336.592
336.499
336.411
336.327
336.246
336.169
336.096
336.026
335.96
335.897
335.837
335.781
335.728
335.679
335.632
335.589
335.549
335.512
335.478
335.446
335.418
335.393
335.37
335.351
335.334
335.32
335.309
335.3
335.295
335.292
335.291
395.12
386.292
379.12
373.525
369.184
365.773
363.036
360.788
358.902
357.286
355.876
354.626
353.503
352.481
351.543
350.674
349.863
349.101
348.381
347.698
347.047
346.425
345.829
345.255
344.703
344.17
343.655
343.156
342.673
342.205
341.75
341.308
340.878
340.46
340.054
339.659
339.274
338.9
338.535
338.181
337.836
337.5
337.173
336.855
336.546
336.245
335.953
335.668
335.392
335.124
334.864
334.611
334.366
334.128
333.897
333.674
333.458
333.249
333.046
332.85
332.661
332.478
332.302
332.132
331.968
331.81
331.659
331.513
331.372
331.238
331.109
330.985
330.867
330.754
330.647
330.544
330.446
330.353
330.266
330.182
330.104
330.03
329.961
329.896
329.835
329.779
329.727
329.679
329.635
329.596
329.56
329.529
329.502
329.478
329.458
329.443
329.431
329.423
329.419
329.419
396.141
388.825
382.416
377.026
372.565
368.874
365.793
363.186
360.947
358.996
357.272
355.729
354.331
353.053
351.873
350.776
349.749
348.782
347.867
346.997
346.168
345.374
344.612
343.879
343.173
342.491
341.831
341.192
340.573
339.972
339.389
338.822
338.271
337.736
337.214
336.707
336.214
335.733
335.265
334.81
334.367
333.936
333.516
333.108
332.711
332.325
331.949
331.584
331.23
330.885
330.551
330.226
329.911
329.606
329.31
329.023
328.745
328.476
328.216
327.965
327.722
327.487
327.26
327.042
326.832
326.629
326.434
326.246
326.066
325.893
325.728
325.569
325.417
325.272
325.134
325.002
324.876
324.757
324.644
324.537
324.436
324.341
324.252
324.169
324.091
324.019
323.952
323.891
323.834
323.784
323.738
323.698
323.663
323.632
323.607
323.587
323.572
323.562
323.556
323.556
396.75
390.456
384.693
379.599
375.18
371.369
368.079
365.219
362.709
360.485
358.493
356.692
355.047
353.532
352.128
350.816
349.584
348.421
347.317
346.267
345.263
344.302
343.378
342.488
341.63
340.801
339.999
339.222
338.468
337.737
337.026
336.336
335.665
335.012
334.376
333.758
333.156
332.57
331.999
331.444
330.904
330.378
329.866
329.367
328.883
328.412
327.953
327.508
327.075
326.655
326.246
325.85
325.466
325.093
324.732
324.381
324.042
323.714
323.396
323.089
322.793
322.506
322.23
321.963
321.706
321.459
321.22
320.992
320.772
320.561
320.358
320.164
319.979
319.802
319.633
319.472
319.319
319.173
319.035
318.905
318.782
318.666
318.557
318.455
318.36
318.272
318.19
318.115
318.047
317.985
317.929
317.88
317.837
317.8
317.769
317.744
317.726
317.713
317.707
317.706
397.147
391.559
386.304
381.501
377.187
373.348
369.939
366.906
364.192
361.748
359.531
357.505
355.64
353.911
352.299
350.786
349.36
348.01
346.727
345.502
344.33
343.205
342.123
341.08
340.074
339.1
338.158
337.244
336.358
335.497
334.661
333.848
333.058
332.288
331.54
330.811
330.102
329.411
328.739
328.084
327.446
326.826
326.222
325.635
325.063
324.507
323.967
323.441
322.93
322.434
321.953
321.485
321.032
320.592
320.165
319.752
319.352
318.964
318.589
318.227
317.877
317.539
317.212
316.898
316.594
316.302
316.021
315.751
315.492
315.242
315.004
314.775
314.556
314.347
314.147
313.957
313.776
313.605
313.442
313.288
313.142
313.006
312.877
312.757
312.645
312.54
312.444
312.356
312.275
312.202
312.136
312.078
312.027
311.983
311.947
311.918
311.896
311.881
311.874
311.873
397.42
392.332
387.466
382.915
378.724
374.901
371.43
368.278
365.411
362.791
360.387
358.167
356.106
354.184
352.381
350.682
349.074
347.547
346.091
344.699
343.364
342.081
340.845
339.653
338.501
337.386
336.306
335.258
334.241
333.254
332.293
331.359
330.451
329.567
328.706
327.868
327.052
326.257
325.484
324.73
323.997
323.283
322.588
321.911
321.253
320.613
319.991
319.386
318.798
318.226
317.672
317.133
316.611
316.104
315.613
315.137
314.675
314.229
313.797
313.38
312.977
312.587
312.211
311.849
311.499
311.163
310.839
310.527
310.228
309.941
309.666
309.403
309.15
308.909
308.68
308.461
308.252
308.054
307.867
307.689
307.522
307.364
307.216
307.077
306.948
306.828
306.717
306.615
306.522
306.437
306.362
306.295
306.236
306.186
306.144
306.11
306.085
306.068
306.059
306.059
397.614
392.887
388.316
383.971
379.896
376.108
372.606
369.374
366.39
363.629
361.066
358.679
356.446
354.349
352.371
350.5
348.721
347.027
345.407
343.854
342.363
340.928
339.543
338.206
336.912
335.659
334.443
333.264
332.119
331.005
329.923
328.87
327.845
326.847
325.875
324.929
324.008
323.11
322.236
321.385
320.556
319.749
318.963
318.199
317.455
316.731
316.027
315.343
314.678
314.032
313.405
312.796
312.205
311.632
311.076
310.537
310.016
309.511
309.023
308.55
308.094
307.653
307.228
306.818
306.422
306.042
305.675
305.323
304.985
304.66
304.348
304.05
303.765
303.492
303.232
302.984
302.749
302.525
302.312
302.111
301.922
301.743
301.576
301.419
301.272
301.137
301.011
300.896
300.79
300.695
300.609
300.533
300.467
300.41
300.363
300.325
300.296
300.277
300.267
300.266
397.754
393.291
388.942
384.761
380.785
377.036
373.519
370.229
367.154
364.277
361.581
359.049
356.663
354.408
352.271
350.239
348.301
346.449
344.674
342.968
341.327
339.744
338.215
336.736
335.304
333.916
332.569
331.261
329.989
328.753
327.55
326.379
325.239
324.129
323.048
321.995
320.969
319.97
318.996
318.048
317.125
316.226
315.35
314.498
313.669
312.863
312.078
311.315
310.574
309.854
309.154
308.475
307.816
307.177
306.557
305.957
305.375
304.812
304.267
303.741
303.232
302.74
302.266
301.808
301.367
300.942
300.533
300.14
299.763
299.401
299.053
298.72
298.402
298.098
297.808
297.531
297.268
297.018
296.781
296.557
296.346
296.146
295.959
295.784
295.621
295.47
295.329
295.201
295.083
294.977
294.881
294.796
294.722
294.659
294.606
294.564
294.532
294.51
294.499
294.498
397.856
393.587
389.404
385.348
381.452
377.737
374.212
370.878
367.729
364.755
361.945
359.285
356.762
354.365
352.081
349.901
347.814
345.813
343.89
342.039
340.253
338.529
336.86
335.245
333.679
332.159
330.683
329.248
327.853
326.496
325.174
323.888
322.635
321.414
320.225
319.067
317.938
316.838
315.766
314.722
313.705
312.715
311.751
310.812
309.898
309.009
308.145
307.304
306.487
305.693
304.922
304.173
303.447
302.742
302.059
301.397
300.755
300.134
299.534
298.953
298.392
297.849
297.326
296.821
296.335
295.866
295.416
294.982
294.566
294.166
293.783
293.416
293.065
292.729
292.409
292.104
291.814
291.538
291.277
291.03
290.796
290.576
290.37
290.177
289.997
289.83
289.675
289.533
289.403
289.286
289.18
289.087
289.005
288.935
288.877
288.83
288.795
288.771
288.759
288.758
397.93
393.803
389.742
385.78
381.945
378.255
374.723
371.351
368.139
365.082
362.171
359.397
356.752
354.224
351.806
349.488
347.262
345.12
343.057
341.067
339.143
337.282
335.479
333.731
332.035
330.387
328.785
327.227
325.711
324.235
322.797
321.397
320.033
318.703
317.408
316.145
314.914
313.715
312.546
311.407
310.298
309.217
308.165
307.14
306.143
305.173
304.229
303.311
302.419
301.552
300.71
299.892
299.099
298.329
297.582
296.859
296.158
295.48
294.824
294.189
293.576
292.984
292.412
291.86
291.329
290.817
290.324
289.851
289.395
288.959
288.54
288.139
287.755
287.388
287.039
286.705
286.388
286.087
285.801
285.531
285.276
285.035
284.81
284.599
284.402
284.219
284.05
283.895
283.753
283.625
283.509
283.407
283.318
283.241
283.177
283.126
283.088
283.062
283.049
283.047
397.983
393.957
389.984
386.09
382.297
378.624
375.081
371.675
368.407
365.275
362.273
359.397
356.64
353.993
351.45
349.003
346.646
344.372
342.176
340.053
337.997
336.005
334.072
332.196
330.372
328.6
326.875
325.197
323.562
321.97
320.419
318.907
317.433
315.997
314.596
313.231
311.9
310.603
309.338
308.106
306.905
305.735
304.595
303.486
302.406
301.355
300.332
299.338
298.371
297.432
296.519
295.633
294.773
293.939
293.13
292.346
291.587
290.852
290.14
289.452
288.787
288.145
287.525
286.927
286.351
285.796
285.262
284.748
284.255
283.781
283.327
282.892
282.476
282.078
281.699
281.337
280.993
280.666
280.357
280.064
279.787
279.526
279.282
279.053
278.839
278.641
278.458
278.289
278.135
277.996
277.871
277.76
277.663
277.58
277.511
277.456
277.414
277.386
277.371
277.37
398.02
394.064
390.152
386.303
382.537
378.87
375.313
371.873
368.551
365.35
362.266
359.296
356.435
353.678
351.018
348.451
345.97
343.571
341.249
338.998
336.816
334.697
332.639
330.639
328.693
326.799
324.955
323.159
321.409
319.703
318.04
316.419
314.838
313.296
311.792
310.326
308.896
307.502
306.142
304.818
303.526
302.268
301.043
299.849
298.688
297.557
296.457
295.386
294.346
293.335
292.353
291.399
290.473
289.575
288.704
287.86
287.042
286.25
285.484
284.743
284.027
283.336
282.668
282.024
281.403
280.806
280.23
279.677
279.145
278.635
278.146
277.678
277.229
276.801
276.392
276.003
275.632
275.28
274.946
274.63
274.332
274.052
273.788
273.541
273.311
273.098
272.9
272.719
272.553
272.403
272.268
272.148
272.044
271.955
271.88
271.82
271.775
271.745
271.729
271.728
398.044
394.134
390.261
386.439
382.686
379.016
375.439
371.962
368.59
365.323
362.162
359.104
356.146
353.285
350.517
347.836
345.238
342.72
340.277
337.905
335.601
333.361
331.182
329.061
326.996
324.985
323.025
321.114
319.251
317.434
315.662
313.933
312.246
310.601
308.996
307.43
305.903
304.413
302.961
301.545
300.165
298.82
297.509
296.233
294.99
293.78
292.603
291.458
290.345
289.263
288.212
287.191
286.2
285.238
284.306
283.402
282.527
281.679
280.859
280.065
279.299
278.558
277.843
277.153
276.489
275.848
275.232
274.64
274.07
273.524
273
272.498
272.018
271.559
271.121
270.704
270.307
269.93
269.572
269.234
268.915
268.614
268.332
268.067
267.821
267.592
267.38
267.186
267.008
266.847
266.703
266.575
266.463
266.367
266.287
266.223
266.175
266.142
266.125
266.124
398.058
394.174
390.321
386.511
382.759
379.077
375.475
371.96
368.537
365.207
361.972
358.831
355.782
352.823
349.951
347.163
344.454
341.823
339.265
336.776
334.355
331.998
329.702
327.465
325.285
323.159
321.085
319.063
317.089
315.164
313.284
311.45
309.66
307.913
306.209
304.545
302.922
301.339
299.795
298.289
296.821
295.39
293.995
292.637
291.315
290.027
288.774
287.555
286.37
285.217
284.098
283.011
281.955
280.931
279.938
278.975
278.043
277.139
276.265
275.42
274.603
273.814
273.052
272.317
271.609
270.927
270.27
269.638
269.032
268.449
267.891
267.356
266.844
266.355
265.888
265.443
265.02
264.618
264.237
263.877
263.536
263.216
262.915
262.633
262.37
262.126
261.9
261.693
261.504
261.332
261.178
261.041
260.922
260.82
260.735
260.666
260.615
260.58
260.562
260.56
398.063
394.19
390.343
386.532
382.771
379.069
375.437
371.88
368.405
365.013
361.706
358.486
355.35
352.298
349.328
346.437
343.622
340.882
338.214
335.614
333.08
330.61
328.201
325.851
323.559
321.321
319.138
317.006
314.925
312.893
310.909
308.972
307.081
305.234
303.432
301.672
299.955
298.28
296.645
295.051
293.496
291.98
290.503
289.064
287.663
286.298
284.97
283.678
282.422
281.2
280.013
278.86
277.741
276.655
275.602
274.581
273.591
272.634
271.706
270.81
269.943
269.106
268.297
267.518
266.766
266.042
265.345
264.675
264.031
263.413
262.821
262.253
261.71
261.191
260.696
260.224
259.774
259.348
258.943
258.561
258.199
257.859
257.539
257.24
256.961
256.702
256.463
256.243
256.042
255.86
255.696
255.551
255.424
255.316
255.225
255.153
255.098
255.061
255.042
255.04
398.063
394.186
390.333
386.51
382.73
379.003
375.335
371.734
368.205
364.752
361.375
358.077
354.858
351.716
348.652
345.663
342.747
339.903
337.128
334.42
331.778
329.198
326.68
324.221
321.82
319.475
317.184
314.946
312.76
310.624
308.538
306.5
304.509
302.565
300.667
298.813
297.003
295.237
293.513
291.832
290.192
288.593
287.034
285.516
284.037
282.596
281.194
279.83
278.503
277.213
275.959
274.742
273.559
272.412
271.299
270.221
269.175
268.163
267.184
266.236
265.32
264.435
263.581
262.757
261.963
261.197
260.461
259.753
259.072
258.419
257.792
257.192
256.618
256.069
255.546
255.047
254.572
254.121
253.693
253.288
252.906
252.547
252.209
251.892
251.598
251.324
251.07
250.838
250.625
250.432
250.259
250.106
249.972
249.857
249.761
249.685
249.627
249.588
249.567
249.565
398.056
394.166
390.296
386.453
382.647
378.887
375.18
371.532
367.948
364.432
360.986
357.613
354.312
351.085
347.929
344.845
341.832
338.887
336.01
333.199
330.451
327.766
325.142
322.578
320.071
317.62
315.225
312.884
310.595
308.358
306.172
304.035
301.947
299.907
297.914
295.968
294.067
292.212
290.401
288.634
286.91
285.229
283.59
281.993
280.437
278.922
277.447
276.011
274.615
273.257
271.938
270.656
269.412
268.204
267.032
265.897
264.796
263.73
262.699
261.701
260.736
259.805
258.905
258.037
257.2
256.394
255.619
254.872
254.156
253.467
252.807
252.175
251.57
250.992
250.441
249.915
249.414
248.939
248.489
248.062
247.66
247.28
246.925
246.591
246.28
245.992
245.725
245.48
245.255
245.052
244.87
244.708
244.567
244.446
244.345
244.264
244.203
244.162
244.14
244.138
398.045
394.132
390.238
386.367
382.528
378.73
374.979
371.281
367.641
364.062
360.548
357.1
353.72
350.409
347.165
343.99
340.882
337.84
334.864
331.952
329.103
326.316
323.59
320.922
318.313
315.76
313.263
310.821
308.432
306.096
303.811
301.578
299.395
297.261
295.176
293.139
291.149
289.206
287.309
285.458
283.651
281.889
280.172
278.497
276.866
275.277
273.73
272.224
270.759
269.335
267.951
266.606
265.3
264.032
262.803
261.611
260.456
259.337
258.254
257.207
256.194
255.216
254.271
253.36
252.481
251.635
250.82
250.037
249.284
248.561
247.868
247.204
246.569
245.962
245.382
244.83
244.305
243.805
243.332
242.884
242.461
242.063
241.689
241.339
241.013
240.709
240.429
240.171
239.936
239.722
239.531
239.361
239.213
239.085
238.979
238.894
238.83
238.787
238.764
238.761
398.03
394.087
390.161
386.255
382.378
378.538
374.739
370.989
367.29
363.649
360.066
356.545
353.087
349.694
346.365
343.1
339.901
336.765
333.693
330.684
327.737
324.85
322.024
319.256
316.547
313.895
311.299
308.758
306.272
303.839
301.459
299.131
296.854
294.629
292.453
290.327
288.249
286.22
284.239
282.305
280.417
278.576
276.78
275.03
273.324
271.662
270.045
268.47
266.938
265.448
263.999
262.592
261.226
259.899
258.613
257.365
256.156
254.985
253.851
252.755
251.695
250.67
249.681
248.727
247.807
246.921
246.068
245.248
244.459
243.703
242.977
242.281
241.616
240.98
240.373
239.795
239.245
238.722
238.226
237.757
237.314
236.897
236.505
236.138
235.796
235.478
235.185
234.915
234.668
234.444
234.244
234.066
233.91
233.777
233.666
233.576
233.509
233.463
233.439
233.437
398.012
394.033
390.069
386.123
382.203
378.316
374.467
370.661
366.904
363.198
359.547
355.953
352.419
348.945
345.532
342.181
338.892
335.665
332.5
329.397
326.354
323.371
320.448
317.583
314.776
312.027
309.334
306.698
304.116
301.589
299.115
296.695
294.327
292.011
289.747
287.533
285.37
283.256
281.192
279.177
277.21
275.29
273.418
271.593
269.814
268.081
266.393
264.75
263.151
261.597
260.085
258.617
257.191
255.806
254.463
253.16
251.898
250.676
249.492
248.347
247.24
246.171
245.138
244.141
243.181
242.255
241.364
240.507
239.684
238.893
238.135
237.409
236.714
236.049
235.415
234.811
234.236
233.69
233.172
232.682
232.219
231.783
231.374
230.99
230.633
230.301
229.994
229.712
229.454
229.22
229.011
228.825
228.662
228.523
228.406
228.313
228.243
228.195
228.17
228.167
397.992
393.971
389.964
385.974
382.007
378.069
374.167
370.304
366.486
362.715
358.996
355.33
351.719
348.166
344.672
341.236
337.86
334.545
331.289
328.093
324.957
321.881
318.863
315.904
313.002
310.159
307.372
304.641
301.966
299.347
296.782
294.271
291.814
289.41
287.059
284.76
282.512
280.316
278.17
276.075
274.03
272.033
270.086
268.187
266.336
264.533
262.776
261.066
259.402
257.784
256.21
254.681
253.196
251.755
250.356
248.999
247.685
246.411
245.178
243.985
242.832
241.718
240.642
239.604
238.603
237.638
236.71
235.817
234.959
234.135
233.345
232.588
231.864
231.171
230.51
229.881
229.281
228.712
228.172
227.661
227.179
226.724
226.297
225.898
225.525
225.179
224.859
224.565
224.296
224.053
223.834
223.64
223.47
223.325
223.204
223.106
223.033
222.983
222.957
222.954
397.969
393.902
389.848
385.809
381.792
377.802
373.844
369.922
366.042
362.206
358.417
354.679
350.994
347.363
343.788
340.269
336.808
333.406
330.062
326.776
323.55
320.382
317.272
314.221
311.227
308.291
305.412
302.59
299.825
297.115
294.461
291.861
289.317
286.827
284.39
282.007
279.677
277.4
275.174
273.001
270.878
268.807
266.786
264.815
262.893
261.02
259.196
257.42
255.692
254.011
252.376
250.787
249.244
247.746
246.292
244.883
243.516
242.193
240.911
239.671
238.473
237.314
236.196
235.116
234.075
233.073
232.107
231.179
230.287
229.43
228.608
227.821
227.068
226.348
225.66
225.005
224.382
223.79
223.228
222.697
222.195
221.722
221.278
220.863
220.475
220.115
219.782
219.476
219.196
218.943
218.715
218.513
218.337
218.186
218.059
217.958
217.881
217.83
217.802
217.799
397.944
393.828
389.723
385.633
381.562
377.517
373.5
369.519
365.575
361.673
357.815
354.006
350.246
346.538
342.884
339.284
335.74
332.252
328.822
325.449
322.134
318.877
315.678
312.536
309.453
306.427
303.458
300.547
297.692
294.894
292.153
289.467
286.837
284.262
281.743
279.277
276.866
274.509
272.206
269.955
267.757
265.612
263.518
261.476
259.485
257.544
255.654
253.813
252.021
250.278
248.583
246.936
245.336
243.782
242.275
240.813
239.395
238.022
236.693
235.407
234.163
232.961
231.8
230.68
229.601
228.56
227.558
226.595
225.669
224.78
223.927
223.11
222.328
221.581
220.867
220.187
219.54
218.925
218.342
217.791
217.27
216.779
216.318
215.887
215.484
215.11
214.765
214.447
214.156
213.893
213.657
213.447
213.264
213.107
212.976
212.87
212.791
212.737
212.708
212.705
397.918
393.749
389.591
385.446
381.32
377.216
373.141
369.097
365.089
361.12
357.194
353.313
349.479
345.695
341.963
338.283
334.657
331.087
327.572
324.114
320.712
317.368
314.081
310.852
307.681
304.567
301.511
298.512
295.571
292.687
289.86
287.09
284.376
281.719
279.117
276.572
274.081
271.646
269.266
266.94
264.668
262.45
260.285
258.173
256.114
254.106
252.151
250.246
248.392
246.588
244.834
243.129
241.473
239.865
238.304
236.79
235.323
233.901
232.525
231.193
229.905
228.66
227.458
226.298
225.18
224.102
223.064
222.066
221.107
220.186
219.302
218.456
217.646
216.872
216.133
215.428
214.758
214.121
213.516
212.945
212.405
211.896
211.419
210.972
210.555
210.167
209.809
209.479
209.178
208.906
208.661
208.443
208.253
208.09
207.954
207.845
207.762
207.706
207.676
207.673
397.89
393.666
389.452
385.251
381.067
376.904
372.767
368.661
364.588
360.552
356.557
352.604
348.698
344.838
341.029
337.27
333.564
329.912
326.315
322.773
319.287
315.858
312.485
309.171
305.913
302.714
299.572
296.488
293.462
290.494
287.584
284.731
281.935
279.197
276.515
273.891
271.323
268.811
266.356
263.956
261.612
259.322
257.088
254.907
252.781
250.708
248.688
246.721
244.806
242.942
241.13
239.368
237.657
235.995
234.382
232.817
231.301
229.831
228.408
227.031
225.7
224.413
223.17
221.971
220.814
219.7
218.627
217.595
216.603
215.65
214.736
213.861
213.023
212.222
211.458
210.729
210.036
209.377
208.752
208.16
207.602
207.076
206.582
206.119
205.688
205.287
204.916
204.575
204.264
203.981
203.728
203.503
203.306
203.137
202.997
202.884
202.798
202.74
202.709
202.705
397.862
393.58
389.309
385.049
380.805
376.582
372.383
368.212
364.074
359.971
355.906
351.883
347.903
343.97
340.084
336.248
332.463
328.731
325.053
321.429
317.86
314.348
310.892
307.494
304.152
300.869
297.644
294.477
291.368
288.317
285.325
282.391
279.516
276.698
273.939
271.237
268.593
266.006
263.477
261.005
258.589
256.23
253.927
251.679
249.487
247.35
245.267
243.238
241.263
239.341
237.472
235.654
233.889
232.174
230.51
228.895
227.33
225.813
224.345
222.924
221.549
220.221
218.938
217.7
216.506
215.355
214.247
213.182
212.157
211.174
210.231
209.327
208.461
207.634
206.845
206.092
205.376
204.696
204.05
203.439
202.863
202.319
201.809
201.331
200.885
200.471
200.088
199.736
199.414
199.123
198.861
198.628
198.425
198.25
198.105
197.988
197.899
197.839
197.807
197.803
397.832
393.492
389.161
384.841
380.536
376.251
371.989
367.754
363.55
359.379
355.245
351.151
347.1
343.092
339.132
335.219
331.357
327.546
323.788
320.084
316.434
312.841
309.303
305.823
302.4
299.034
295.727
292.479
289.289
286.158
283.086
280.073
277.119
274.224
271.388
268.611
265.892
263.233
260.631
258.088
255.602
253.175
250.804
248.491
246.234
244.034
241.889
239.8
237.766
235.786
233.861
231.989
230.17
228.403
226.688
225.025
223.412
221.849
220.336
218.871
217.454
216.085
214.763
213.487
212.256
211.07
209.928
208.829
207.773
206.759
205.786
204.854
203.962
203.109
202.295
201.519
200.781
200.079
199.413
198.783
198.188
197.628
197.102
196.609
196.149
195.722
195.327
194.964
194.632
194.331
194.06
193.82
193.611
193.431
193.28
193.16
193.068
193.006
192.973
192.968
397.802
393.401
389.01
384.629
380.262
375.914
371.588
367.288
363.017
358.779
354.576
350.412
346.289
342.208
338.173
334.186
330.247
326.359
322.523
318.74
315.011
311.338
307.721
304.16
300.657
297.211
293.824
290.496
287.227
284.018
280.868
277.777
274.747
271.776
268.865
266.014
263.222
260.491
257.819
255.206
252.652
250.157
247.721
245.343
243.023
240.761
238.556
236.407
234.315
232.279
230.299
228.373
226.501
224.684
222.92
221.208
219.548
217.94
216.382
214.875
213.417
212.008
210.646
209.333
208.066
206.845
205.669
204.538
203.45
202.406
201.405
200.445
199.527
198.649
197.81
197.011
196.251
195.528
194.842
194.194
193.581
193.004
192.462
191.954
191.48
191.04
190.633
190.259
189.917
189.607
189.328
189.081
188.865
188.68
188.525
188.4
188.306
188.241
188.207
188.202
397.772
393.309
388.856
384.413
379.983
375.572
371.181
366.816
362.479
358.173
353.901
349.667
345.473
341.32
337.212
333.15
329.136
325.172
321.26
317.4
313.593
309.842
306.146
302.507
298.925
295.402
291.937
288.531
285.184
281.898
278.671
275.505
272.4
269.355
266.37
263.447
260.584
257.782
255.041
252.36
249.739
247.179
244.678
242.237
239.855
237.532
235.267
233.061
230.912
228.821
226.786
224.808
222.885
221.017
219.204
217.445
215.74
214.087
212.486
210.936
209.438
207.989
206.59
205.239
203.936
202.681
201.472
200.309
199.191
198.118
197.088
196.101
195.156
194.253
193.391
192.569
191.787
191.044
190.339
189.671
189.041
188.448
187.89
187.368
186.88
186.428
186.009
185.624
185.272
184.953
184.666
184.412
184.189
183.999
183.839
183.711
183.614
183.547
183.512
183.507
397.741
393.216
388.7
384.194
379.702
375.226
370.771
366.34
361.936
357.563
353.223
348.919
344.654
340.43
336.25
332.114
328.027
323.988
320
316.064
312.182
308.354
304.581
300.865
297.207
293.607
290.065
286.583
283.161
279.799
276.498
273.258
270.079
266.962
263.906
260.912
257.979
255.109
252.299
249.552
246.866
244.241
241.677
239.174
236.731
234.348
232.026
229.762
227.558
225.412
223.325
221.294
219.321
217.405
215.544
213.738
211.987
210.291
208.647
207.057
205.518
204.031
202.594
201.207
199.87
198.58
197.339
196.145
194.997
193.894
192.836
191.823
190.853
189.925
189.04
188.195
187.392
186.628
185.904
185.218
184.571
183.961
183.388
182.851
182.351
181.886
181.455
181.06
180.698
180.37
180.076
179.814
179.585
179.389
179.225
179.093
178.993
178.925
178.888
178.883
397.709
393.122
388.543
383.974
379.417
374.877
370.357
365.861
361.39
356.95
352.542
348.169
343.834
339.54
335.288
331.08
326.92
322.808
318.746
314.736
310.778
306.875
303.028
299.237
295.503
291.828
288.212
284.655
281.159
277.724
274.35
271.037
267.787
264.599
261.473
258.409
255.408
252.47
249.595
246.782
244.032
241.344
238.718
236.154
233.652
231.211
228.831
226.512
224.254
222.054
219.915
217.834
215.811
213.847
211.939
210.088
208.293
206.553
204.868
203.237
201.659
200.134
198.66
197.238
195.866
194.544
193.27
192.045
190.868
189.737
188.652
187.612
186.616
185.665
184.756
183.89
183.065
182.282
181.539
180.835
180.171
179.545
178.957
178.406
177.893
177.415
176.974
176.567
176.196
175.86
175.557
175.289
175.054
174.852
174.684
174.548
174.445
174.375
174.337
174.332
397.678
393.027
388.385
383.752
379.132
374.527
369.942
365.38
360.844
356.336
351.86
347.419
343.015
338.651
334.328
330.05
325.818
321.633
317.499
313.415
309.385
305.409
301.487
297.623
293.816
290.067
286.378
282.749
279.18
275.673
272.227
268.844
265.524
262.266
259.071
255.94
252.873
249.869
246.929
244.052
241.239
238.489
235.803
233.18
230.619
228.121
225.686
223.312
221
218.749
216.558
214.427
212.356
210.345
208.391
206.495
204.657
202.875
201.149
199.478
197.862
196.299
194.79
193.332
191.927
190.572
189.268
188.012
186.805
185.646
184.534
183.469
182.449
181.474
180.542
179.655
178.81
178.006
177.245
176.524
175.843
175.201
174.598
174.034
173.507
173.017
172.565
172.148
171.768
171.422
171.112
170.837
170.596
170.389
170.216
170.077
169.972
169.9
169.861
169.854
397.646
392.932
388.227
383.53
378.846
374.177
369.527
364.899
360.297
355.723
351.18
346.671
342.198
337.765
333.373
329.024
324.722
320.466
316.26
312.105
308.003
303.955
299.961
296.025
292.146
288.325
284.565
280.864
277.225
273.647
270.132
266.679
263.29
259.965
256.703
253.506
250.373
247.305
244.301
241.362
238.488
235.678
232.932
230.251
227.633
225.08
222.589
220.162
217.798
215.495
213.255
211.076
208.957
206.899
204.901
202.961
201.08
199.257
197.491
195.781
194.127
192.528
190.983
189.492
188.053
186.667
185.331
184.046
182.811
181.624
180.486
179.395
178.351
177.352
176.399
175.49
174.625
173.803
173.023
172.284
171.587
170.93
170.312
169.734
169.195
168.694
168.23
167.803
167.413
167.06
166.742
166.46
166.213
166.001
165.824
165.681
165.573
165.499
165.459
165.452
397.614
392.837
388.068
383.308
378.56
373.827
369.112
364.419
359.751
355.111
350.501
345.925
341.385
336.884
332.423
328.006
323.633
319.308
315.032
310.807
306.634
302.515
298.451
294.444
290.494
286.604
282.773
279.003
275.294
271.648
268.064
264.544
261.088
257.697
254.37
251.108
247.911
244.78
241.714
238.714
235.779
232.91
230.107
227.369
224.696
222.087
219.543
217.064
214.648
212.296
210.007
207.78
205.615
203.512
201.469
199.487
197.564
195.7
193.895
192.147
190.456
188.821
187.242
185.717
184.246
182.828
181.462
180.148
178.885
177.672
176.507
175.392
174.324
173.302
172.327
171.398
170.512
169.671
168.873
168.118
167.405
166.732
166.101
165.509
164.957
164.444
163.97
163.533
163.134
162.773
162.447
162.159
161.906
161.689
161.508
161.361
161.25
161.174
161.133
161.126
397.583
392.742
387.91
383.087
378.274
373.477
368.698
363.941
359.208
354.502
349.827
345.184
340.577
336.008
331.48
326.994
322.554
318.16
313.815
309.521
305.279
301.091
296.958
292.881
288.863
284.904
281.004
277.166
273.39
269.676
266.026
262.44
258.919
255.462
252.071
248.746
245.487
242.294
239.168
236.108
233.115
230.188
227.328
224.534
221.806
219.145
216.549
214.018
211.552
209.151
206.814
204.54
202.33
200.182
198.097
196.072
194.109
192.205
190.362
188.576
186.849
185.179
183.566
182.008
180.505
179.057
177.662
176.319
175.028
173.789
172.599
171.459
170.368
169.324
168.328
167.378
166.473
165.613
164.798
164.026
163.297
162.61
161.964
161.36
160.795
160.271
159.786
159.34
158.932
158.562
158.229
157.934
157.675
157.454
157.268
157.118
157.005
156.927
156.885
156.877
397.551
392.648
387.753
382.866
377.99
373.13
368.287
363.465
358.668
353.897
349.156
344.448
339.775
335.14
330.545
325.992
321.485
317.023
312.611
308.249