/*--------------------------------*- C++ -*----------------------------------*\
  =========                 |
  \\      /  F ield         | OpenFOAM: The Open Source CFD Toolbox
   \\    /   O peration     | Website:  https://openfoam.org
    \\  /    A nd           | Version:  10
     \\/     M anipulation  |
\*---------------------------------------------------------------------------*/
FoamFile
{
    format      ascii;
    class       volScalarField;
    location    "17";
    object      T_0;
}
// * * * * * * * * * * * * * * * * * * * * * * * * * * * * * * * * * * * * * //

dimensions      [0 0 0 1 0 0 0];

internalField   nonuniform List<scalar> 
10000
(
374.965
361.245
356.537
354.458
353.317
352.588
352.071
351.679
351.367
351.109
350.889
350.698
350.529
350.376
350.237
350.109
349.991
349.879
349.775
349.676
349.581
349.491
349.405
349.323
349.243
349.166
349.092
349.021
348.951
348.884
348.819
348.755
348.694
348.634
348.575
348.519
348.464
348.41
348.358
348.307
348.258
348.209
348.163
348.117
348.073
348.03
347.988
347.947
347.908
347.869
347.832
347.796
347.761
347.727
347.694
347.662
347.631
347.601
347.572
347.544
347.517
347.491
347.466
347.441
347.418
347.395
347.374
347.353
347.333
347.313
347.295
347.277
347.26
347.244
347.229
347.214
347.2
347.187
347.174
347.162
347.151
347.141
347.131
347.121
347.113
347.105
347.097
347.09
347.084
347.079
347.073
347.069
347.065
347.062
347.059
347.057
347.055
347.054
347.053
347.053
388.569
374.729
366.99
362.443
359.549
357.559
356.097
354.966
354.055
353.296
352.648
352.081
351.577
351.123
350.709
350.327
349.972
349.64
349.327
349.03
348.748
348.479
348.221
347.974
347.735
347.505
347.283
347.069
346.861
346.659
346.463
346.273
346.088
345.909
345.734
345.564
345.399
345.238
345.081
344.929
344.781
344.637
344.496
344.36
344.227
344.098
343.972
343.85
343.732
343.617
343.505
343.396
343.291
343.189
343.09
342.994
342.902
342.812
342.725
342.641
342.56
342.481
342.406
342.333
342.262
342.195
342.13
342.067
342.007
341.949
341.894
341.841
341.79
341.742
341.695
341.651
341.609
341.57
341.532
341.496
341.463
341.431
341.401
341.373
341.347
341.323
341.301
341.28
341.262
341.245
341.23
341.216
341.204
341.194
341.186
341.179
341.174
341.171
341.169
341.169
393.157
382.107
374.247
368.772
364.875
361.998
359.79
358.032
356.589
355.372
354.322
353.4
352.576
351.83
351.148
350.518
349.931
349.381
348.862
348.371
347.903
347.456
347.028
346.616
346.22
345.838
345.469
345.111
344.765
344.429
344.104
343.787
343.48
343.181
342.89
342.607
342.332
342.064
341.804
341.55
341.303
341.063
340.829
340.602
340.38
340.165
339.956
339.753
339.556
339.364
339.178
338.997
338.822
338.652
338.487
338.327
338.173
338.023
337.878
337.738
337.603
337.472
337.346
337.225
337.108
336.995
336.886
336.782
336.682
336.586
336.494
336.405
336.321
336.24
336.163
336.09
336.02
335.954
335.891
335.831
335.775
335.723
335.673
335.627
335.583
335.543
335.506
335.472
335.441
335.412
335.387
335.365
335.345
335.328
335.314
335.303
335.295
335.289
335.286
335.286
395.115
386.292
379.119
373.524
369.183
365.771
363.034
360.787
358.9
357.284
355.873
354.623
353.5
352.478
351.54
350.67
349.859
349.097
348.377
347.693
347.042
346.42
345.824
345.25
344.698
344.165
343.649
343.15
342.667
342.198
341.743
341.301
340.871
340.453
340.047
339.652
339.267
338.892
338.528
338.173
337.828
337.492
337.165
336.847
336.538
336.237
335.944
335.66
335.384
335.116
334.855
334.603
334.357
334.119
333.889
333.666
333.449
333.24
333.037
332.842
332.652
332.47
332.293
332.123
331.96
331.802
331.65
331.504
331.364
331.229
331.1
330.977
330.859
330.746
330.638
330.535
330.438
330.345
330.257
330.174
330.095
330.022
329.952
329.887
329.827
329.77
329.718
329.671
329.627
329.588
329.552
329.521
329.493
329.47
329.45
329.435
329.423
329.415
329.411
329.41
396.135
388.825
382.415
377.025
372.564
368.873
365.791
363.183
360.945
358.993
357.269
355.725
354.327
353.048
351.868
350.771
349.744
348.777
347.861
346.992
346.162
345.368
344.606
343.872
343.166
342.483
341.824
341.185
340.565
339.964
339.381
338.814
338.263
337.727
337.205
336.698
336.204
335.724
335.256
334.8
334.357
333.926
333.506
333.098
332.701
332.314
331.939
331.574
331.219
330.874
330.54
330.215
329.9
329.595
329.299
329.012
328.734
328.465
328.205
327.953
327.71
327.476
327.249
327.031
326.82
326.618
326.423
326.235
326.055
325.882
325.717
325.558
325.406
325.261
325.123
324.991
324.865
324.746
324.633
324.526
324.426
324.331
324.241
324.158
324.08
324.008
323.941
323.88
323.824
323.773
323.728
323.687
323.652
323.622
323.597
323.576
323.561
323.551
323.546
323.545
396.745
390.456
384.693
379.598
375.178
371.367
368.076
365.216
362.706
360.482
358.489
356.687
355.042
353.527
352.122
350.81
349.578
348.414
347.311
346.26
345.256
344.294
343.37
342.48
341.622
340.792
339.99
339.212
338.459
337.727
337.016
336.326
335.654
335.001
334.365
333.746
333.144
332.558
331.988
331.432
330.892
330.365
329.853
329.355
328.87
328.399
327.94
327.495
327.062
326.642
326.233
325.837
325.452
325.08
324.718
324.368
324.029
323.7
323.383
323.076
322.779
322.493
322.216
321.949
321.693
321.445
321.207
320.978
320.758
320.547
320.345
320.151
319.966
319.789
319.62
319.459
319.305
319.16
319.022
318.892
318.768
318.652
318.544
318.442
318.347
318.259
318.177
318.102
318.034
317.972
317.916
317.867
317.824
317.787
317.756
317.732
317.713
317.701
317.694
317.694
397.142
391.559
386.303
381.499
377.185
373.346
369.936
366.902
364.188
361.744
359.526
357.5
355.634
353.905
352.292
350.779
349.353
348.003
346.719
345.493
344.321
343.196
342.114
341.071
340.063
339.09
338.147
337.233
336.346
335.486
334.649
333.836
333.045
332.276
331.527
330.798
330.088
329.397
328.725
328.07
327.432
326.812
326.208
325.62
325.048
324.492
323.951
323.426
322.915
322.419
321.937
321.47
321.016
320.576
320.149
319.736
319.336
318.948
318.574
318.211
317.861
317.523
317.196
316.882
316.578
316.286
316.005
315.735
315.476
315.226
314.988
314.759
314.54
314.331
314.132
313.942
313.761
313.589
313.426
313.272
313.127
312.99
312.861
312.741
312.629
312.525
312.429
312.34
312.259
312.186
312.121
312.062
312.012
311.968
311.932
311.903
311.881
311.866
311.859
311.858
397.415
392.332
387.465
382.913
378.721
374.898
371.426
368.274
365.406
362.786
360.381
358.161
356.1
354.177
352.373
350.674
349.066
347.538
346.081
344.689
343.354
342.07
340.834
339.642
338.489
337.374
336.294
335.246
334.228
333.24
332.279
331.345
330.436
329.552
328.691
327.853
327.036
326.242
325.468
324.714
323.98
323.266
322.571
321.894
321.236
320.596
319.973
319.368
318.78
318.209
317.654
317.115
316.593
316.086
315.594
315.118
314.657
314.211
313.779
313.362
312.958
312.569
312.193
311.83
311.481
311.144
310.82
310.509
310.21
309.923
309.648
309.384
309.132
308.891
308.661
308.442
308.234
308.036
307.849
307.671
307.504
307.346
307.198
307.059
306.93
306.81
306.699
306.597
306.504
306.42
306.344
306.277
306.218
306.168
306.126
306.093
306.068
306.051
306.042
306.041
397.608
392.887
388.315
383.969
379.893
376.105
372.602
369.369
366.385
363.623
361.06
358.672
356.439
354.341
352.363
350.491
348.712
347.017
345.396
343.844
342.352
340.916
339.531
338.193
336.899
335.645
334.429
333.25
332.104
330.99
329.907
328.854
327.828
326.83
325.858
324.912
323.99
323.092
322.218
321.367
320.537
319.73
318.944
318.18
317.435
316.712
316.008
315.323
314.658
314.012
313.385
312.775
312.184
311.611
311.055
310.517
309.995
309.49
309.002
308.53
308.073
307.633
307.207
306.797
306.402
306.021
305.655
305.302
304.964
304.639
304.328
304.03
303.744
303.472
303.212
302.964
302.728
302.504
302.292
302.091
301.901
301.723
301.555
301.399
301.252
301.116
300.991
300.876
300.77
300.675
300.589
300.513
300.447
300.39
300.343
300.305
300.276
300.257
300.247
300.246
397.748
393.291
388.941
384.758
380.782
377.032
373.515
370.224
367.148
364.271
361.574
359.041
356.655
354.399
352.262
350.229
348.291
346.438
344.662
342.956
341.314
339.731
338.201
336.722
335.29
333.901
332.553
331.244
329.973
328.736
327.532
326.361
325.221
324.111
323.029
321.976
320.95
319.95
318.976
318.028
317.104
316.205
315.329
314.477
313.648
312.841
312.056
311.293
310.552
309.831
309.132
308.453
307.794
307.154
306.534
305.934
305.352
304.789
304.244
303.718
303.209
302.717
302.242
301.785
301.344
300.919
300.51
300.117
299.74
299.378
299.03
298.697
298.379
298.075
297.785
297.508
297.245
296.996
296.759
296.535
296.323
296.124
295.937
295.762
295.599
295.447
295.307
295.178
295.061
294.954
294.859
294.774
294.7
294.637
294.584
294.542
294.51
294.488
294.477
294.476
397.85
393.587
389.403
385.346
381.449
377.733
374.207
370.873
367.723
364.748
361.937
359.276
356.753
354.355
352.071
349.89
347.803
345.801
343.877
342.025
340.239
338.514
336.845
335.229
333.662
332.142
330.665
329.23
327.835
326.477
325.155
323.868
322.615
321.394
320.205
319.046
317.916
316.816
315.744
314.7
313.683
312.692
311.727
310.788
309.875
308.985
308.121
307.28
306.463
305.668
304.897
304.148
303.422
302.717
302.034
301.371
300.73
300.109
299.508
298.927
298.366
297.824
297.301
296.796
296.309
295.841
295.39
294.957
294.54
294.141
293.757
293.391
293.039
292.704
292.384
292.079
291.789
291.513
291.252
291.005
290.771
290.552
290.345
290.152
289.972
289.805
289.65
289.508
289.379
289.261
289.156
289.062
288.981
288.911
288.852
288.806
288.771
288.747
288.735
288.734
397.924
393.802
389.74
385.777
381.941
378.251
374.718
371.345
368.133
365.074
362.162
359.388
356.742
354.214
351.795
349.476
347.249
345.107
343.043
341.052
339.128
337.266
335.463
333.714
332.017
330.368
328.766
327.207
325.691
324.214
322.776
321.376
320.011
318.681
317.385
316.122
314.891
313.691
312.522
311.383
310.273
309.192
308.14
307.115
306.117
305.147
304.203
303.285
302.392
301.525
300.683
299.865
299.071
298.301
297.555
296.832
296.131
295.453
294.796
294.162
293.548
292.956
292.384
291.833
291.301
290.789
290.296
289.823
289.368
288.931
288.512
288.111
287.728
287.361
287.011
286.678
286.361
286.059
285.774
285.504
285.249
285.008
284.783
284.572
284.375
284.192
284.023
283.868
283.726
283.598
283.483
283.38
283.291
283.215
283.151
283.1
283.062
283.036
283.022
283.021
397.977
393.957
389.983
386.087
382.294
378.619
375.076
371.669
368.4
365.266
362.264
359.388
356.629
353.982
351.438
348.99
346.632
344.358
342.161
340.037
337.98
335.987
334.054
332.177
330.353
328.58
326.855
325.176
323.541
321.948
320.396
318.884
317.41
315.973
314.572
313.206
311.875
310.577
309.312
308.079
306.878
305.708
304.568
303.458
302.378
301.327
300.304
299.309
298.342
297.403
296.49
295.604
294.744
293.91
293.1
292.316
291.557
290.822
290.11
289.422
288.757
288.115
287.495
286.897
286.321
285.766
285.232
284.718
284.225
283.751
283.297
282.862
282.446
282.048
281.669
281.308
280.964
280.637
280.327
280.034
279.758
279.497
279.253
279.024
278.81
278.612
278.429
278.26
278.107
277.967
277.842
277.731
277.634
277.552
277.482
277.427
277.385
277.357
277.343
277.341
398.014
394.064
390.15
386.3
382.533
378.865
375.307
371.866
368.544
365.341
362.257
359.286
356.424
353.665
351.005
348.437
345.956
343.556
341.233
338.981
336.798
334.679
332.62
330.619
328.672
326.778
324.933
323.136
321.386
319.679
318.016
316.394
314.812
313.27
311.766
310.299
308.869
307.474
306.114
304.789
303.498
302.239
301.013
299.82
298.657
297.526
296.426
295.356
294.315
293.304
292.321
291.367
290.441
289.543
288.672
287.828
287.01
286.218
285.452
284.711
283.995
283.303
282.636
281.992
281.371
280.773
280.198
279.645
279.113
278.603
278.114
277.645
277.197
276.769
276.36
275.971
275.6
275.248
274.915
274.599
274.301
274.02
273.757
273.51
273.28
273.067
272.869
272.688
272.522
272.372
272.237
272.118
272.013
271.924
271.849
271.79
271.745
271.714
271.699
271.697
398.038
394.134
390.258
386.435
382.681
379.01
375.432
371.955
368.581
365.314
362.151
359.093
356.134
353.272
350.503
347.821
345.223
342.704
340.26
337.887
335.582
333.341
331.161
329.04
326.974
324.962
323.001
321.09
319.226
317.408
315.635
313.906
312.219
310.573
308.968
307.401
305.874
304.384
302.931
301.514
300.134
298.788
297.478
296.201
294.958
293.748
292.57
291.425
290.312
289.229
288.178
287.157
286.166
285.204
284.272
283.368
282.492
281.645
280.824
280.031
279.264
278.523
277.808
277.119
276.454
275.814
275.198
274.605
274.036
273.489
272.966
272.464
271.984
271.525
271.087
270.67
270.273
269.896
269.538
269.2
268.881
268.58
268.298
268.034
267.787
267.559
267.347
267.153
266.975
266.814
266.67
266.542
266.43
266.334
266.254
266.19
266.142
266.109
266.093
266.091
398.052
394.174
390.319
386.508
382.754
379.072
375.469
371.952
368.528
365.197
361.961
358.819
355.769
352.809
349.936
347.147
344.438
341.805
339.246
336.757
334.335
331.977
329.68
327.442
325.261
323.134
321.06
319.037
317.063
315.136
313.257
311.422
309.631
307.884
306.179
304.515
302.891
301.307
299.763
298.256
296.788
295.357
293.962
292.603
291.28
289.992
288.739
287.52
286.334
285.182
284.062
282.975
281.919
280.895
279.902
278.939
278.006
277.103
276.229
275.384
274.566
273.777
273.015
272.281
271.572
270.89
270.233
269.602
268.995
268.413
267.854
267.319
266.808
266.319
265.852
265.407
264.984
264.582
264.201
263.841
263.5
263.18
262.879
262.597
262.335
262.091
261.865
261.658
261.468
261.297
261.143
261.006
260.887
260.785
260.7
260.632
260.58
260.545
260.527
260.526
398.058
394.189
390.34
386.528
382.766
379.063
375.43
371.872
368.395
365.002
361.695
358.473
355.336
352.283
349.312
346.42
343.605
340.864
338.194
335.593
333.058
330.587
328.177
325.827
323.534
321.296
319.111
316.979
314.897
312.865
310.88
308.942
307.05
305.203
303.4
301.64
299.922
298.246
296.611
295.016
293.461
291.945
290.468
289.029
287.627
286.262
284.933
283.641
282.384
281.162
279.975
278.822
277.703
276.617
275.563
274.542
273.553
272.595
271.668
270.771
269.904
269.067
268.259
267.479
266.727
266.003
265.306
264.636
263.993
263.375
262.782
262.215
261.672
261.153
260.657
260.185
259.736
259.31
258.905
258.523
258.161
257.821
257.502
257.203
256.924
256.665
256.426
256.205
256.004
255.822
255.659
255.514
255.387
255.279
255.188
255.116
255.061
255.024
255.005
255.003
398.057
394.185
390.33
386.506
382.725
378.996
375.327
371.725
368.195
364.74
361.363
358.064
354.843
351.701
348.635
345.645
342.728
339.883
337.107
334.398
331.755
329.175
326.656
324.196
321.794
319.448
317.156
314.918
312.731
310.594
308.507
306.469
304.477
302.532
300.633
298.779
296.969
295.202
293.478
291.796
290.155
288.556
286.997
285.478
283.998
282.558
281.155
279.791
278.463
277.173
275.919
274.702
273.519
272.372
271.259
270.18
269.135
268.122
267.143
266.195
265.279
264.394
263.54
262.716
261.922
261.156
260.42
259.712
259.031
258.378
257.752
257.152
256.577
256.029
255.505
255.006
254.532
254.081
253.653
253.248
252.866
252.507
252.169
251.853
251.558
251.284
251.031
250.798
250.586
250.393
250.22
250.067
249.933
249.818
249.723
249.646
249.588
249.549
249.528
249.526
398.05
394.165
390.293
386.449
382.642
378.88
375.171
371.522
367.937
364.42
360.974
357.599
354.297
351.068
347.912
344.827
341.812
338.867
335.988
333.176
330.427
327.742
325.117
322.551
320.043
317.592
315.196
312.854
310.564
308.326
306.139
304.002
301.913
299.872
297.879
295.932
294.031
292.175
290.363
288.596
286.871
285.19
283.551
281.953
280.397
278.881
277.406
275.97
274.573
273.216
271.896
270.614
269.369
268.162
266.99
265.854
264.753
263.688
262.656
261.658
260.693
259.762
258.862
257.994
257.157
256.351
255.576
254.829
254.113
253.425
252.765
252.133
251.528
250.95
250.398
249.872
249.372
248.897
248.446
248.02
247.618
247.239
246.883
246.55
246.239
245.95
245.684
245.438
245.214
245.011
244.829
244.668
244.526
244.405
244.305
244.224
244.163
244.121
244.1
244.097
398.039
394.131
390.235
386.362
382.522
378.722
374.97
371.271
367.63
364.05
360.534
357.086
353.704
350.391
347.147
343.97
340.861
337.819
334.841
331.928
329.078
326.29
323.563
320.894
318.284
315.73
313.232
310.789
308.399
306.062
303.777
301.543
299.359
297.225
295.139
293.101
291.111
289.167
287.27
285.418
283.611
281.849
280.13
278.455
276.824
275.234
273.687
272.181
270.716
269.291
267.907
266.562
265.256
263.988
262.758
261.566
260.411
259.292
258.209
257.162
256.149
255.171
254.226
253.315
252.436
251.59
250.775
249.992
249.239
248.516
247.823
247.16
246.524
245.917
245.338
244.786
244.26
243.761
243.288
242.84
242.418
242.019
241.646
241.296
240.969
240.666
240.386
240.128
239.893
239.679
239.488
239.318
239.17
239.043
238.937
238.852
238.787
238.744
238.721
238.719
398.025
394.086
390.158
386.25
382.372
378.53
374.73
370.978
367.279
363.636
360.052
356.53
353.071
349.676
346.345
343.08
339.879
336.742
333.669
330.659
327.711
324.823
321.996
319.227
316.517
313.864
311.267
308.725
306.238
303.804
301.423
299.095
296.817
294.591
292.414
290.287
288.209
286.18
284.198
282.263
280.375
278.533
276.737
274.986
273.28
271.618
270
268.425
266.892
265.402
263.954
262.546
261.179
259.853
258.566
257.318
256.109
254.938
253.804
252.708
251.648
250.623
249.634
248.68
247.76
246.874
246.021
245.201
244.413
243.656
242.93
242.235
241.57
240.934
240.327
239.749
239.198
238.676
238.18
237.711
237.268
236.851
236.459
236.093
235.751
235.433
235.14
234.87
234.623
234.4
234.199
234.021
233.865
233.732
233.621
233.532
233.465
233.419
233.395
233.393
398.007
394.032
390.065
386.118
382.197
378.308
374.458
370.651
366.892
363.185
359.532
355.937
352.401
348.926
345.512
342.16
338.87
335.642
332.476
329.371
326.327
323.343
320.418
317.553
314.745
311.995
309.301
306.663
304.081
301.552
299.078
296.657
294.288
291.972
289.707
287.492
285.328
283.214
281.15
279.134
277.166
275.246
273.373
271.548
269.768
268.035
266.347
264.703
263.104
261.549
260.038
258.569
257.142
255.758
254.415
253.112
251.85
250.627
249.443
248.298
247.191
246.122
245.089
244.092
243.132
242.206
241.315
240.458
239.635
238.845
238.086
237.36
236.665
236.001
235.367
234.763
234.188
233.642
233.124
232.634
232.171
231.736
231.326
230.943
230.586
230.254
229.947
229.665
229.407
229.174
228.964
228.778
228.616
228.476
228.36
228.267
228.196
228.149
228.124
228.121
397.986
393.97
389.96
385.968
382
378.061
374.157
370.293
366.474
362.702
358.981
355.313
351.701
348.147
344.651
341.214
337.837
334.52
331.263
328.066
324.929
321.851
318.832
315.872
312.97
310.125
307.337
304.605
301.93
299.309
296.743
294.232
291.774
289.369
287.017
284.717
282.469
280.272
278.126
276.03
273.984
271.987
270.04
268.14
266.289
264.485
262.728
261.018
259.353
257.735
256.161
254.632
253.146
251.704
250.305
248.949
247.634
246.36
245.128
243.935
242.781
241.667
240.591
239.553
238.552
237.588
236.659
235.766
234.908
234.085
233.294
232.538
231.813
231.121
230.46
229.831
229.231
228.662
228.122
227.612
227.129
226.675
226.248
225.849
225.477
225.131
224.811
224.516
224.248
224.004
223.786
223.592
223.422
223.277
223.156
223.058
222.985
222.935
222.909
222.906
397.963
393.901
389.844
385.804
381.785
377.793
373.834
369.911
366.029
362.191
358.401
354.662
350.975
347.343
343.766
340.246
336.784
333.38
330.035
326.748
323.521
320.351
317.241
314.188
311.193
308.256
305.376
302.553
299.787
297.076
294.421
291.821
289.275
286.784
284.347
281.963
279.632
277.354
275.128
272.954
270.831
268.759
266.737
264.766
262.844
260.971
259.146
257.37
255.641
253.96
252.325
250.736
249.192
247.694
246.24
244.831
243.464
242.14
240.859
239.619
238.42
237.262
236.143
235.064
234.023
233.02
232.055
231.126
230.234
229.378
228.556
227.769
227.016
226.296
225.609
224.954
224.331
223.738
223.177
222.646
222.144
221.671
221.228
220.812
220.425
220.065
219.732
219.426
219.146
218.893
218.665
218.464
218.287
218.136
218.01
217.908
217.832
217.78
217.753
217.749
397.938
393.826
389.72
385.627
381.555
377.508
373.49
369.507
365.561
361.658
357.799
353.988
350.227
346.517
342.861
339.26
335.715
332.226
328.794
325.42
322.104
318.845
315.645
312.502
309.418
306.391
303.421
300.509
297.653
294.854
292.112
289.425
286.794
284.218
281.698
279.232
276.82
274.462
272.158
269.907
267.709
265.562
263.468
261.426
259.434
257.493
255.602
253.761
251.969
250.226
248.53
246.883
245.283
243.729
242.221
240.759
239.341
237.968
236.639
235.352
234.109
232.907
231.746
230.626
229.546
228.506
227.504
226.54
225.615
224.726
223.873
223.056
222.274
221.527
220.814
220.134
219.487
218.872
218.289
217.738
217.217
216.727
216.266
215.835
215.432
215.058
214.713
214.395
214.105
213.842
213.605
213.396
213.213
213.055
212.924
212.819
212.74
212.686
212.657
212.653
397.912
393.747
389.587
385.441
381.312
377.207
373.13
369.085
365.075
361.105
357.177
353.295
349.46
345.674
341.94
338.259
334.632
331.06
327.543
324.084
320.681
317.335
314.048
310.817
307.645
304.53
301.473
298.473
295.531
292.645
289.817
287.046
284.332
281.673
279.071
276.525
274.034
271.598
269.217
266.89
264.618
262.399
260.234
258.121
256.061
254.053
252.097
250.192
248.338
246.534
244.78
243.074
241.418
239.809
238.249
236.735
235.267
233.845
232.469
231.137
229.849
228.604
227.402
226.242
225.124
224.046
223.008
222.01
221.051
220.13
219.247
218.4
217.59
216.816
216.077
215.373
214.703
214.066
213.462
212.89
212.351
211.842
211.365
210.918
210.501
210.114
209.755
209.426
209.125
208.852
208.607
208.39
208.2
208.037
207.901
207.792
207.71
207.653
207.624
207.62
397.884
393.664
389.449
385.245
381.059
376.895
372.757
368.648
364.574
360.536
356.539
352.585
348.677
344.816
341.005
337.245
333.538
329.884
326.285
322.742
319.255
315.824
312.451
309.135
305.876
302.675
299.533
296.448
293.421
290.451
287.54
284.686
281.889
279.15
276.468
273.843
271.274
268.762
266.305
263.905
261.56
259.27
257.034
254.854
252.727
250.653
248.633
246.665
244.75
242.886
241.074
239.312
237.6
235.938
234.325
232.76
231.243
229.774
228.351
226.974
225.642
224.355
223.112
221.913
220.756
219.642
218.569
217.537
216.545
215.593
214.679
213.804
212.966
212.166
211.401
210.673
209.979
209.32
208.696
208.104
207.546
207.02
206.526
206.064
205.632
205.232
204.861
204.52
204.209
203.927
203.673
203.448
203.252
203.083
202.942
202.829
202.744
202.686
202.655
202.651
397.856
393.579
389.305
385.043
380.797
376.572
372.372
368.199
364.059
359.955
355.888
351.863
347.882
343.947
340.06
336.222
332.436
328.702
325.022
321.397
317.827
314.313
310.856
307.456
304.114
300.83
297.603
294.435
291.325
288.273
285.28
282.345
279.468
276.65
273.89
271.187
268.542
265.955
263.425
260.952
258.536
256.176
253.872
251.624
249.432
247.294
245.211
243.181
241.206
239.284
237.414
235.596
233.83
232.115
230.451
228.836
227.271
225.754
224.285
222.864
221.49
220.161
218.879
217.64
216.446
215.296
214.188
213.123
212.098
211.115
210.172
209.268
208.403
207.576
206.787
206.034
205.318
204.638
203.993
203.382
202.805
202.262
201.752
201.274
200.829
200.415
200.032
199.68
199.358
199.066
198.804
198.572
198.369
198.195
198.049
197.932
197.844
197.783
197.751
197.747
397.826
393.49
389.157
384.835
380.528
376.241
371.977
367.741
363.535
359.362
355.227
351.131
347.078
343.069
339.107
335.193
331.329
327.516
323.757
320.051
316.4
312.805
309.266
305.785
302.36
298.994
295.685
292.436
289.245
286.113
283.04
280.026
277.071
274.175
271.338
268.56
265.84
263.18
260.578
258.034
255.548
253.119
250.748
248.434
246.177
243.976
241.831
239.742
237.707
235.727
233.801
231.929
230.11
228.343
226.628
224.964
223.351
221.788
220.275
218.81
217.393
216.024
214.702
213.426
212.195
211.009
209.867
208.768
207.712
206.699
205.726
204.794
203.902
203.05
202.236
201.46
200.721
200.02
199.354
198.724
198.13
197.569
197.043
196.551
196.091
195.664
195.269
194.906
194.574
194.273
194.003
193.763
193.553
193.373
193.223
193.102
193.011
192.949
192.916
192.911
397.796
393.399
389.006
384.622
380.254
375.904
371.576
367.274
363.002
358.762
354.557
350.391
346.266
342.184
338.148
334.159
330.218
326.329
322.491
318.707
314.976
311.302
307.683
304.121
300.616
297.17
293.781
290.452
287.182
283.971
280.82
277.728
274.697
271.725
268.813
265.961
263.169
260.437
257.764
255.15
252.596
250.1
247.664
245.285
242.965
240.702
238.496
236.347
234.255
232.219
230.238
228.312
226.44
224.622
222.858
221.146
219.486
217.878
216.32
214.812
213.354
211.945
210.584
209.27
208.003
206.782
205.607
204.476
203.389
202.345
201.343
200.384
199.465
198.587
197.749
196.95
196.19
195.467
194.782
194.133
193.521
192.944
192.402
191.894
191.421
190.981
190.574
190.2
189.858
189.548
189.27
189.022
188.806
188.621
188.466
188.342
188.247
188.183
188.149
188.144
397.766
393.307
388.852
384.406
379.975
375.561
371.169
366.802
362.463
358.155
353.882
349.646
345.45
341.296
337.186
333.122
329.107
325.141
321.227
317.365
313.557
309.804
306.107
302.467
298.884
295.359
291.893
288.485
285.138
281.85
278.622
275.455
272.349
269.303
266.318
263.393
260.53
257.727
254.985
252.303
249.682
247.121
244.619
242.178
239.795
237.472
235.207
233
230.851
228.759
226.724
224.745
222.822
220.954
219.141
217.382
215.676
214.023
212.422
210.872
209.374
207.925
206.526
205.175
203.873
202.617
201.409
200.246
199.128
198.055
197.025
196.038
195.094
194.191
193.329
192.507
191.725
190.982
190.277
189.61
188.98
188.386
187.829
187.307
186.82
186.367
185.948
185.563
185.212
184.893
184.606
184.352
184.13
183.939
183.779
183.651
183.554
183.488
183.452
183.447
397.734
393.214
388.696
384.188
379.693
375.215
370.758
366.325
361.92
357.545
353.203
348.897
344.631
340.405
336.223
332.086
327.997
323.956
319.967
316.029
312.145
308.316
304.542
300.824
297.165
293.563
290.02
286.537
283.114
279.751
276.448
273.207
270.027
266.909
263.852
260.857
257.924
255.052
252.242
249.494
246.807
244.181
241.617
239.113
236.67
234.287
231.963
229.7
227.495
225.349
223.261
221.23
219.257
217.34
215.479
213.673
211.922
210.226
208.582
206.991
205.453
203.965
202.529
201.142
199.804
198.515
197.274
196.08
194.932
193.83
192.772
191.758
190.788
189.861
188.976
188.132
187.328
186.565
185.841
185.155
184.508
183.898
183.325
182.789
182.289
181.824
181.394
180.998
180.636
180.309
180.014
179.753
179.524
179.328
179.164
179.032
178.932
178.864
178.827
178.822
397.703
393.12
388.539
383.967
379.409
374.867
370.345
365.846
361.374
356.931
352.522
348.147
343.81
339.514
335.26
331.051
326.889
322.775
318.712
314.7
310.741
306.836
302.987
299.195
295.46
291.783
288.166
284.608
281.111
277.674
274.299
270.985
267.734
264.544
261.417
258.353
255.352
252.413
249.536
246.723
243.972
241.283
238.657
236.092
233.589
231.148
228.768
226.448
224.189
221.99
219.85
217.769
215.746
213.781
211.873
210.022
208.227
206.487
204.802
203.17
201.592
200.067
198.594
197.171
195.8
194.477
193.204
191.979
190.802
189.671
188.586
187.546
186.551
185.599
184.691
183.825
183.001
182.217
181.474
180.771
180.107
179.481
178.893
178.343
177.829
177.352
176.911
176.504
176.133
175.797
175.495
175.226
174.991
174.79
174.622
174.486
174.383
174.313
174.276
174.27
397.672
393.025
388.381
383.745
379.123
374.516
369.929
365.365
360.827
356.317
351.84
347.397
342.991
338.625
334.3
330.02
325.786
321.6
317.464
313.379
309.347
305.369
301.446
297.58
293.772
290.022
286.331
282.7
279.131
275.622
272.175
268.791
265.469
262.211
259.015
255.883
252.815
249.81
246.869
243.991
241.178
238.427
235.74
233.116
230.555
228.057
225.621
223.247
220.934
218.683
216.492
214.361
212.29
210.277
208.324
206.428
204.589
202.807
201.081
199.41
197.794
196.231
194.722
193.265
191.859
190.505
189.2
187.945
186.738
185.579
184.468
183.402
182.382
181.407
180.476
179.588
178.744
177.941
177.179
176.458
175.777
175.136
174.533
173.969
173.442
172.953
172.501
172.084
171.704
171.359
171.049
170.773
170.533
170.326
170.153
170.014
169.909
169.837
169.798
169.791
397.64
392.93
388.222
383.523
378.837
374.166
369.514
364.884
360.28
355.704
351.159
346.648
342.174
337.738
333.344
328.994
324.689
320.432
316.225
312.068
307.964
303.914
299.919
295.981
292.101
288.279
284.517
280.815
277.174
273.595
270.079
266.625
263.235
259.909
256.646
253.448
250.314
247.245
244.24
241.301
238.425
235.615
232.868
230.186
227.568
225.014
222.523
220.096
217.731
215.428
213.187
211.008
208.889
206.831
204.832
202.893
201.012
199.188
197.422
195.712
194.058
192.459
190.914
189.423
187.984
186.598
185.262
183.978
182.742
181.556
180.418
179.327
178.283
177.285
176.332
175.423
174.558
173.736
172.956
172.218
171.52
170.864
170.247
169.669
169.129
168.628
168.165
167.738
167.348
166.995
166.677
166.395
166.149
165.937
165.76
165.617
165.509
165.435
165.395
165.388
397.608
392.835
388.064
383.301
378.55
373.815
369.099
364.404
359.734
355.092
350.48
345.902
341.36
336.857
332.394
327.975
323.6
319.274
314.996
310.769
306.594
302.474
298.408
294.4
290.449
286.557
282.724
278.953
275.243
271.595
268.011
264.489
261.032
257.639
254.311
251.048
247.851
244.719
241.652
238.651
235.716
232.846
230.042
227.303
224.629
222.021
219.476
216.996
214.58
212.228
209.938
207.711
205.546
203.442
201.399
199.417
197.494
195.63
193.825
192.077
190.386
188.751
187.171
185.647
184.176
182.758
181.393
180.079
178.815
177.602
176.438
175.323
174.255
173.234
172.259
171.329
170.444
169.603
168.806
168.05
167.337
166.665
166.034
165.443
164.891
164.378
163.904
163.467
163.069
162.707
162.382
162.093
161.84
161.624
161.442
161.296
161.185
161.109
161.068
161.061
397.577
392.74
387.905
383.079
378.265
373.466
368.685
363.925
359.19
354.482
349.805
345.16
340.551
335.981
331.45
326.963
322.52
318.125
313.778
309.482
305.238
301.049
296.914
292.836
288.816
284.856
280.955
277.115
273.338
269.623
265.971
262.384
258.861
255.404
252.012
248.686
245.426
242.232
239.105
236.044
233.05
230.123
227.262
224.467
221.739
219.077
216.48
213.949
211.483
209.081
206.744
204.47
202.26
200.112
198.026
196.001
194.038
192.134
190.29
188.505
186.778
185.108
183.495
181.937
180.434
178.986
177.591
176.249
174.958
173.718
172.529
171.389
170.298
169.255
168.258
167.308
166.404
165.545
164.729
163.957
163.228
162.542
161.896
161.292
160.728
160.204
159.719
159.273
158.865
158.495
158.163
157.867
157.609
157.387
157.202
157.052
156.939
156.861
156.819
156.811
397.545
392.646
387.748
382.858
377.981
373.118
368.273
363.449
358.649
353.877
349.134
344.424
339.749
335.112
330.515
325.961
321.451
316.988