/*--------------------------------*- C++ -*----------------------------------*\
| =========                 |                                                 |
| \\      /  F ield         | OpenFOAM: The Open Source CFD Toolbox           |
|  \\    /   O peration     | Version:  2406                                  |
|   \\  /    A nd           | Website:  www.openfoam.com                      |
|    \\/     M anipulation  |                                                 |
\*---------------------------------------------------------------------------*/
FoamFile
{
    version     2.0;
    format      ascii;
    arch        "LSB;label=32;scalar=64";
    class       volScalarField;
    location    "18.5";
    object      p;
}
// * * * * * * * * * * * * * * * * * * * * * * * * * * * * * * * * * * * * * //

dimensions      [0 2 -2 0 0 0 0];

internalField   nonuniform List<scalar> 
34560
(
-17.665732
-17.656624
-17.645856
-17.63304
-17.616165
-17.594396
-17.570488
-17.54941
-17.535263
-17.724212
-17.714134
-17.701925
-17.686076
-17.663881
-17.635213
-17.605022
-17.580614
-17.566348
-17.759704
-17.749494
-17.737615
-17.722091
-17.699133
-17.668096
-17.634996
-17.608101
-17.591577
-17.788094
-17.778093
-17.766795
-17.751696
-17.728369
-17.695925
-17.660477
-17.630868
-17.611382
-17.809018
-17.799425
-17.789108
-17.775047
-17.751973
-17.718477
-17.68099
-17.649077
-17.626472
-17.819307
-17.810779
-17.80233
-17.790346
-17.768662
-17.735188
-17.696299
-17.662513
-17.636821
-17.823235
-17.815807
-17.809266
-17.799524
-17.779626
-17.746404
-17.706598
-17.671266
-17.642568
-17.821408
-17.815181
-17.810669
-17.803327
-17.785403
-17.752737
-17.712641
-17.675795
-17.644346
-17.815718
-17.810682
-17.808113
-17.803077
-17.787135
-17.755357
-17.715311
-17.676984
-17.643155
-17.808175
-17.804249
-17.803424
-17.800442
-17.786312
-17.755568
-17.71561
-17.675964
-17.640191
-17.801261
-17.79826
-17.798802
-17.797347
-17.784558
-17.754652
-17.714678
-17.67399
-17.636803
-17.797585
-17.794984
-17.796146
-17.795386
-17.783232
-17.753736
-17.713668
-17.672344
-17.634349
-17.797585
-17.794984
-17.796146
-17.795386
-17.783232
-17.753736
-17.713668
-17.672344
-17.634348
-17.801261
-17.798259
-17.798802
-17.797347
-17.784558
-17.754652
-17.714678
-17.67399
-17.636802
-17.808176
-17.80425
-17.803424
-17.800443
-17.786313
-17.755569
-17.71561
-17.675963
-17.64019
-17.81572
-17.810683
-17.808114
-17.803079
-17.787136
-17.755358
-17.715312
-17.676984
-17.643154
-17.821411
-17.815184
-17.810671
-17.803329
-17.785405
-17.752738
-17.712643
-17.675795
-17.644344
-17.823237
-17.81581
-17.809269
-17.799526
-17.779628
-17.746405
-17.706599
-17.671267
-17.642567
-17.819308
-17.810781
-17.802332
-17.790348
-17.768664
-17.73519
-17.696301
-17.662514
-17.636821
-17.80902
-17.799426
-17.78911
-17.77505
-17.751976
-17.718479
-17.680992
-17.649078
-17.626473
-17.788096
-17.778095
-17.766797
-17.751699
-17.728372
-17.695928
-17.66048
-17.63087
-17.611383
-17.759707
-17.749498
-17.737618
-17.722095
-17.699137
-17.6681
-17.635
-17.608104
-17.591579
-17.724217
-17.714139
-17.70193
-17.686081
-17.663887
-17.635219
-17.605028
-17.580619
-17.566352
-17.665738
-17.65663
-17.645862
-17.633046
-17.616173
-17.594405
-17.570495
-17.549417
-17.53527
-16.395901
-16.395652
-16.395688
-16.395963
-16.39589
-16.394763
-16.39259
-16.389974
-16.386987
-16.397377
-16.397042
-16.397085
-16.397407
-16.39717
-16.395488
-16.392275
-16.387993
-16.382605
-16.394811
-16.394423
-16.394568
-16.395087
-16.394862
-16.392756
-16.388664
-16.382999
-16.375959
-16.387984
-16.387539
-16.387817
-16.388618
-16.388533
-16.386125
-16.381262
-16.374382
-16.365825
-16.377172
-16.376653
-16.37706
-16.378171
-16.378274
-16.37561
-16.369932
-16.361865
-16.351922
-16.363439
-16.362741
-16.363165
-16.364482
-16.364674
-16.361634
-16.355076
-16.345846
-16.334711
-16.347215
-16.346308
-16.346689
-16.348138
-16.348335
-16.344859
-16.337415
-16.327081
-16.315007
-16.329817
-16.328656
-16.328908
-16.330369
-16.330453
-16.326457
-16.318151
-16.306796
-16.294051
-16.312774
-16.311337
-16.31139
-16.312754
-16.312617
-16.30805
-16.29891
-16.286657
-16.273496
-16.297878
-16.29616
-16.295966
-16.297148
-16.296716
-16.29158
-16.281679
-16.268692
-16.255316
-16.286755
-16.284804
-16.284385
-16.285374
-16.284668
-16.279064
-16.268574
-16.255065
-16.241603
-16.280665
-16.278615
-16.278095
-16.278992
-16.27815
-16.2723
-16.261496
-16.247718
-16.23423
-16.280665
-16.278616
-16.278095
-16.278992
-16.27815
-16.2723
-16.261496
-16.247718
-16.234231
-16.286756
-16.284805
-16.284386
-16.285374
-16.284669
-16.279065
-16.268575
-16.255066
-16.241604
-16.297879
-16.296161
-16.295967
-16.297149
-16.296717
-16.29158
-16.28168
-16.268693
-16.255316
-16.312776
-16.311339
-16.311391
-16.312756
-16.312618
-16.308051
-16.298911
-16.286658
-16.273497
-16.329818
-16.328658
-16.328909
-16.33037
-16.330454
-16.326459
-16.318152
-16.306798
-16.294052
-16.347216
-16.346309
-16.34669
-16.348139
-16.348337
-16.34486
-16.337416
-16.327083
-16.315009
-16.363439
-16.362742
-16.363166
-16.364483
-16.364675
-16.361635
-16.355078
-16.345848
-16.334713
-16.377173
-16.376654
-16.377061
-16.378172
-16.378275
-16.375611
-16.369934
-16.361867
-16.351925
-16.387985
-16.38754
-16.387818
-16.388619
-16.388534
-16.386127
-16.381264
-16.374385
-16.365828
-16.394813
-16.394425
-16.394569
-16.395089
-16.394864
-16.392758
-16.388666
-16.383002
-16.375962
-16.397379
-16.397044
-16.397087
-16.397409
-16.397172
-16.39549
-16.392277
-16.387996
-16.382609
-16.395903
-16.395654
-16.39569
-16.395966
-16.395893
-16.394766
-16.392593
-16.389978
-16.386993
-15.956878
-15.956887
-15.956878
-15.956774
-15.956596
-15.956424
-15.956381
-15.956525
-15.956437
-15.961602
-15.961624
-15.961569
-15.961292
-15.960795
-15.960174
-15.959571
-15.959092
-15.958538
-15.965387
-15.965435
-15.9654
-15.965103
-15.964509
-15.963687
-15.96277
-15.96191
-15.961094
-15.968734
-15.968803
-15.968782
-15.968464
-15.967802
-15.96685
-15.965716
-15.964576
-15.963501
-15.971554
-15.971642
-15.971637
-15.971314
-15.970614
-15.969574
-15.968281
-15.966918
-15.96562
-15.973795
-15.973909
-15.973933
-15.973624
-15.972919
-15.971835
-15.97044
-15.968917
-15.967443
-15.97556
-15.97569
-15.975733
-15.975433
-15.974733
-15.97363
-15.972181
-15.970552
-15.968952
-15.976871
-15.977011
-15.97707
-15.976779
-15.976088
-15.974984
-15.973516
-15.971827
-15.970136
-15.977791
-15.977935
-15.978002
-15.977723
-15.977042
-15.975946
-15.974473
-15.972756
-15.971004
-15.978388
-15.978535
-15.978607
-15.978334
-15.977663
-15.976577
-15.975107
-15.973371
-15.971589
-15.978741
-15.978889
-15.978961
-15.97869
-15.978023
-15.976943
-15.975475
-15.973729
-15.971937
-15.978898
-15.979046
-15.979117
-15.978845
-15.97818
-15.977104
-15.975637
-15.973887
-15.972092
-15.978898
-15.979046
-15.979117
-15.978846
-15.97818
-15.977104
-15.975637
-15.973887
-15.972092
-15.978741
-15.97889
-15.978961
-15.97869
-15.978023
-15.976943
-15.975475
-15.973729
-15.971937
-15.978388
-15.978536
-15.978607
-15.978334
-15.977663
-15.976577
-15.975107
-15.973372
-15.97159
-15.977791
-15.977936
-15.978003
-15.977723
-15.977042
-15.975946
-15.974474
-15.972756
-15.971005
-15.976872
-15.977012
-15.977071
-15.976779
-15.976088
-15.974984
-15.973516
-15.971828
-15.970137
-15.975561
-15.975691
-15.975734
-15.975434
-15.974733
-15.97363
-15.972182
-15.970553
-15.968954
-15.973796
-15.97391
-15.973933
-15.973624
-15.97292
-15.971835
-15.97044
-15.968918
-15.967445
-15.971555
-15.971643
-15.971638
-15.971314
-15.970614
-15.969574
-15.968281
-15.966918
-15.965621
-15.968734
-15.968804
-15.968782
-15.968465
-15.967802
-15.96685
-15.965716
-15.964577
-15.963503
-15.965388
-15.965435
-15.965401
-15.965103
-15.964509
-15.963687
-15.96277
-15.961911
-15.961096
-15.961603
-15.961625
-15.961569
-15.961293
-15.960796
-15.960175
-15.959572
-15.959093
-15.958541
-15.956879
-15.956888
-15.956879
-15.956775
-15.956597
-15.956426
-15.956383
-15.956528
-15.956441
-14.989682
-14.989734
-14.98981
-14.98994
-14.990089
-14.990147
-14.990001
-14.989606
-14.988982
-14.989692
-14.989739
-14.989805
-14.989921
-14.990034
-14.990011
-14.98971
-14.989053
-14.988112
-14.989758
-14.989795
-14.989848
-14.989951
-14.990042
-14.989969
-14.989577
-14.988794
-14.987726
-14.989675
-14.989702
-14.989744
-14.989838
-14.989914
-14.989807
-14.989348
-14.988471
-14.987275
-14.989447
-14.989465
-14.989495
-14.989579
-14.989639
-14.989495
-14.988971
-14.988006
-14.986699
-14.989112
-14.989118
-14.989132
-14.989202
-14.989248
-14.989068
-14.988485
-14.987447
-14.986056
-14.988672
-14.988666
-14.988667
-14.988725
-14.988752
-14.988547
-14.987919
-14.98683
-14.985386
-14.988181
-14.988162
-14.988149
-14.988196
-14.988207
-14.98798
-14.987319
-14.986198
-14.984718
-14.987691
-14.98766
-14.987634
-14.987668
-14.987667
-14.98742
-14.986733
-14.985588
-14.984031
-14.987262
-14.98722
-14.987181
-14.987204
-14.98719
-14.986925
-14.986207
-14.985015
-14.983392
-14.98694
-14.98689
-14.986841
-14.986855
-14.986831
-14.986551
-14.985809
-14.984562
-14.982938
-14.986764
-14.98671
-14.986657
-14.986667
-14.986636
-14.986345
-14.985588
-14.984332
-14.98271
-14.986764
-14.98671
-14.986657
-14.986667
-14.986636
-14.986345
-14.985589
-14.984332
-14.98271
-14.986941
-14.98689
-14.986841
-14.986856
-14.986831
-14.986551
-14.985809
-14.984562
-14.982939
-14.987262
-14.987221
-14.987182
-14.987205
-14.98719
-14.986925
-14.986208
-14.985015
-14.983393
-14.987691
-14.987661
-14.987635
-14.987669
-14.987667
-14.987421
-14.986733
-14.985589
-14.984032
-14.988181
-14.988163
-14.98815
-14.988196
-14.988208
-14.987981
-14.98732
-14.986198
-14.98472
-14.988673
-14.988667
-14.988668
-14.988726
-14.988752
-14.988548
-14.987919
-14.986831
-14.985387
-14.989112
-14.989118
-14.989133
-14.989202
-14.989248
-14.989068
-14.988485
-14.987448
-14.986057
-14.989448
-14.989465
-14.989495
-14.989579
-14.989639
-14.989495
-14.988971
-14.988006
-14.986699
-14.989675
-14.989702
-14.989744
-14.989838
-14.989914
-14.989807
-14.989348
-14.988471
-14.987275
-14.989758
-14.989795
-14.989849
-14.989951
-14.990042
-14.989969
-14.989577
-14.988794
-14.987726
-14.989693
-14.98974
-14.989806
-14.989922
-14.990035
-14.990012
-14.98971
-14.989053
-14.988112
-14.989683
-14.989735
-14.989811
-14.989941
-14.99009
-14.990148
-14.990002
-14.989606
-14.988982
-14.385737
-14.385786
-14.385841
-14.385877
-14.385907
-14.38597
-14.386106
-14.386324
-14.386431
-14.38608
-14.386133
-14.386181
-14.386186
-14.386158
-14.38614
-14.386176
-14.386276
-14.386339
-14.386433
-14.386485
-14.386528
-14.386515
-14.386457
-14.386404
-14.386408
-14.386491
-14.386608
-14.386726
-14.386774
-14.386809
-14.386781
-14.386705
-14.386638
-14.386637
-14.386725
-14.386872
-14.386966
-14.387008
-14.387034
-14.386991
-14.386897
-14.386818
-14.386816
-14.386911
-14.387078
-14.387165
-14.387201
-14.387219
-14.387161
-14.387051
-14.38696
-14.386959
-14.387062
-14.387242
-14.38732
-14.387351
-14.38736
-14.387289
-14.387166
-14.387068
-14.387069
-14.387178
-14.387356
-14.38744
-14.387465
-14.387466
-14.387385
-14.387251
-14.387148
-14.387152
-14.387258
-14.387444
-14.387528
-14.387548
-14.387542
-14.387453
-14.387312
-14.387207
-14.387216
-14.387335
-14.387604
-14.387593
-14.387608
-14.387596
-14.387501
-14.387356
-14.387255
-14.387283
-14.387462
-14.387809
-14.387637
-14.387649
-14.387633
-14.387534
-14.387388
-14.387292
-14.387342
-14.387593
-14.387951
-14.387656
-14.387666
-14.387649
-14.387549
-14.387403
-14.387315
-14.387381
-14.387653
-14.388017
-14.387656
-14.387666
-14.387649
-14.387549
-14.387403
-14.387316
-14.387381
-14.387653
-14.388017
-14.387638
-14.387649
-14.387634
-14.387534
-14.387388
-14.387292
-14.387342
-14.387594
-14.387952
-14.387593
-14.387608
-14.387597
-14.387502
-14.387357
-14.387256
-14.387283
-14.387462
-14.38781
-14.387529
-14.387548
-14.387543
-14.387453
-14.387312
-14.387208
-14.387216
-14.387335
-14.387605
-14.387441
-14.387465
-14.387466
-14.387385
-14.387251
-14.387148
-14.387152
-14.387259
-14.387445
-14.387321
-14.387351
-14.387361
-14.387289
-14.387166
-14.387068
-14.38707
-14.387178
-14.387357
-14.387165
-14.387201
-14.387219
-14.387161
-14.387051
-14.38696
-14.386959
-14.387063
-14.387242
-14.386966
-14.387008
-14.387034
-14.386991
-14.386897
-14.386818
-14.386816
-14.386911
-14.387079
-14.386726
-14.386774
-14.386808
-14.38678
-14.386704
-14.386637
-14.386637
-14.386725
-14.386872
-14.386432
-14.386484
-14.386527
-14.386514
-14.386456
-14.386403
-14.386407
-14.38649
-14.386607
-14.386079
-14.386132
-14.38618
-14.386184
-14.386156
-14.386138
-14.386174
-14.386274
-14.386337
-14.385736
-14.385784
-14.385839
-14.385876
-14.385905
-14.385968
-14.386103
-14.38632
-14.386427
-13.573762
-13.573774
-13.573802
-13.573865
-13.573955
-13.57404
-13.574081
-13.574058
-13.57397
-13.573937
-13.573947
-13.57397
-13.574026
-13.574099
-13.574147
-13.574119
-13.573991
-13.573798
-13.574168
-13.574174
-13.574193
-13.574244
-13.57431
-13.574342
-13.574284
-13.574119
-13.573896
-13.574384
-13.574385
-13.574399
-13.574447
-13.574509
-13.574532
-13.574457
-13.574268
-13.574014
-13.574581
-13.574579
-13.574588
-13.57463
-13.574685
-13.574698
-13.574607
-13.574401
-13.574125
-13.574756
-13.574749
-13.574754
-13.574791
-13.57484
-13.574842
-13.57474
-13.574525
-13.574236
-13.574897
-13.574888
-13.574888
-13.574921
-13.574963
-13.574958
-13.574847
-13.574616
-13.574242
-13.575005
-13.574993
-13.57499
-13.575019
-13.575055
-13.57504
-13.574916
-13.574613
-13.574132
-13.57508
-13.575068
-13.575062
-13.575086
-13.575116
-13.575083
-13.574917
-13.574536
-13.574018
-13.575129
-13.575116
-13.575109
-13.575129
-13.57515
-13.575099
-13.574878
-13.574466
-13.573928
-13.575157
-13.575143
-13.575135
-13.575153
-13.575165
-13.575095
-13.574848
-13.574418
-13.573865
-13.575168
-13.575154
-13.575145
-13.575161
-13.575168
-13.575084
-13.574832
-13.574393
-13.573834
-13.575168
-13.575155
-13.575146
-13.575161
-13.575168
-13.575084
-13.574832
-13.574393
-13.573835
-13.575157
-13.575144
-13.575135
-13.575153
-13.575165
-13.575096
-13.574849
-13.574418
-13.573866
-13.57513
-13.575117
-13.575109
-13.57513
-13.575151
-13.575099
-13.574879
-13.574467
-13.573929
-13.575081
-13.575068
-13.575063
-13.575087
-13.575117
-13.575084
-13.574917
-13.574538
-13.57402
-13.575006
-13.574994
-13.574991
-13.57502
-13.575056
-13.57504
-13.574917
-13.574615
-13.574134
-13.574898
-13.574889
-13.574889
-13.574921
-13.574964
-13.574958
-13.574847
-13.574618
-13.574244
-13.574757
-13.57475
-13.574754
-13.574791
-13.57484
-13.574842
-13.574741
-13.574526
-13.574238
-13.574581
-13.574579
-13.574587
-13.574629
-13.574685
-13.574697
-13.574607
-13.574402
-13.574128
-13.574383
-13.574384
-13.574398
-13.574446
-13.574507
-13.57453
-13.574456
-13.574269
-13.574017
-13.574167
-13.574173
-13.574191
-13.574242
-13.574308
-13.57434
-13.574283
-13.574119
-13.573898
-13.573934
-13.573944
-13.573967
-13.574022
-13.574096
-13.574144
-13.574116
-13.573989
-13.573799
-13.573758
-13.573771
-13.573798
-13.573861
-13.573952
-13.574037
-13.574077
-13.574055
-13.573969
-12.878267
-12.878285
-12.878305
-12.878319
-12.87833
-12.878345
-12.878373
-12.878426
-12.878454
-12.878261
-12.87828
-12.878299
-12.878308
-12.878306
-12.878305
-12.878312
-12.878335
-12.87835
-12.878289
-12.878308
-12.878325
-12.878327
-12.878318
-12.87831
-12.878315
-12.878343
-12.878385
-12.878314
-12.87833
-12.878344
-12.878341
-12.878328
-12.878317
-12.878327
-12.878364
-12.878422
-12.878341
-12.878354
-12.878363
-12.878355
-12.878336
-12.878322
-12.878333
-12.878375
-12.878438
-12.878375
-12.878385
-12.87839
-12.878376
-12.87835
-12.878333
-12.878343
-12.878384
-12.878448
-12.878413
-12.878421
-12.878421
-12.878402
-12.878371
-12.878352
-12.878363
-12.878417
-12.878567
-12.878459
-12.878462
-12.878459
-12.878435
-12.878402
-12.878384
-12.878406
-12.878542
-12.878796
-12.878508
-12.878508
-12.878501
-12.878475
-12.878442
-12.878435
-12.878508
-12.878725
-12.879003
-12.878555
-12.878552
-12.878542
-12.878514
-12.878484
-12.878495
-12.878627
-12.878871
-12.879159
-12.878591
-12.878587
-12.878575
-12.878546
-12.87852
-12.878551
-12.878711
-12.878969
-12.879261
-12.878612
-12.878607
-12.878594
-12.878566
-12.878544
-12.87859
-12.878755
-12.879018
-12.87931
-12.878612
-12.878607
-12.878594
-12.878566
-12.878544
-12.87859
-12.878755
-12.879018
-12.87931
-12.878592
-12.878588
-12.878576
-12.878547
-12.87852
-12.878551
-12.878712
-12.87897
-12.879263
-12.878556
-12.878553
-12.878543
-12.878515
-12.878484
-12.878496
-12.878628
-12.878873
-12.879161
-12.878509
-12.87851
-12.878503
-12.878476
-12.878443
-12.878436
-12.878509
-12.878727
-12.879006
-12.87846
-12.878464
-12.878461
-12.878436
-12.878402
-12.878384
-12.878408
-12.878544
-12.8788
-12.878415
-12.878422
-12.878422
-12.878403
-12.878372
-12.878352
-12.878364
-12.878419
-12.878571
-12.878376
-12.878386
-12.87839
-12.878376
-12.87835
-12.878333
-12.878344
-12.878386
-12.878452
-12.878341
-12.878354
-12.878363
-12.878355
-12.878335
-12.878322
-12.878334
-12.878377
-12.878443
-12.878313
-12.878329
-12.878342
-12.87834
-12.878326
-12.878316
-12.878326
-12.878366
-12.878426
-12.878287
-12.878305
-12.878322
-12.878324
-12.878315
-12.878307
-12.878314
-12.878344
-12.878389
-12.878257
-12.878276
-12.878295
-12.878303
-12.878302
-12.878301
-12.878309
-12.878334
-12.878352
-12.878263
-12.87828
-12.8783
-12.878314
-12.878325
-12.878341
-12.878369
-12.878423
-12.878454
-12.1226
-12.122602
-12.122608
-12.122624
-12.122648
-12.122674
-12.122691
-12.122686
-12.122643
-12.12267
-12.12267
-12.122675
-12.122688
-12.122706
-12.122717
-12.122706
-12.122658
-12.122576
-12.122752
-12.122751
-12.122754
-12.122765
-12.122779
-12.122782
-12.122756
-12.122691
-12.122595
-12.122829
-12.122827
-12.122828
-12.122837
-12.122848
-12.122845
-12.122809
-12.122731
-12.122617
-12.122899
-12.122895
-12.122894
-12.122901
-12.122909
-12.122901
-12.122857
-12.122765
-12.122634
-12.122959
-12.122954
-12.122951
-12.122956
-12.122961
-12.122949
-12.122898
-12.122791
-12.122638
-12.123007
-12.123001
-12.122997
-12.123
-12.123002
-12.122986
-12.122922
-12.122797
-12.122625
-12.123041
-12.123035
-12.12303
-12.12303
-12.123029
-12.123004
-12.122925
-12.122784
-12.122602
-12.123065
-12.123058
-12.123052
-12.123051
-12.123044
-12.12301
-12.122919
-12.12277
-12.12258
-12.123081
-12.123073
-12.123066
-12.123063
-12.123053
-12.123013
-12.122914
-12.122758
-12.122564
-12.12309
-12.123082
-12.123074
-12.123069
-12.123057
-12.123013
-12.122911
-12.12275
-12.122553
-12.123094
-12.123086
-12.123078
-12.123072
-12.123058
-12.123013
-12.122909
-12.122746
-12.122548
-12.123095
-12.123087
-12.123078
-12.123073
-12.123059
-12.123014
-12.122909
-12.122746
-12.122549
-12.123091
-12.123083
-12.123075
-12.12307
-12.123057
-12.123014
-12.122912
-12.122751
-12.122555
-12.123082
-12.123075
-12.123067
-12.123064
-12.123054
-12.123014
-12.122916
-12.12276
-12.122567
-12.123067
-12.12306
-12.123053
-12.123052
-12.123045
-12.123011
-12.12292
-12.122772
-12.122584
-12.123043
-12.123037
-12.123031
-12.123032
-12.12303
-12.123005
-12.122926
-12.122786
-12.122606
-12.123008
-12.123002
-12.122998
-12.123
-12.123003
-12.122987
-12.122924
-12.122799
-12.122629
-12.12296
-12.122955
-12.122952
-12.122956
-12.122961
-12.122949
-12.122899
-12.122793
-12.122643
-12.122899
-12.122895
-12.122894
-12.1229
-12.122908
-12.1229
-12.122857
-12.122767
-12.122638
-12.122828
-12.122825
-12.122826
-12.122835
-12.122846
-12.122843
-12.122808
-12.122732
-12.122621
-12.12275
-12.122748
-12.122751
-12.122761
-12.122776
-12.122779
-12.122753
-12.12269
-12.122597
-12.122666
-12.122666
-12.12267
-12.122683
-12.122701
-12.122713
-12.122702
-12.122656
-12.122576
-12.122595
-12.122596
-12.122602
-12.122618
-12.122643
-12.122668
-12.122685
-12.12268
-12.12264
-11.396708
-11.396713
-11.396719
-11.396723
-11.396727
-11.396733
-11.396746
-11.396764
-11.396773
-11.396687
-11.396692
-11.396698
-11.396701
-11.396701
-11.396703
-11.396708
-11.396715
-11.396718
-11.396675
-11.39668
-11.396685
-11.396687
-11.396685
-11.396685
-11.396688
-11.396697
-11.396708
-11.396663
-11.396668
-11.396672
-11.396672
-11.396669
-11.396667
-11.396671
-11.396682
-11.3967
-11.396653
-11.396657
-11.396659
-11.396657
-11.396652
-11.396648
-11.396652
-11.396666
-11.39669
-11.396647
-11.39665
-11.396651
-11.396646
-11.396639
-11.396632
-11.396634
-11.396654
-11.396686
-11.396645
-11.396646
-11.396646
-11.39664
-11.39663
-11.396621
-11.396628
-11.396655
-11.396692
-11.396647
-11.396648
-11.396647
-11.396639
-11.396629
-11.396623
-11.396636
-11.396665
-11.396701
-11.396652
-11.396653
-11.39665
-11.396642
-11.396632
-11.396631
-11.396645
-11.39667
-11.396705
-11.396659
-11.396658
-11.396655
-11.396647
-11.396637
-11.396637
-11.396647
-11.396671
-11.396706
-11.396664
-11.396663
-11.396659
-11.396651
-11.396642
-11.396639
-11.396647
-11.39667
-11.396706
-11.396666
-11.396665
-11.396662
-11.396653
-11.396644
-11.39664
-11.396647
-11.39667
-11.396705
-11.396667
-11.396665
-11.396662
-11.396654
-11.396644
-11.396641
-11.396647
-11.39667
-11.396706
-11.396665
-11.396664
-11.39666
-11.396652
-11.396643
-11.39664
-11.396648
-11.396671
-11.396707
-11.39666
-11.396659
-11.396656
-11.396648
-11.396638
-11.396637
-11.396648
-11.396673
-11.396709
-11.396654
-11.396654
-11.396652
-11.396643
-11.396633
-11.396632
-11.396646
-11.396673
-11.396709
-11.396649
-11.39665
-11.396648
-11.39664
-11.39663
-11.396624
-11.396637
-11.396667
-11.396705
-11.396646
-11.396648
-11.396647
-11.39664
-11.39663
-11.396621
-11.396629
-11.396657
-11.396697
-11.396648
-11.396651
-11.396651
-11.396646
-11.396638
-11.396632
-11.396634
-11.396656
-11.39669
-11.396653
-11.396657
-11.396659
-11.396656
-11.396651
-11.396647
-11.396651
-11.396668
-11.396694
-11.396662
-11.396666
-11.39667
-11.396669
-11.396666
-11.396665
-11.396669
-11.396683
-11.396703
-11.396672
-11.396677
-11.396682
-11.396683
-11.396682
-11.396681
-11.396685
-11.396696
-11.396709
-11.396682
-11.396688
-11.396693
-11.396696
-11.396697
-11.396698
-11.396704
-11.396712
-11.396717
-11.396703
-11.396708
-11.396713
-11.396718
-11.396722
-11.396728
-11.39674
-11.396759
-11.396769
-10.657673
-10.657673
-10.657674
-10.657678
-10.657684
-10.65769
-10.657692
-10.657689
-10.657678
-10.657685
-10.657685
-10.657686
-10.65769
-10.657694
-10.657696
-10.657692
-10.657681
-10.657661
-10.657702
-10.657702
-10.657703
-10.657705
-10.657708
-10.657709
-10.657703
-10.65769
-10.657669
-10.657719
-10.657718
-10.657718
-10.65772
-10.657723
-10.657723
-10.657716
-10.657701
-10.657679
-10.657735
-10.657733
-10.657733
-10.657734
-10.657736
-10.657735
-10.657728
-10.657712
-10.657688
-10.657749
-10.657747
-10.657746
-10.657746
-10.657748
-10.657746
-10.657738
-10.657721
-10.657696
-10.65776
-10.657758
-10.657757
-10.657757
-10.657757
-10.657755
-10.657746
-10.657729
-10.657704
-10.65777
-10.657768
-10.657766
-10.657765
-10.657765
-10.657762
-10.657752
-10.657735
-10.657711
-10.657778
-10.657775
-10.657773
-10.657772
-10.657771
-10.657767
-10.657757
-10.657741
-10.657717
-10.657783
-10.657781
-10.657778
-10.657777
-10.657775
-10.65777
-10.657761
-10.657746
-10.657722
-10.657787
-10.657784
-10.657781
-10.65778
-10.657778
-10.657773
-10.657764
-10.65775
-10.657726
-10.657789
-10.657786
-10.657783
-10.657781
-10.657779
-10.657774
-10.657766
-10.657752
-10.657729
-10.657789
-10.657786
-10.657783
-10.657781
-10.657779
-10.657774
-10.657766
-10.657752
-10.657729
-10.657788
-10.657785
-10.657782
-10.65778
-10.657778
-10.657773
-10.657765
-10.657751
-10.657728
-10.657785
-10.657782
-10.657779
-10.657777
-10.657776
-10.657771
-10.657762
-10.657748
-10.657725
-10.657779
-10.657777
-10.657774
-10.657773
-10.657772
-10.657767
-10.657758
-10.657743
-10.65772
-10.657772
-10.657769
-10.657767
-10.657766
-10.657766
-10.657762
-10.657753
-10.657737
-10.657714
-10.657762
-10.657759
-10.657757
-10.657757
-10.657757
-10.657755
-10.657747
-10.657731
-10.657708
-10.657749
-10.657747
-10.657746
-10.657746
-10.657747
-10.657746
-10.657738
-10.657723
-10.6577
-10.657735
-10.657733
-10.657732
-10.657733
-10.657735
-10.657734
-10.657727
-10.657713
-10.657692
-10.657717
-10.657716
-10.657716
-10.657718
-10.65772
-10.65772
-10.657715
-10.657702
-10.657682
-10.657699
-10.657699
-10.657699
-10.657701
-10.657704
-10.657705
-10.657701
-10.657689
-10.657671
-10.657681
-10.657681
-10.657682
-10.657685
-10.657689
-10.657691
-10.657688
-10.657678
-10.657661
-10.657668
-10.657668
-10.657669
-10.657673
-10.657679
-10.657684
-10.657686
-10.657684
-10.657675
-9.9238542
-9.9238553
-9.9238565
-9.9238577
-9.9238587
-9.9238598
-9.9238612
-9.9238636
-9.9238632
-9.9238545
-9.9238556
-9.9238567
-9.9238573
-9.9238574
-9.9238571
-9.9238563
-9.9238549
-9.9238513
-9.9238556
-9.9238566
-9.9238574
-9.9238576
-9.9238572
-9.9238563
-9.9238553
-9.9238539
-9.9238518
-9.9238558
-9.9238566
-9.9238571
-9.923857
-9.9238562
-9.9238553
-9.9238545
-9.9238539
-9.9238529
-9.9238557
-9.9238562
-9.9238564
-9.9238558
-9.9238548
-9.9238536
-9.9238529
-9.923853
-9.9238533
-9.9238554
-9.9238556
-9.9238554
-9.9238544
-9.9238528
-9.9238514
-9.923851
-9.9238521
-9.9238534
-9.9238548
-9.9238548
-9.9238543
-9.9238527
-9.9238506
-9.923849
-9.9238491
-9.9238511
-9.9238535
-9.9238543
-9.9238541
-9.9238533
-9.9238514
-9.9238489
-9.9238472
-9.9238476
-9.9238503
-9.9238536
-9.9238542
-9.9238538
-9.9238527
-9.9238505
-9.9238477
-9.9238459
-9.9238465
-9.9238497
-9.9238537
-9.9238542
-9.9238537
-9.9238524
-9.9238499
-9.9238469
-9.923845
-9.9238457
-9.9238493
-9.9238539
-9.9238545
-9.9238538
-9.9238523
-9.9238496
-9.9238465
-9.9238444
-9.9238452
-9.9238491
-9.9238541
-9.9238547
-9.9238539
-9.9238524
-9.9238496
-9.9238464
-9.9238442
-9.923845
-9.9238492
-9.9238545
-9.923855
-9.9238542
-9.9238527
-9.9238498
-9.9238465
-9.9238444
-9.9238452
-9.9238495
-9.923855
-9.9238553
-9.9238546
-9.923853
-9.9238502
-9.923847
-9.9238449
-9.9238458
-9.92385
-9.9238556
-9.9238555
-9.9238549
-9.9238534
-9.9238508
-9.9238476
-9.9238456
-9.9238465
-9.9238507
-9.9238562
-9.9238557
-9.9238552
-9.9238539
-9.9238514
-9.9238485
-9.9238466
-9.9238475
-9.9238515
-9.9238568
-9.923856
-9.9238556
-9.9238545
-9.9238523
-9.9238495
-9.9238478
-9.9238487
-9.9238524
-9.9238572
-9.9238562
-9.9238559
-9.9238551
-9.9238532
-9.9238508
-9.9238493
-9.92385
-9.9238532
-9.9238574
-9.9238562
-9.9238561
-9.9238556
-9.9238542
-9.9238523
-9.923851
-9.9238514
-9.923854
-9.9238574
-9.9238555
-9.9238557
-9.9238555
-9.9238546
-9.9238533
-9.9238523
-9.9238525
-9.9238544
-9.9238569
-9.9238542
-9.9238547
-9.9238549
-9.9238544
-9.9238535
-9.9238529
-9.923853
-9.9238542
-9.9238557
-9.9238524
-9.9238532
-9.9238538
-9.9238537
-9.9238532
-9.9238526
-9.9238524
-9.9238527
-9.923853
-9.9238499
-9.9238508
-9.9238518
-9.9238522
-9.9238523
-9.923852
-9.9238517
-9.9238514
-9.9238503
-9.9238488
-9.9238498
-9.9238511
-9.9238521
-9.923853
-9.9238538
-9.9238551
-9.9238575
-9.9238594
-9.1884081
-9.1884083
-9.1884087
-9.1884095
-9.1884106
-9.1884117
-9.1884123
-9.1884125
-9.1884105
-9.1884106
-9.1884108
-9.1884112
-9.1884118
-9.1884125
-9.1884127
-9.1884119
-9.1884099
-9.1884059
-9.188414
-9.1884141
-9.1884144
-9.1884149
-9.1884153
-9.1884153
-9.1884144
-9.1884121
-9.1884081
-9.1884176
-9.1884176
-9.1884177
-9.188418
-9.1884183
-9.1884182
-9.1884174
-9.1884151
-9.1884111
-9.1884213
-9.1884211
-9.1884211
-9.1884211
-9.1884212
-9.188421
-9.1884202
-9.1884179
-9.1884138
-9.1884252
-9.1884249
-9.1884247
-9.1884246
-9.1884245
-9.1884242
-9.1884231
-9.1884207
-9.1884166
-9.188429
-9.1884286
-9.1884282
-9.1884281
-9.1884279
-9.1884273
-9.1884259
-9.1884233
-9.1884192
-9.1884321
-9.1884316
-9.1884311
-9.1884308
-9.1884304
-9.1884296
-9.1884281
-9.1884256
-9.1884216
-9.1884345
-9.1884339
-9.1884333
-9.1884328
-9.1884322
-9.1884314
-9.1884299
-9.1884276
-9.1884236
-9.1884363
-9.1884356
-9.188435
-9.1884344
-9.1884336
-9.1884327
-9.1884313
-9.1884291
-9.1884252
-9.1884375
-9.1884369
-9.1884361
-9.1884354
-9.1884346
-9.1884336
-9.1884323
-9.1884303
-9.1884265
-9.1884383
-9.1884376
-9.1884368
-9.188436
-9.1884352
-9.1884342
-9.1884329
-9.188431
-9.1884273
-9.1884385
-9.1884378
-9.188437
-9.1884362
-9.1884353
-9.1884343
-9.1884331
-9.1884312
-9.1884278
-9.1884383
-9.1884375
-9.1884367
-9.1884359
-9.188435
-9.188434
-9.1884329
-9.1884311
-9.1884277
-9.1884374
-9.1884367
-9.1884359
-9.1884351
-9.1884343
-9.1884333
-9.1884321
-9.1884304
-9.1884273
-9.1884359
-9.1884352
-9.1884344
-9.1884337
-9.188433
-9.1884321
-9.1884309
-9.1884292
-9.1884263
-9.1884335
-9.1884329
-9.1884322
-9.1884316
-9.188431
-9.1884302
-9.1884291
-9.1884275
-9.1884247
-9.1884303
-9.1884297
-9.1884291
-9.1884286
-9.1884282
-9.1884276
-9.1884268
-9.1884253
-9.1884227
-9.188426
-9.1884255
-9.188425
-9.1884246
-9.1884243
-9.188424
-9.1884236
-9.1884225
-9.1884201
-9.1884213
-9.1884209
-9.1884205
-9.1884202
-9.1884201
-9.1884201
-9.1884201
-9.1884193
-9.1884171
-9.1884164
-9.1884162
-9.188416
-9.188416
-9.1884161
-9.1884163
-9.1884164
-9.1884157
-9.1884137
-9.1884115
-9.1884114
-9.1884114
-9.1884117
-9.1884121
-9.1884122
-9.1884121
-9.1884113
-9.1884094
-9.1884068
-9.1884069
-9.1884071
-9.1884076
-9.1884082
-9.1884085
-9.1884081
-9.1884071
-9.1884053
-9.1884036
-9.1884038
-9.1884041
-9.1884049
-9.1884058
-9.1884067
-9.1884072
-9.1884076
-9.1884077
-8.4533571
-8.4533573
-8.4533575
-8.4533577
-8.4533581
-8.4533586
-8.4533591
-8.4533595
-8.4533584
-8.4533582
-8.4533583
-8.4533585
-8.4533587
-8.4533589
-8.4533591
-8.4533588
-8.4533579
-8.4533558
-8.4533592
-8.4533594
-8.4533595
-8.4533597
-8.4533599
-8.4533598
-8.4533592
-8.4533579
-8.453356
-8.4533598
-8.4533599
-8.45336
-8.4533602
-8.4533602
-8.4533601
-8.4533595
-8.4533583
-8.4533564
-8.4533601
-8.4533602
-8.4533602
-8.4533602
-8.4533602
-8.4533601
-8.4533596
-8.4533586
-8.4533569
-8.4533603
-8.4533603
-8.4533602
-8.4533601
-8.45336
-8.4533599
-8.4533596
-8.4533588
-8.4533574
-8.4533604
-8.4533603
-8.4533602
-8.45336
-8.4533598
-8.4533596
-8.4533595
-8.453359
-8.453358
-8.4533606
-8.4533605
-8.4533603
-8.4533599
-8.4533596
-8.4533595
-8.4533595
-8.4533593
-8.4533586
-8.4533609
-8.4533607
-8.4533604
-8.45336
-8.4533597
-8.4533596