/*--------------------------------*- C++ -*----------------------------------*\
| =========                 |                                                 |
| \\      /  F ield         | OpenFOAM: The Open Source CFD Toolbox           |
|  \\    /   O peration     | Version:  2406                                  |
|   \\  /    A nd           | Website:  www.openfoam.com                      |
|    \\/     M anipulation  |                                                 |
\*---------------------------------------------------------------------------*/
FoamFile
{
    version     2.0;
    format      ascii;
    arch        "LSB;label=32;scalar=64";
    class       surfaceScalarField;
    location    "18.5";
    object      phi;
}
// * * * * * * * * * * * * * * * * * * * * * * * * * * * * * * * * * * * * * //

dimensions      [0 3 -1 0 0 0 0];

oriented        oriented;

internalField   nonuniform List<scalar> 
101088
(
-0.00017031946
3.7492812e-05
-1.6085894e-05
-3.18613e-05
-0.00037486989
0.00016956036
-7.3136699e-05
-0.00014484682
-0.00059517778
0.00042262741
-0.00018405958
-0.00036233128
-0.00079496466
0.00081837183
-0.00036221818
-0.00070590689
-0.00093229323
0.0013157704
-0.0005890354
-0.001145424
-0.00099559463
0.0018162505
-0.0008003105
-0.0015931622
-0.0010276667
0.0022153627
-0.00091430957
-0.0019458854
-0.0010936501
0.002436573
-0.00089121386
-0.0021290725
0.0024299616
-0.00075783834
-0.0021213424
-0.0012100623
-0.00020684282
4.1422896e-05
-1.8843402e-05
-0.00044917188
0.00018797416
-8.5998987e-05
-0.00069822207
0.00046780168
-0.00021709192
-0.00090210893
0.00090019876
-0.00042749994
-0.001009875
0.0014371514
-0.00069368918
-0.0010166526
0.0019767499
-0.0009395539
-0.0009802524
0.002415075
-0.0010724633
-0.0009724578
0.002666994
-0.0010509826
0.0026662883
-0.00090665831
-0.001022981
-0.00024422104
4.3655088e-05
-2.1129122e-05
-0.00052525215
0.00019887748
-9.6978714e-05
-0.00080450592
0.00049522188
-0.00024584885
-0.0010172592
0.00094907524
-0.00048454184
-0.0011037912
0.0015061116
-0.00078362159
-0.0010631336
0.0020656723
-0.001055116
-0.00096538191
0.0025287383
-0.001198341
-0.00089334613
0.0028037693
-0.001172646
0.0028160996
-0.0010169943
-0.0008881422
-0.00028103888
4.4111461e-05
-2.290618e-05
-0.00060081299
0.00020177783
-0.00010582521
-0.000910711
0.00050288879
-0.00026958693
-0.0011337228
0.00096086596
-0.00053196958
-0.0012049126
0.0015186266
-0.00085739781
-0.0011280919
0.0020793666
-0.0011467801
-0.00098405416
0.0025524754
-0.0012933676
-0.00086446218
0.0028436026
-0.0012599804
0.0028710281
-0.0010933679
-0.00081352859
-0.00031594595
4.2315867e-05
-2.4047563e-05
-0.00067266576
0.00019527518
-0.00011204122
-0.0010129215
0.00048885773
-0.00028729368
-0.0012494646
0.00093408619
-0.00056845436
-0.0013130387
0.0014738872
-0.00091417762
-0.001212984
0.0020188326
-0.0012154935
-0.0010377494
0.0024867362
-0.0013603004
-0.00088447103
0.002785523
-0.0013172974
0.002827353
-0.0011406773
-0.00079745646
-0.00034941834
3.9061516e-05
-2.4620946e-05
-0.00074381174
0.00018167337
-0.00011585288
-0.0011180213
0.00045669859
-0.00029942177
-0.0013749506
0.00087293439
-0.00059474862
-0.0014410527
0.0013760408
-0.00095511927
-0.0013304849
0.0018873889
-0.0012625743
-0.0011352018
0.0023319185
-0.0014022074
-0.00095721286
0.0026280343
-0.0013486526
0.0026811465
-0.0011633733
-0.00083927236
-0.00037939915
3.4306093e-05
-2.4688452e-05
-0.00080825559
0.00016101339
-0.00011739761
-0.0012149826
0.00040693814
-0.00030601916
-0.0014945794
0.00077912821
-0.00061066925
-0.0015708585
0.0012289904
-0.00098005727
-0.0014615233
0.0016905847
-0.0012889926
-0.0012591901
0.0020942315
-0.0014213477
-0.0010663426
0.0023747442
-0.0013573505
0.0024347065
-0.0011654049
-0.00092478929
-0.00040567612
2.8363256e-05
-2.4318993e-05
-0.00086600756
0.00013448248
-0.0001169661
-0.0013044001
0.00034212117
-0.00030777373
-0.0016094502
0.00065701599
-0.00061755774
-0.0017022535
0.0010383947
-0.00099136975
-0.0016017969
0.0014337971
-0.0012982887
-0.0014021416
0.0017812733
-0.0014224497
-0.0012016327
0.0020312864
-0.0013486474
0.0020923451
-0.001151993
-0.0010415536
-0.00042774232
2.1626988e-05
-2.3665367e-05
-0.00091578683
0.00010364368
-0.00011515162
-0.0013838424
0.00026557333
-0.00030595947
-0.0017153111
0.00051200131
-0.00061759557
-0.0018285577
0.00081140562
-0.00099236917
-0.0017419607
0.0011246836
-0.0012950503
-0.001550919
0.0014020796
-0.0014107787
-0.0013479291
0.0016066401
-0.0013283787
0.0016619099
-0.0011287832
-0.0011731317
-0.00044509978
1.4538024e-05
-2.2923572e-05
-0.00095610389
7.0308492e-05
-0.00011274819
-0.0014501841
0.00018122546
-0.00030228645
-0.0018066345
0.0003504999
-0.00061363322
-0.001941078
0.00055662288
-0.0009871685
-0.0018705204
0.00077379944
-0.001284669
-0.0016902871
0.00096812742
-0.0013925134
-0.0014875904
0.0011136092
-0.0013031168
0.0011558318
-0.0011019084
-0.0013009543
-0.00045698335
7.3530317e-06
-2.2333324e-05
-0.00098419712
3.5650607e-05
-0.00011067547
-0.0014973088
9.2059283e-05
-0.00029863107
-0.0018729857
0.00017815973
-0.00060863997
-0.0020250751
0.0002830359
-0.00097991396
-0.001969272
0.00039403229
-0.0012725407
-0.0017990726
0.00049441861
-0.0013740035
-0.0015980188
0.00057012522
-0.0012795728
0.00059308614
-0.0010777326
-0.0014030254
-0.00046296146
-3.9958146e-11
-2.1940607e-05
-0.00099839299
-2.0101358e-10
-0.00010927114
-0.0015213702
-5.207152e-10
-0.00029606291
-0.0019074781
-9.7901723e-10
-0.00060503044
-0.002069844
-1.4782547e-09
-0.00097489223
-0.0020232801
-1.919827e-09
-0.0012648801
-0.0018591861
-1.9510604e-09
-0.0013628835
-0.0016595733
-1.0060888e-09
-0.0012657798
6.3188053e-10
-0.0010636652
-0.0014603503
-0.00046296158
-7.3531396e-06
-2.1940605e-05
-0.00099839297
-3.5651064e-05
-0.00010927113
-0.0015213699
-9.2060314e-05
-0.00029606288
-0.0019074778
-0.00017816162
-0.0006050304
-0.0020698439
-0.00028303886
-0.00097489216
-0.00202328
-0.00039403619
-0.0012648801
-0.001859186
-0.00049442252
-0.0013628835
-0.0016595729
-0.00057012704
-0.0012657799
-0.00059308486
-0.0010636652
-0.00146035
-0.00045698349
-1.4538102e-05
-2.2333327e-05
-0.00098419708
-7.0308831e-05
-0.00011067549
-0.0014973086
-0.00018122631
-0.00029863111
-0.0018729854
-0.0003505017
-0.00060864006
-0.0020250751
-0.00055662597
-0.00097991405
-0.001969272
-0.00077380358
-0.0012725409
-0.0017990722
-0.00096813144
-0.0013740037
-0.0015980181
-0.0011136109
-0.001279573
-0.0011558308
-0.0010777326
-0.0014030249
-0.00044509979
-2.1627006e-05
-2.2923571e-05
-0.00095610384
-0.00010364389
-0.00011274819
-0.0014501843
-0.00026557425
-0.00030228646
-0.0018066342
-0.00051200338
-0.00061363326
-0.0019410775
-0.00081140879
-0.00098716847
-0.0018705197
-0.0011246876
-0.001284669
-0.0016902863
-0.0014020835
-0.0013925134
-0.0014875898
-0.0016066422
-0.0013031169
-0.0016619092
-0.0011019084
-0.0013009539
-0.00042774278
-2.8363274e-05
-2.3665371e-05
-0.0009157872
-0.00013448262
-0.00011515163
-0.0013838426
-0.00034212188
-0.0003059595
-0.001715311
-0.00065701764
-0.00061759567
-0.0018285569
-0.0010383972
-0.00099236921
-0.0017419597
-0.0014338007
-0.0012950503
-0.0015509183
-0.0017812773
-0.0014107787
-0.0013479289
-0.0020312892
-0.0013283788
-0.0020923442
-0.0011287833
-0.0011731316
-0.00040567632
-3.4306158e-05
-2.4319002e-05
-0.00086600749
-0.00016101357
-0.00011696613
-0.0013043999
-0.00040693865
-0.0003077738
-0.0016094501
-0.00077912947
-0.00061755791
-0.0017022534
-0.0012289925
-0.0009913699
-0.0016017965
-0.0016905885
-0.0012982888
-0.0014021418
-0.0020942361
-0.0014224498
-0.0012016331
-0.0023747472
-0.0013486475
-0.0024347052
-0.0011519932
-0.0010415538
-0.00037939925
-3.9061574e-05
-2.4688462e-05
-0.00080825605
-0.00018167361
-0.00011739765
-0.0012149828
-0.00045669919
-0.00030601925
-0.0014945798
-0.00087293572
-0.00061066944
-0.0015708597
-0.001376043
-0.00098005749
-0.0014615241
-0.0018873926
-0.0012889929
-0.001259191
-0.002331923
-0.001421348
-0.0010663433
-0.0026280369
-0.0013573508
-0.0026811453
-0.001165405
-0.0009247896
-0.0003494185
-4.231588e-05
-2.4620957e-05
-0.00074381197
-0.00019527524
-0.00011585293
-0.0011180211
-0.00048885791
-0.00029942188
-0.0013749513
-0.00093408688
-0.00059474884
-0.0014410549
-0.001473889
-0.00095511959
-0.0013304867
-0.0020188359
-0.0012625749
-0.0011352035
-0.0024867402
-0.0014022079
-0.00095721425
-0.0027855257
-0.001348653
-0.0028273528
-0.0011633734
-0.00083927281
-0.00031594586
-4.4111451e-05
-2.4047566e-05
-0.00067266546
-0.00020177784
-0.00011204123
-0.0010129214
-0.00050288887
-0.0002872937
-0.0012494656
-0.00096086645
-0.0005684544
-0.0013130411
-0.0015186281
-0.00091417768
-0.0012129859
-0.0020793693
-0.0012154937
-0.0010377512
-0.002552479
-0.0013603007
-0.00088447317
-0.0028436059
-0.0013172975
-0.0028710293
-0.0011406774
-0.00079745704
-0.0002810389
-4.3655032e-05
-2.2906177e-05
-0.00060081332
-0.00019887735
-0.0001058252
-0.00091071181
-0.00049522174
-0.00026958687
-0.0011337242
-0.00094907534
-0.00053196946
-0.0012049147
-0.0015061125
-0.00085739764
-0.0011280944
-0.0020656741
-0.00114678
-0.00098405679
-0.0025287408
-0.0012933677
-0.0008644645
-0.0028037724
-0.0012599805
-0.0028161027
-0.0010933681
-0.00081352892
-0.00024422102
-4.1422822e-05
-2.1129114e-05
-0.00052525231
-0.00018797395
-9.6978672e-05
-0.00080450614
-0.00046780141
-0.00024584875
-0.0010172597
-0.0009001987
-0.00048454163
-0.0011037924
-0.0014371518
-0.00078362132
-0.0010631361
-0.0019767509
-0.0010551158
-0.00096538463
-0.0024150759
-0.001198341
-0.00089334822
-0.0026669967
-0.0011726462
-0.0026662927
-0.0010169943
-0.00088814246
-0.00020684281
-3.7492802e-05
-1.88434e-05
-0.00044917202
-0.00016956038
-8.5998973e-05
-0.00069822232
-0.00042262756
-0.00021709189
-0.00090210932
-0.0008183722
-0.00042749989
-0.0010098758
-0.0013157711
-0.00069368913
-0.0010166541
-0.0018162518
-0.00093955389
-0.00098025409
-0.0022153637
-0.0010724633
-0.00097245817
-0.0024365757
-0.001050983
-0.0024299665
-0.00090665854
-0.0010229806
-0.00017031951
-1.6085895e-05
-3.1861329e-05
-0.00037486991
-7.3136702e-05
-0.00014484695
-0.00059517744
-0.00018405959
-0.00036233156
-0.00079496385
-0.00036221819
-0.00070590735
-0.00093229288
-0.0005890354
-0.0011454249
-0.00099559437
-0.00080031055
-0.0015931643
-0.0010276661
-0.00091430977
-0.0019458876
-0.0010936506
-0.00089121413
-0.0021290744
-0.00075783845
-0.0021213446
-0.0012100648
7.9976854e-07
-6.5527964e-07
-1.5968758e-05
-2.6162453e-07
3.3372629e-06
-3.3372061e-06
-7.178262e-05
-5.543597e-07
6.7654789e-06
-9.9597046e-06
-0.00017805937
5.3125703e-07
8.4354296e-06
-2.5108878e-05
-0.00034530742
6.5281355e-06
7.2194405e-06
-5.5114642e-05
-0.00055630597
2.360125e-05
7.0938199e-06
-0.0001026748
-0.00075367411
5.6164261e-05
1.4931267e-05
-0.0001610756
-0.00086209459
0.00010102353
3.4780843e-05
-0.00021513165
-0.00084264803
0.00014671652
-0.0002479936
-0.00071783493
0.00017942196
6.3348759e-05
1.3513274e-06
-1.9021291e-06
-1.8947893e-05
5.6664523e-06
-8.5935412e-06
-8.5057776e-05
1.1629656e-05
-2.237931e-05
-0.00021063559
1.4904528e-05
-4.8623778e-05
-0.00040726006
1.2856034e-05
-9.3278487e-05
-0.00065347708
9.2381569e-06
-0.00015672127
-0.00088188983
1.1486279e-05
-0.00022840874
-0.0010073783
2.4291834e-05
-0.00028971258
-0.00098920763
-0.00032244541
-0.00085544688
4.7531988e-05
2.0525901e-06
-3.4103719e-06
-2.1673434e-05
8.4843936e-06
-1.4819676e-05
-9.7184304e-05
1.720123e-05
-3.6726929e-05
-0.00024021814
2.1717643e-05
-7.4934569e-05
-0.00046274763
1.7727951e-05
-0.0001344789
-0.00073843153
9.0429871e-06
-0.00021312174
-0.00099003024
3.8039004e-06
-0.00029686025
-0.0011246507
8.0964988e-06
-0.00036370203
-0.0011029495
-0.00039445289
-0.00096028925
2.3398692e-05
2.8343525e-06
-5.0184159e-06
-2.4132453e-05
1.1584235e-05
-2.1339722e-05
-0.00010805499
2.317225e-05
-5.1411155e-05
-0.00026649073
2.8645031e-05
-0.00010108052
-0.00051129657
2.1939753e-05
-0.00017405875
-0.00081111273
7.2611642e-06
-0.00026557825
-0.0010796452
-5.8785129e-06
-0.00035898758
-0.0012181007
-9.8882845e-06
-0.00042937348
-0.0011902992
-0.0004561206
-0.001038941
-2.6475716e-06
3.62058e-06
-6.483821e-06
-2.6202727e-05
1.4698951e-05
-2.7217949e-05
-0.00011724146
2.908136e-05
-6.4400708e-05
-0.00028868692
3.5195645e-05
-0.00012359068
-0.00055205852
2.530807e-05
-0.00020707491
-0.00087127346
4.3157516e-06
-0.00030802613
-0.0011520536
-1.6192549e-05
-0.00040762852
-0.0012911514
-2.7416752e-05
-0.00047914898
-0.0012562975
-0.00050065175
-0.0010969156
-2.6647572e-05
4.4777839e-06
-7.6551867e-06
-2.7927319e-05
1.8087912e-05
-3.1787527e-05
-0.00012489333
3.5537182e-05
-7.4159215e-05
-0.00030711304
4.2538475e-05
-0.00013973295
-0.0005856075
2.9721046e-05
-0.00022935676
-0.00092001958
3.068834e-06
-0.000334645
-0.0012093034
-2.3918076e-05
-0.00043580896
-0.0013470402
-4.1161238e-05
-0.00050551538
-0.001305043
-0.00052123299
-0.0011385455
-4.5408143e-05
5.2470393e-06
-8.2678809e-06
-2.9322737e-05
2.1166735e-05
-3.4057415e-05
-0.00013104745
4.1420879e-05
-7.8625258e-05
-0.00032180738
4.919504e-05
-0.00014616406
-0.00061201223
3.3757499e-05
-0.00023633255
-0.00095764366
2.3787843e-06
-0.00033998297
-0.0012522761
-2.9744851e-05
-0.00043749342
-0.0013875397
-5.115986e-05
-0.00050233813
-0.0013391128
-0.00051252949
-0.0011668998
-5.8368677e-05
5.918342e-06
-8.1311887e-06
-3.0373805e-05
2.3896678e-05
-3.3297082e-05
-0.00013570505
4.6715272e-05
-7.628349e-05
-0.00033293413
5.5328364e-05
-0.00014043823
-0.00063189662
3.7863819e-05
-0.00022464701
-0.00098559093
2.9510921e-06
-0.00031994008
-0.0012834191
-3.2948432e-05
-0.00040817307
-0.0014158707
-5.6823431e-05
-0.00046508275
-0.0013620278
-0.00047063804
-0.0011854323
-6.5275608e-05
6.4620277e-06
-7.1401304e-06
-3.1118355e-05
2.6172319e-05
-2.9124234e-05
-0.0001390348
5.1234677e-05
-6.6379239e-05
-0.00034092603
6.0757712e-05
-0.0001213986
-0.00064615812
4.194492e-05
-0.00019277198
-0.0010054315
4.6634876e-06
-0.00027268705
-0.0013050219
-3.3653918e-05
-0.00034583853
-0.0014347959
-5.8598625e-05
-0.00039185804
-0.0013766586
-0.00039412613
-0.0011968719
-6.7021729e-05
6.8851913e-06
-5.3339815e-06
-3.1614883e-05
2.7992857e-05
-2.1695412e-05
-0.00014128461
5.4958545e-05
-4.9272028e-05
-0.00034635956
6.5467435e-05
-8.9701274e-05
-0.00065583959
4.598902e-05
-0.00014171669
-0.0010187454
7.2977143e-06
-0.00019952082
-0.0013191438
-3.2338861e-05
-0.00025208636
-0.001446629
-5.7466737e-05
-0.00028454882
-0.0013852979
-0.00028500648
-0.0012033312
-6.5163459e-05
7.1794895e-06
-2.8716207e-06
-3.1975053e-05
2.9273479e-05
-1.1638286e-05
-0.00014282649
5.7618583e-05
-2.6339728e-05
-0.00034990859
6.8939089e-05
-4.7780925e-05
-0.00066188079
4.9198905e-05
-7.5216224e-05
-0.0010266741
9.7747912e-06
-0.00010554677
-0.0013270905
-3.0476406e-05
-0.00013305829
-0.0014527803
-5.5376862e-05
-0.00014986328
-0.0013893578
-0.00014975953
-0.0012061476
-6.2208831e-05
7.2769423e-06
3.1880339e-11
-3.2089131e-05
2.9754618e-05
1.1120253e-10
-0.00014338721
5.8682877e-05
2.2018462e-10
-0.00035133103
7.0350995e-05
3.7688097e-10
-0.00066447966
5.0484191e-05
4.788018e-10
-0.0010302421
1.0788177e-05
3.882027e-10
-0.0013307314
-2.9583046e-05
2.6759184e-10
-0.0014555708
-5.409265e-05
3.459812e-10
-0.001391134
6.3050447e-10
-0.0012073386
-6.0179456e-05
7.2769296e-06
2.8716855e-06
-3.2089127e-05
2.9754622e-05
1.1638503e-05
-0.00014338719
5.8682933e-05
2.6340124e-05
-0.00035133098
7.0350924e-05
4.7781533e-05
-0.00066447958
5.0484019e-05
7.5216961e-05
-0.001030242
1.0788025e-05
0.00010554736
-0.0013307313
-2.9583165e-05
0.00013305868
-0.0014555708
-5.4092679e-05
0.00014986399
-0.001391134
0.00014976081
-0.0012073386
-6.0179423e-05
7.1794599e-06
5.3340275e-06
-3.1975055e-05
2.9273389e-05
2.1695575e-05
-0.0001428265
5.7618648e-05
4.9272326e-05
-0.0003499086
6.8938987e-05
8.9701672e-05
-0.00066188081
4.919857e-05
0.00014171712
-0.0010266741
9.7744487e-06
0.00019952113
-0.0013270906
-3.0476654e-05
0.00025208653
-0.0014527804
-5.5376964e-05
0.0002845495
-0.0013893579
0.00028500777
-0.0012061476
-6.2208873e-05
6.8851895e-06
7.1401591e-06
-3.1614878e-05
2.7992696e-05
2.9124353e-05
-0.00014128459
5.4958483e-05
6.6379474e-05
-0.00034635951
6.5467303e-05
0.00012139889
-0.00065583953
4.5988708e-05
0.00019277226
-0.0010187452
7.2973878e-06
0.00027268719
-0.0013191437
-3.2339027e-05
0.00034583852
-0.0014466289
-5.7466892e-05
0.00039185857
-0.0013852979
0.00039412739
-0.0012033312
-6.5163797e-05
6.4618809e-06
8.1312138e-06
-3.1118355e-05
2.6172113e-05
3.3297187e-05
-0.00013903479
5.1234424e-05
7.628363e-05
-0.00034092601
6.0757358e-05
0.00014043834
-0.00064615813
4.1944556e-05
0.00022464714
-0.0010054314
4.6632002e-06
0.00031994005
-0.0013050219
-3.3654056e-05
0.0004081729
-0.0014347959
-5.8598863e-05
0.00046508314
-0.0013766587
0.00047063961
-0.001196872
-6.7022321e-05
5.9180557e-06
8.2679109e-06
-3.0373809e-05
2.3896602e-05
3.4057556e-05
-0.00013570506
4.6715119e-05
7.8625385e-05
-0.00033293414
5.5327976e-05
0.00014616405
-0.00063189667
3.7863361e-05
0.0002363325
-0.00098559094
2.9508058e-06
0.00033998269
-0.0012834191
-3.2948654e-05
0.00043749303
-0.0014158707
-5.6823636e-05
0.00050233854
-0.0013620279
0.00051253165
-0.0011854325
-6.5275931e-05
5.2469727e-06
7.6551814e-06
-2.9322741e-05
2.1166796e-05
3.1787558e-05
-0.00013104746
4.142099e-05
7.4159194e-05
-0.00032180742
4.9194859e-05
0.00013973275
-0.00061201231
3.3756949e-05
0.00022935639
-0.00095764376
2.3784426e-06
0.0003346444
-0.0012522763
-2.9745134e-05
0.00043580835
-0.0013875398
-5.115999e-05
0.00050551588
-0.001339113
0.00052123539
-0.0011669
-5.8368476e-05
4.4776896e-06
6.4838245e-06
-2.7927328e-05
1.8087707e-05
2.7217951e-05
-0.00012489337
3.5537298e-05
6.4400689e-05
-0.00030711313
4.253831e-05
0.00012359045
-0.00058560766
2.9720471e-05
0.0002070744
-0.00092001979
3.0684468e-06
0.00030802535
-0.0012093038
-2.3918291e-05
0.00040762781
-0.0013470406
-4.1161366e-05
0.00047914936
-0.0013050433
0.00050065391
-0.0011385457
-4.5407592e-05
3.6205451e-06
5.0184183e-06
-2.6202728e-05
1.4698948e-05
2.1339739e-05
-0.00011724146
2.9081625e-05
5.1411211e-05
-0.0002886869
3.5195794e-05
0.00010108044
-0.00055205849
2.530766e-05
0.00017405824
-0.0008712734
4.3153691e-06
0.00026557748
-0.0011520537
-1.6192704e-05
0.00035898692
-0.0012911516
-2.7416884e-05
0.00042937358
-0.0012562976
0.00045612229
-0.0010969158
-2.6646568e-05
2.8343052e-06
3.410398e-06
-2.4132449e-05
1.1584076e-05
1.4819748e-05
-0.00010805497
2.3172106e-05
3.6727028e-05
-0.00026649066
2.8644903e-05
7.4934553e-05
-0.00051129645
2.193935e-05
0.00013447847
-0.00081111257
7.2607477e-06
0.00021312111
-0.0010796451
-5.8787704e-06
0.00029685967
-0.0012181008
-9.8881347e-06
0.00036370171
-0.0011902993
0.00039445351
-0.0010389412
-2.6463607e-06
2.0525722e-06
1.9021493e-06
-2.1673426e-05
8.4842837e-06
8.5936077e-06
-9.7184265e-05
1.7201191e-05
2.2379386e-05
-0.00024021804
2.1717616e-05
4.8623745e-05
-0.00046274745
1.7727865e-05
9.3278162e-05
-0.0007384313
9.0426899e-06
0.00015672072
-0.00099003007
3.8037153e-06
0.00022840822
-0.0011246506
8.0967573e-06
0.00028971186
-0.0011029495
0.00032244508
-0.00096028934
2.3399823e-05
1.3513257e-06
6.5528269e-07
-1.894789e-05
5.6664244e-06
3.3372019e-06
-8.5057763e-05
1.1629762e-05
9.9596286e-06
-0.00021063556
1.4904802e-05
2.5108714e-05
-0.00040726001
1.2856633e-05
5.5114356e-05
-0.00065347702
9.2386333e-06
0.00010267426
-0.00088188981
1.1486511e-05
0.00016107494
-0.0010073783
2.4292013e-05
0.00021513106
-0.00098920785
0.00024799309
-0.0008554471
4.7532541e-05
7.9975449e-07
-1.5968759e-05
-2.6165731e-07
3.3372987e-06
-7.1782623e-05
-5.5448694e-07
6.765788e-06
-0.00017805937
5.3099073e-07
8.4361277e-06
-0.00034530742
6.5277107e-06
7.2204425e-06
-0.00055630597
2.3600545e-05
7.0948258e-06
-0.00075367412
5.6163062e-05
1.4932772e-05
-0.00086209469
0.00010102244
3.4781473e-05
-0.00084264819
0.00014671599
-0.00071783501
0.00017942239
6.3348162e-05
-2.3933631e-07
1.739504e-06
-1.5798482e-05
-1.6704438e-06
-1.499023e-06
7.519421e-06
-7.0773886e-05
-7.2684529e-06
-4.3259379e-06
1.781825e-05
-0.00017570406
-1.7346619e-05
-8.2072976e-06
3.2276226e-05
-0.00034186336
-3.1838887e-05
-1.150587e-05
4.695796e-05
-0.00055243811
-4.7527181e-05
-1.24209e-05
5.5071115e-05
-0.00074952849
-5.8301568e-05
-1.0432661e-05
5.1685444e-05
-0.00085684426
-5.8923821e-05
-6.9141976e-06
3.8581135e-05
-0.00083541281
-4.9334716e-05
2.2763096e-05
-0.0007091476
-3.3618745e-05
-4.746037e-06
-2.4401183e-07
1.7514497e-06
-1.8715819e-05
-1.5630157e-06
7.5034117e-06
-8.3722707e-05
-4.3072737e-06
1.7545564e-05
-0.00020761858
-7.3107755e-06
3.1123439e-05
-0.00040310373
-8.3637789e-06
4.3856435e-05
-0.00064932252
-5.8283709e-06
4.882011e-05
-0.00087817424
-1.2910378e-07
4.1722166e-05
-0.0010031143
6.3327855e-06
2.5818494e-05
-0.00098290714
9.5247735e-06
-0.00084681414
1.0938129e-05
-2.1165018e-07
1.6848344e-06
-2.1395135e-05
-1.4684687e-06
7.1547034e-06
-9.5578695e-05
-4.0135603e-06
1.6530594e-05
-0.00023665803
-6.2758232e-06
2.8723378e-05
-0.00045808528
-5.6066489e-06
3.9061276e-05
-0.00073430547
-4.4180408e-07
4.0807855e-05
-0.00098718265
7.9972395e-06
3.0549809e-05
-0.0011219174
1.6290646e-05
1.2783687e-05
-0.0010982081
-3.2183341e-06
-0.00095249043
2.1234728e-05
-1.6708206e-07
1.5443028e-06
-2.3824804e-05
-1.3230456e-06
6.5066191e-06
-0.00010625088
-3.592007e-06
1.4866105e-05
-0.00026255723
-5.038156e-06
2.530023e-05
-0.00050642724
-2.7537085e-06
3.3102052e-05
-0.00080743788
4.6050715e-06
3.1968889e-05
-0.001078165
1.502071e-05
1.9424456e-05
-0.001217391
2.41078e-05
9.2431057e-07
-0.001187527
-1.3984015e-05
-0.0010323921
2.8324443e-05
-1.0720031e-07
1.3392623e-06
-2.5890467e-05
-1.1191103e-06
5.6165895e-06
-0.00011533951
-3.0666572e-06
1.272557e-05
-0.0002845989
-3.7250815e-06
2.1235927e-05
-0.00054733567
-6.0058668e-09
2.6625059e-05
-0.00086851529
9.1570952e-06
2.3206276e-05
-0.0011524541
2.0988888e-05
9.3871148e-06
-0.0012929459
3.030832e-05
-8.8259101e-06
-0.0012558666
-2.2113452e-05
-0.0010919507
3.3472708e-05
-5.8675581e-08
1.1076506e-06
-2.7637002e-05
-9.564006e-07
4.6230342e-06
-0.00012300201
-2.6349583e-06
1.0390261e-05
-0.00030309934
-2.6018155e-06
1.6976131e-05
-0.00058138074
2.3855448e-06
2.0227227e-05
-0.00091860892
1.3104732e-05
1.5219701e-05
-0.001212036
2.6033022e-05
1.1419732e-06
-0.0013517234
3.5326661e-05
-1.5899203e-05
-0.0013072634
-2.7255655e-05
-0.0011354259
3.7348963e-05
-5.8101502e-09
8.6516026e-07
-2.9074405e-05
-7.7480079e-07
3.5994636e-06
-0.00012925489
-2.1727893e-06
8.0364014e-06
-0.00031805556
-1.496549e-06
1.2843972e-05
-0.00060855624
4.5858614e-06
1.4393088e-05
-0.0009578918
1.6578478e-05
8.5891147e-06
-0.0012576382
3.0291802e-05
-4.7717216e-06
-0.0013953393
3.9407837e-05
-1.9949637e-05
-0.0013441785
-2.9264366e-05
-0.0011658167
4.0333253e-05
4.2607909e-08
6.334519e-07
-3.0184629e-05
-6.0897237e-07
2.6314618e-06
-0.00013408555
-1.757822e-06
5.8442661e-06
-0.00032959316
-5.3649007e-07
9.1325067e-06
-0.00062940644
6.4577478e-06
9.4890095e-06
-0.0009876811
1.9480547e-05
3.6778922e-06
-0.0012915308
3.3820402e-05
-8.1302745e-06
-0.001426852
4.2734014e-05
-2.0896451e-05
-0.0013699948
-2.817068e-05
-0.0011864952
4.2703135e-05
8.3182445e-08
4.2929804e-07
-3.0997336e-05
-4.7178695e-07
1.7832785e-06
-0.00013763167
-1.4221163e-06
3.945815e-06
-0.0003380773
2.4608607e-07
6.0176041e-06
-0.0006447114
7.9779398e-06
5.7005099e-06
-0.0010093748
2.1829363e-05
6.0090159e-07
-0.0013157964
3.6657765e-05
-8.9368337e-06
-0.0014488179
4.539682e-05
-1.8866475e-05
-0.0013874278
-2.4194305e-05
-0.0012000853
4.4633796e-05
1.1407053e-07
2.6043807e-07
-3.1560075e-05
-3.688946e-07
1.0818569e-06
-0.00014010021
-1.1684653e-06
2.384791e-06
-0.00034399904
8.3333831e-07
3.5498854e-06
-0.00065537373
9.1219157e-06
3.0250119e-06
-0.0010243585
2.3601731e-05
-7.6301587e-07
-0.0013322598
3.8822638e-05
-7.4677928e-06
-0.001463319
4.7489197e-05
-1.4258274e-05
-0.0013985727
-1.7736278e-05
-0.0012084937
4.6193573e-05
1.3327816e-07
1.2087585e-07
-3.1968725e-05
-3.0379118e-07
5.0203053e-07
-0.00014180959
-1.0006756e-06
1.1028561e-06
-0.00034792981
1.2373833e-06
1.6076323e-06
-0.00066217662
9.914947e-06
1.2377855e-06
-0.0010335645
2.4825678e-05
-7.8415492e-07
-0.0013419802
4.0320504e-05
-4.2451536e-06
-0.0014714979
4.8961109e-05
-7.6907031e-06
-0.0014045661
-9.3994602e-06
-0.0012128301
4.7306701e-05
1.4457204e-07
7.9802646e-12
-3.2112803e-05
-2.6701211e-07
2.6398266e-11
-0.00014247365
-9.1299657e-07
3.8980518e-11
-0.00034958221
1.435539e-06
6.9778276e-11
-0.00066522063
1.0295136e-05
8.2712704e-11
-0.0010378641
2.5413868e-05
2.3752112e-11
-0.0013466345
4.1056776e-05
2.9987496e-11
-0.0014754591
4.9705563e-05
2.9114726e-10
-0.001407474
7.6398803e-10
-0.0012149234
4.7889999e-05
1.4455937e-07
-1.2086214e-07
-3.2112799e-05
-2.6700918e-07
-5.019856e-07
-0.00014247363
-9.1297314e-07
-1.102796e-06
-0.00034958216
1.4355221e-06
-1.6075338e-06
-0.00066522055
1.0295086e-05
-1.2376862e-06
-0.0010378639
2.5413819e-05
7.8412382e-07
-0.0013466344
4.1056729e-05
4.2451395e-06
-0.001475459
4.9705556e-05
7.6912918e-06
-0.001407474
9.4010198e-06
-0.0012149234
4.7890009e-05
1.3325282e-07
-2.6043279e-07
-3.1968726e-05
-3.0382258e-07
-1.0818379e-06
-0.0001418096
-1.0006684e-06
-2.3847719e-06
-0.00034792981
1.2373185e-06
-3.5498597e-06
-0.00066217662
9.91481e-06
-3.0250276e-06
-0.0010335645
2.4825538e-05
7.628382e-07
-0.0013419802
4.0320394e-05
7.4676294e-06
-0.0014714979
4.8961084e-05
1.4258844e-05
-0.0014045662
1.7737882e-05
-0.0012128302
4.7306723e-05
1.1404715e-07
-4.292951e-07
-3.1560069e-05
-3.6897521e-07
-1.7832715e-06
-0.00014010018
-1.1685247e-06
-3.9458173e-06
-0.00034399897
8.3321357e-07
-6.0176296e-06
-0.00065537361
9.1217303e-06
-5.7006268e-06
-0.0010243583
2.3601551e-05
-6.0122653e-07
-0.0013322595
3.8822546e-05
8.9365254e-06
-0.0014633188
4.7489192e-05
1.8866945e-05
-0.0013985727
2.4195861e-05
-0.0012084937
4.6193647e-05
8.3110967e-08
-6.3344727e-07
-3.0997334e-05
-4.7188629e-07
-2.6314492e-06
-0.00013763166
-1.422215e-06
-5.8442797e-06
-0.00033807726
2.458889e-07
-9.132601e-06
-0.00064471134
7.9777016e-06
-9.489243e-06
-0.0010093747
2.1829154e-05
-3.6783718e-06
-0.0013157963
3.6657677e-05
8.1298391e-06
-0.0014488177
4.5396856e-05
2.0896798e-05
-0.0013874278
2.8172131e-05
-0.0012000854
4.4633996e-05
4.2513607e-08
-8.6515748e-07
-3.0184631e-05
-6.090085e-07
-3.5994412e-06
-0.00013408556
-1.7579028e-06
-8.0364321e-06
-0.00032959316
-5.367195e-07
-1.284415e-05
-0.00062940645
6.4574471e-06
-1.4393444e-05
-0.00098768108
1.9480302e-05
-8.5897397e-06
-0.0012915307
3.3820256e-05
4.7711608e-06
-0.001426852
4.2734074e-05
1.9949919e-05
-0.0013699948
2.9265731e-05
-0.0011864953
4.2703472e-05
-5.8497863e-09
-1.1076563e-06
-2.9074409e-05
-7.7484124e-07
-4.6230347e-06
-0.00012925491
-2.1728625e-06
-1.0390351e-05
-0.0003180556
-1.4967767e-06
-1.6976418e-05
-0.0006085563
4.5854874e-06
-2.0227744e-05
-0.00095789186
1.657817e-05
-1.5220472e-05
-0.0012576383
3.0291579e-05
-1.1426781e-06
-0.0013953394
3.9407863e-05
1.589941e-05
-0.0013441786
2.7256929e-05
-0.0011658168
4.0333558e-05
-5.8729842e-08
-1.3392653e-06
-2.7637012e-05
-9.5654312e-07
-5.6165956e-06
-0.00012300205
-2.6350464e-06
-1.2725654e-05
-0.00030309943
-2.6020774e-06
-2.1236225e-05
-0.0005813809
2.3851236e-06
-2.662564e-05
-0.00091860911
1.3104314e-05
-2.3207176e-05
-0.0012120362
2.6032701e-05
-9.3880386e-06
-0.0013517236
3.5326561e-05
8.8258213e-06
-0.0013072635
2.2114672e-05
-0.0011354259
3.734906e-05
-1.072369e-07
-1.5443051e-06
-2.5890469e-05
-1.1191861e-06
-6.506622e-06
-0.00011533952
-3.0667163e-06
-1.4866147e-05
-0.00028459891
-3.7253037e-06
-2.5300446e-05
-0.00054733568
-6.5083367e-09
-3.3102614e-05
-0.00086851527
9.1565197e-06
-3.1969841e-05
-0.0011524541
2.098841e-05
-1.9425585e-05
-0.0012929459
3.0308048e-05
-9.2486231e-07
-0.0012558666
1.3985109e-05
-0.0010919508
3.3472738e-05
-1.671287e-07
-1.6848253e-06
-2.3824801e-05
-1.3231825e-06
-7.1546796e-06
-0.00010625086
-3.5922173e-06
-1.6530589e-05
-0.00026255718
-5.0385053e-06
-2.8723515e-05
-0.00050642715
-2.7543318e-06
-3.9061769e-05
-0.00080743774
4.6043115e-06
-4.0808719e-05
-0.0010781649
1.5019912e-05
-3.0550984e-05
-0.0012173909
2.4107256e-05
-1.2784616e-05
-0.0011875269
3.2187769e-06
-0.0010323921
2.8324384e-05
-2.1168353e-07
-1.751436e-06
-2.1395129e-05
-1.4685995e-06
-7.5033751e-06
-9.5578669e-05
-4.0137812e-06
-1.7545533e-05
-0.00023665797
-6.2762087e-06
-3.1123529e-05
-0.00045808515
-5.6072498e-06
-4.3856802e-05
-0.00073430528
-4.4273582e-07
-4.8820751e-05
-0.00098718245
7.9960231e-06
-4.1723134e-05
-0.0011219173
1.6289627e-05
-2.5819692e-05
-0.0010982081
-9.5250838e-06
-0.00095249043
2.1234387e-05
-2.4402067e-07
-1.7394973e-06
-1.8715818e-05
-1.5630827e-06
-7.5194091e-06
-8.3722705e-05
-4.3073867e-06
-1.7818258e-05
-0.00020761857
-7.3109709e-06
-3.2276284e-05
-0.00040310371
-8.3640904e-06
-4.6958121e-05
-0.00064932249
-5.8290561e-06
-5.5071518e-05
-0.00087817421
-1.3010758e-07
-5.1686224e-05
-0.0010031143
6.331713e-06
-3.858216e-05
-0.00098290722
-2.2763898e-05
-0.00084681423
1.0937578e-05
-2.3934366e-07
-1.5798486e-05
-1.6704461e-06
-1.4990423e-06
-7.0773899e-05
-7.268474e-06
-4.3259205e-06
-0.00017570409
-1.7346674e-05
-8.2072032e-06
-0.00034186341
-3.1838988e-05
-1.1505723e-05
-0.00055243818
-4.7527425e-05
-1.242074e-05
-0.00074952856
-5.830222e-05
-1.043234e-05
-0.00085684436
-5.8924793e-05
-6.9144282e-06
-0.00083541292
-4.9335507e-05
-0.00070914765
-3.3618581e-05
-4.7473414e-06
-1.222033e-07
-1.1206144e-07
-1.5675874e-05
1.1165601e-07
-4.5433729e-07
-5.9104665e-07
-7.0430329e-05
5.7963066e-07
-1.147641e-06
-1.8384719e-06
-0.0001748976
1.7253246e-06
-2.6030083e-06
-4.8561548e-06
-0.00033986164
4.3097974e-06
-4.7377887e-06
-1.1311303e-05
-0.00054855587
9.5638508e-06
-6.0701089e-06
-2.2865935e-05
-0.0007440495
1.8719282e-05
-3.8512892e-06
-3.9458095e-05
-0.00085133797
3.1733016e-05
4.0382534e-06
-5.7697558e-05
-0.00083174136
4.6136574e-05
-7.1638965e-05
-0.0007078218
5.7877626e-05
1.6473693e-05
-1.5353128e-07
-1.2320223e-07
-1.8551144e-05
-5.4032382e-07
-6.5970262e-07
-8.3267244e-05
-1.3246584e-06
-2.0942122e-06
-0.0002065785
-3.0230646e-06
-5.6716626e-06
-0.00040058982
-5.6367646e-06
-1.3491912e-05
-0.00064452824
-7.6428703e-06
-2.760381e-05
-0.00087143032
-6.1820049e-06