/*--------------------------------*- C++ -*----------------------------------*\
| =========                 |                                                 |
| \\      /  F ield         | OpenFOAM: The Open Source CFD Toolbox           |
|  \\    /   O peration     | Version:  2406                                  |
|   \\  /    A nd           | Website:  www.openfoam.com                      |
|    \\/     M anipulation  |                                                 |
\*---------------------------------------------------------------------------*/
FoamFile
{
    version     2.0;
    format      ascii;
    arch        "LSB;label=32;scalar=64";
    class       volVectorField;
    location    "18.5";
    object      U;
}
// * * * * * * * * * * * * * * * * * * * * * * * * * * * * * * * * * * * * * //

dimensions      [0 1 -1 0 0 0 0];

internalField   nonuniform List<vector> 
34560
(
(-0.081383096 0.014368751 0.030300186)
(-0.27879985 0.046729202 0.098115538)
(-0.54431979 0.089076343 0.17623445)
(-0.86815416 0.13839639 0.25334324)
(-1.2117252 0.19032308 0.31281189)
(-1.5179572 0.24298696 0.34265554)
(-1.7403444 0.29741032 0.34343418)
(-1.8665798 0.35214723 0.32562501)
(-1.9117094 0.40087789 0.30220463)
(-0.083629693 0.016935831 0.033651335)
(-0.29029566 0.05450229 0.10851682)
(-0.57124651 0.10226719 0.19277547)
(-0.91203105 0.15552567 0.27247944)
(-1.2641483 0.20909771 0.32930869)
(-1.5627627 0.2619507 0.35290438)
(-1.7626251 0.3161118 0.34704645)
(-1.8615393 0.37092288 0.32453643)
(-1.8832404 0.41860719 0.29715467)
(-0.083059191 0.017644202 0.034876752)
(-0.29412029 0.057354942 0.11301201)
(-0.58637544 0.10799307 0.20033627)
(-0.94053963 0.16347234 0.28134055)
(-1.2971637 0.217708 0.33637827)
(-1.5839988 0.2702258 0.35589034)
(-1.7602027 0.32423556 0.34594315)
(-1.8310648 0.37866131 0.32000029)
(-1.8310162 0.42492504 0.2908656)
(-0.079951665 0.018134726 0.035925978)
(-0.29068127 0.059130854 0.11655933)
(-0.58977965 0.11104316 0.205689)
(-0.9534829 0.1666688 0.28661416)
(-1.3115256 0.21966122 0.33926896)
(-1.5845494 0.27054074 0.35566848)
(-1.7360103 0.32324025 0.34261913)
(-1.7799915 0.37549876 0.31543334)
(-1.7598026 0.41990872 0.28649821)
(-0.074083831 0.017633904 0.036356063)
(-0.27922131 0.05809295 0.11826149)
(-0.58017356 0.10952454 0.20815098)
(-0.94962017 0.16389093 0.28865666)
(-1.3070246 0.21469359 0.33945983)
(-1.566442 0.26263385 0.35345868)
(-1.692614 0.31240661 0.33911526)
(-1.7110032 0.36195012 0.31213686)
(-1.6719796 0.40406577 0.28457201)
(-0.06606835 0.016468374 0.036272185)
(-0.26128803 0.054933709 0.11837267)
(-0.5598971 0.10409334 0.20817407)
(-0.93167044 0.15549354 0.28805832)
(-1.2860548 0.20252437 0.33759325)
(-1.5298705 0.24666804 0.35070016)
(-1.6318525 0.29252567 0.33659453)
(-1.6260644 0.33865246 0.31088415)
(-1.5696917 0.37785967 0.28534662)
(-0.056471364 0.014777069 0.036074013)
(-0.23805073 0.049867161 0.11793693)
(-0.52995955 0.094968875 0.20717356)
(-0.90006308 0.14168862 0.2863588)
(-1.2487903 0.18389534 0.33528667)
(-1.4766522 0.22350115 0.34846513)
(-1.5561661 0.26384442 0.3360773)
(-1.527765 0.30591844 0.31218786)
(-1.4558049 0.34156268 0.28886839)
(-0.04584321 0.012512526 0.035759686)
(-0.21100495 0.042833388 0.1171055)
(-0.49264518 0.082193536 0.20565944)
(-0.85765759 0.12277663 0.28445108)
(-1.1987003 0.15911397 0.33351376)
(-1.4104744 0.19333899 0.34766933)
(-1.4697719 0.22746627 0.33777425)
(-1.4204876 0.26431463 0.31619084)
(-1.3348579 0.29561603 0.29494258)
(-0.035146192 0.0098584361 0.035444267)
(-0.18279768 0.034284786 0.11622022)
(-0.45204539 0.066408337 0.20418836)
(-0.80956597 0.099505926 0.28295693)
(-1.1416445 0.129005 0.3327646)
(-1.3379277 0.15689495 0.34862392)
(-1.379017 0.18442227 0.34143855)
(-1.3113123 0.21475295 0.32246528)
(-1.214184 0.24083236 0.30292621)
(-0.025572302 0.0070383408 0.035184698)
(-0.15691088 0.02486362 0.11547045)
(-0.41368093 0.048610906 0.20304703)
(-0.76277942 0.073096952 0.28210474)
(-1.0856467 0.094858381 0.33302283)
(-1.2679655 0.11549223 0.35093922)
(-1.2932786 0.13589542 0.34637105)
(-1.2103314 0.15858995 0.3299087)
(-1.1039292 0.17835758 0.31161762)
(-0.018426131 0.0042448049 0.035044365)
(-0.13717831 0.015128418 0.1150335)
(-0.383659 0.029707878 0.2024167)
(-0.72511368 0.04472539 0.28185956)
(-1.0398827 0.058024548 0.33384315)
(-1.2111062 0.070640777 0.35372056)
(-1.2241433 0.083304685 0.3512626)
(-1.1298559 0.097384695 0.33679727)
(-1.0168051 0.10979334 0.31929783)
(-0.014382294 0.0014286422 0.034985494)
(-0.12588388 0.0050969306 0.1148635)
(-0.36623588 0.010020139 0.20217624)
(-0.70300026 0.015066401 0.28187152)
(-1.0129947 0.019522193 0.3345135)
(-1.1780341 0.023760169 0.35567559)
(-1.1841185 0.028110672 0.35443121)
(-1.0835895 0.032948141 0.34109396)
(-0.96699495 0.037235419 0.32396267)
(-0.014382306 -0.0014286918 0.03498549)
(-0.12588393 -0.0050970835 0.11486353)
(-0.36623596 -0.010020413 0.20217625)
(-0.70300039 -0.015066799 0.28187152)
(-1.0129948 -0.019522698 0.33451351)
(-1.1780343 -0.023760738 0.35567562)
(-1.1841187 -0.028111183 0.35443122)
(-1.0835896 -0.032948348 0.34109393)
(-0.96699493 -0.037235168 0.32396258)
(-0.018426166 -0.0042448564 0.035044352)
(-0.13717843 -0.015128577 0.11503351)
(-0.38365924 -0.029708179 0.2024167)
(-0.72511404 -0.044725852 0.28185959)
(-1.039883 -0.058025165 0.3338432)
(-1.2111067 -0.070641461 0.35372063)
(-1.2241437 -0.083305266 0.3512626)
(-1.1298561 -0.097384927 0.33679717)
(-1.0168051 -0.10979314 0.31929764)
(-0.025572349 -0.007038381 0.035184713)
(-0.15691104 -0.024863802 0.11547049)
(-0.41368124 -0.048611264 0.20304715)
(-0.76277989 -0.073097472 0.28210492)
(-1.0856471 -0.094859066 0.33302296)
(-1.2679659 -0.11549298 0.35093927)
(-1.2932789 -0.13589605 0.346371)
(-1.2103317 -0.15859025 0.32990859)
(-1.1039293 -0.17835748 0.31161747)
(-0.03514624 -0.0098584699 0.035444316)
(-0.18279783 -0.034284941 0.11622041)
(-0.45204566 -0.066408662 0.20418855)
(-0.80956641 -0.099506377 0.28295715)
(-1.1416449 -0.12900558 0.33276475)
(-1.3379281 -0.15689563 0.34862395)
(-1.3790173 -0.18442288 0.3414385)
(-1.3113126 -0.21475333 0.3224653)
(-1.2141842 -0.24083232 0.30292619)
(-0.045843259 -0.012512558 0.03575968)
(-0.2110051 -0.042833458 0.11710565)
(-0.49264546 -0.082193743 0.20565955)
(-0.85765807 -0.12277695 0.28445129)
(-1.1987007 -0.1591144 0.33351396)
(-1.4104748 -0.1933396 0.34766946)
(-1.4697722 -0.22746692 0.33777437)
(-1.420488 -0.26431507 0.31619102)
(-1.3348582 -0.29561594 0.29494264)
(-0.056471411 -0.014777109 0.036074024)
(-0.23805087 -0.049867233 0.11793706)
(-0.5299598 -0.094969031 0.2071737)
(-0.90006347 -0.14168887 0.28635901)
(-1.2487906 -0.18389566 0.33528696)
(-1.4766527 -0.22350168 0.34846549)
(-1.5561667 -0.26384508 0.33607766)
(-1.5277654 -0.30591884 0.31218812)
(-1.4558051 -0.34156251 0.28886845)
(-0.066068373 -0.016468386 0.036272182)
(-0.26128809 -0.054933736 0.11837267)
(-0.55989719 -0.10409342 0.20817403)
(-0.93167061 -0.15549373 0.28805835)
(-1.286055 -0.20252464 0.33759354)
(-1.5298711 -0.2466685 0.35070068)
(-1.6318532 -0.29252624 0.33659503)
(-1.6260648 -0.33865275 0.31088442)
(-1.5696919 -0.37785955 0.28534674)
(-0.074083856 -0.017633901 0.036356043)
(-0.27922138 -0.058092954 0.11826143)
(-0.58017367 -0.10952459 0.20815094)
(-0.94962037 -0.16389106 0.28865678)
(-1.3070249 -0.21469381 0.33946026)
(-1.5664425 -0.26263419 0.35345929)
(-1.6926145 -0.31240702 0.33911577)
(-1.7110035 -0.36195037 0.31213724)
(-1.67198 -0.40406587 0.28457232)
(-0.079951677 -0.018134706 0.035925971)
(-0.2906813 -0.05913086 0.11655926)
(-0.58977967 -0.11104315 0.20568902)
(-0.95348285 -0.1666688 0.2866143)
(-1.3115255 -0.21966129 0.33926933)
(-1.5845497 -0.27054088 0.35566903)
(-1.7360106 -0.32324048 0.34261971)
(-1.779992 -0.37549896 0.31543388)
(-1.7598031 -0.4199088 0.28649839)
(-0.083059183 -0.017644152 0.034876717)
(-0.29412025 -0.057354855 0.11301191)
(-0.58637535 -0.10799295 0.20033622)
(-0.94053949 -0.16347225 0.2813406)
(-1.2971636 -0.21770794 0.33637852)
(-1.5839988 -0.27022575 0.35589078)
(-1.760203 -0.32423552 0.34594365)
(-1.8310656 -0.37866131 0.32000078)
(-1.8310164 -0.42492492 0.29086575)
(-0.083629691 -0.016935813 0.03365131)
(-0.29029564 -0.054502259 0.1085168)
(-0.57124648 -0.10226718 0.1927755)
(-0.91203105 -0.15552571 0.27247955)
(-1.2641482 -0.20909772 0.32930888)
(-1.5627626 -0.2619506 0.35290465)
(-1.7626253 -0.31611166 0.34704688)
(-1.8615401 -0.37092271 0.32453695)
(-1.8832409 -0.41860686 0.29715473)
(-0.081383093 -0.014368756 0.03030019)
(-0.27879983 -0.046729247 0.098115566)
(-0.54431974 -0.089076435 0.17623454)
(-0.86815409 -0.13839656 0.25334331)
(-1.2117251 -0.19032326 0.31281197)
(-1.5179571 -0.24298712 0.34265591)
(-1.7403447 -0.29741047 0.34343471)
(-1.8665804 -0.35214743 0.32562534)
(-1.9117097 -0.4008779 0.30220505)
(-0.1024757 -3.7899714e-05 -0.00010774537)
(-0.33423173 -0.00031789518 -0.0006463383)
(-0.62381326 -0.0010930317 -0.0019161869)
(-0.95457505 -0.0032066771 -0.0040936662)
(-1.289779 -0.0077704965 -0.0069932189)
(-1.5812259 -0.015267405 -0.010033615)
(-1.7896277 -0.025064701 -0.012670711)
(-1.9061696 -0.035922055 -0.014689165)
(-1.9459724 -0.046292645 -0.016171383)
(-0.11192371 -0.00074761986 -0.0007239053)
(-0.36310729 -0.0024343671 -0.0025219103)
(-0.67315692 -0.0047337994 -0.0052224226)
(-1.02001 -0.0085051951 -0.0087210517)
(-1.3600284 -0.014826427 -0.012377428)
(-1.6408194 -0.023977506 -0.015297971)
(-1.8255878 -0.035092335 -0.017025953)
(-1.9145816 -0.046810111 -0.017808357)
(-1.9345453 -0.05758508 -0.018488602)
(-0.11994894 -0.0015963563 -0.0012918663)
(-0.38761913 -0.0049193922 -0.0042622721)
(-0.71477084 -0.0088954213 -0.0082720373)
(-1.0741454 -0.014315192 -0.012855206)
(-1.415835 -0.022176258 -0.016884911)
(-1.6842342 -0.03260631 -0.019273538)
(-1.8461015 -0.044615065 -0.019793546)
(-1.9111838 -0.05673426 -0.019126741)
(-1.9164639 -0.067436902 -0.018561213)
(-0.12701665 -0.0025577855 -0.001783945)
(-0.4089926 -0.0076810886 -0.0057709464)
(-0.75059313 -0.013408556 -0.010914484)
(-1.1198232 -0.020402009 -0.016350108)
(-1.4614127 -0.029552719 -0.020452307)
(-1.7175367 -0.040895718 -0.022026074)
(-1.8588922 -0.053412457 -0.021193416)
(-1.90398 -0.065574203 -0.019059664)
(-1.8975144 -0.075866316 -0.017305496)
(-0.13269743 -0.0034990185 -0.0021256249)
(-0.42625434 -0.010357559 -0.0068380328)
(-0.77954623 -0.017709432 -0.012821285)
(-1.156487 -0.026052918 -0.018818454)
(-1.4972623 -0.036170807 -0.022725335)
(-1.7424026 -0.048054505 -0.023296306)
(-1.8663691 -0.060693906 -0.021101586)
(-1.8951823 -0.072566448 -0.017641861)
(-1.8792711 -0.082079774 -0.014903201)
(-0.13724335 -0.0043230036 -0.0022594592)
(-0.44005879 -0.01267052 -0.00729798)
(-0.80260945 -0.021344196 -0.013748821)
(-1.1853602 -0.030656411 -0.019993145)
(-1.5247852 -0.041286139 -0.023473707)
(-1.7603259 -0.053226122 -0.022959926)
(-1.8699172 -0.065521855 -0.019480269)
(-1.8857527 -0.076721206 -0.014910495)
(-1.8623621 -0.08516868 -0.01145188)
(-0.14092761 -0.0049006781 -0.0022010248)
(-0.45111842 -0.014251601 -0.0071868397)
(-0.82084099 -0.023737178 -0.013731623)
(-1.2077251 -0.033491837 -0.019915617)
(-1.545356 -0.044092696 -0.022788949)
(-1.7725885 -0.055553155 -0.021171062)
(-1.8705072 -0.067030317 -0.016523629)
(-1.8762157 -0.077182709 -0.011077961)
(-1.847055 -0.084373195 -0.0071660699)
(-0.14361044 -0.0050775184 -0.0019547768)
(-0.45920774 -0.014685628 -0.0065262371)
(-0.83418029 -0.024262957 -0.012822417)
(-1.2239294 -0.033798199 -0.018697424)
(-1.5597861 -0.043767224 -0.020868001)
(-1.7802426 -0.054207557 -0.018212347)
(-1.8690316 -0.064426305 -0.012569777)
(-1.8670557 -0.073211246 -0.0064900535)
(-1.8335568 -0.07905256 -0.0023634398)
(-0.14541376 -0.0047538086 -0.0015761925)
(-0.46470056 -0.013699269 -0.0054756353)
(-0.84329276 -0.022507409 -0.011275116)
(-1.2349391 -0.031073695 -0.016679225)
(-1.5692589 -0.039772604 -0.018133431)
(-1.7844781 -0.048668034 -0.014566865)
(-1.8664038 -0.057192378 -0.0081323487)
(-1.8587692 -0.064340911 -0.0016379626)
(-1.8221004 -0.068815495 0.0025223743)
(-0.1465448 -0.003901803 -0.0011490103)
(-0.46821276 -0.011218247 -0.0042758884)
(-0.8491818 -0.018363719 -0.009473146)
(-1.242018 -0.025197534 -0.014361533)
(-1.5750964 -0.031987023 -0.015175226)
(-1.7864646 -0.038806983 -0.010874715)
(-1.8634684 -0.045251419 -0.0038510016)
(-1.8518482 -0.050534552 0.0028730159)
(-1.8129629 -0.053678828 0.0069579214)
(-0.14750212 -0.00258052 -0.0007833737)
(-0.47093327 -0.0074012959 -0.003242566)
(-0.85340551 -0.012078842 -0.0079063062)
(-1.2467351 -0.016496045 -0.01235568)
(-1.5786398 -0.020816704 -0.012679575)
(-1.7872315 -0.025098676 -0.0078640465)
(-1.8609339 -0.029123547 -0.00044580076)
(-1.8467427 -0.032371706 0.0063847146)
(-1.8064578 -0.034237903 0.010364218)
(-0.14769392 -0.00090574947 -0.00058163889)
(-0.47163601 -0.0025921552 -0.0026698548)
(-0.85470598 -0.004218804 -0.007025754)
(-1.2483617 -0.005749726 -0.011220541)
(-1.5798894 -0.0072427931 -0.011273604)
(-1.787291 -0.008711526 -0.0061905748)
(-1.8594622 -0.010086205 0.0014332491)
(-1.8440302 -0.011181532 0.0083078078)
(-1.8030453 -0.011796591 0.01222193)
(-0.14769392 0.00090579294 -0.00058164456)
(-0.47163601 0.0025922623 -0.0026698563)
(-0.85470596 0.0042189519 -0.0070257653)
(-1.2483617 0.0057499048 -0.011220547)
(-1.5798893 0.0072429663 -0.011273587)
(-1.7872911 0.0087116427 -0.0061905523)
(-1.8594623 0.010086282 0.0014332703)
(-1.8440303 0.011181639 0.0083078259)
(-1.8030453 0.011796779 0.012221937)
(-0.14750212 0.0025805514 -0.00078338733)
(-0.47093327 0.0074013777 -0.0032425637)
(-0.85340549 0.012078948 -0.0079063125)
(-1.2467351 0.016496161 -0.012355683)
(-1.5786398 0.020816808 -0.012679535)
(-1.7872317 0.02509874 -0.0078639958)
(-1.8609341 0.029123591 -0.00044575576)
(-1.8467429 0.032371813 0.0063847516)
(-1.8064578 0.034238107 0.01036424)
(-0.1465448 0.0039018217 -0.001149023)
(-0.46821276 0.011218301 -0.0042758875)
(-0.84918181 0.018363793 -0.0094731325)
(-1.2420181 0.025197609 -0.01436152)
(-1.5750964 0.031987073 -0.015175176)
(-1.7864648 0.038807 -0.010874657)
(-1.8634686 0.045251428 -0.0038509573)
(-1.8518484 0.050534643 0.0028730492)
(-1.8129629 0.053679038 0.0069579615)
(-0.14541377 0.0047538267 -0.0015761872)
(-0.46470057 0.013699316 -0.0054756088)
(-0.84329277 0.022507472 -0.01127508)
(-1.2349393 0.03107377 -0.016679179)
(-1.5692589 0.039772649 -0.018133356)
(-1.7844781 0.048668033 -0.014566797)
(-1.8664038 0.057192369 -0.0081323045)
(-1.8587693 0.064340979 -0.0016379284)
(-1.8221006 0.068815714 0.002522421)
(-0.14361046 0.0050775355 -0.0019547728)
(-0.45920776 0.01468568 -0.0065262023)
(-0.83418031 0.024263003 -0.01282241)
(-1.2239295 0.033798256 -0.018697384)
(-1.5597862 0.043767263 -0.020867911)
(-1.7802426 0.054207542 -0.018212263)
(-1.8690315 0.06442628 -0.012569716)
(-1.8670558 0.073211307 -0.0064900154)
(-1.8335571 0.079052828 -0.0023634426)
(-0.14092761 0.0049006852 -0.0022010413)
(-0.45111841 0.014251643 -0.0071868352)
(-0.82084098 0.023737196 -0.013731641)
(-1.2077251 0.033491838 -0.019915591)
(-1.545356 0.044092685 -0.022788847)
(-1.7725885 0.055553107 -0.021170954)
(-1.8705072 0.067030268 -0.016523549)
(-1.8762159 0.077182783 -0.011077951)
(-1.8470552 0.084373508 -0.0071661657)
(-0.13724335 0.0043230021 -0.0022594517)
(-0.44005878 0.012670524 -0.007297952)
(-0.80260943 0.021344174 -0.013748787)
(-1.1853602 0.03065634 -0.01999309)
(-1.5247851 0.041286067 -0.023473591)
(-1.760326 0.053226029 -0.022959804)
(-1.8699174 0.065521782 -0.019480191)
(-1.8857529 0.076721285 -0.01491053)
(-1.8623622 0.085168966 -0.01145204)
(-0.13269742 0.003499019 -0.0021256291)
(-0.42625429 0.010357559 -0.0068380314)
(-0.77954613 0.017709411 -0.012821273)
(-1.1564869 0.026052838 -0.018818438)
(-1.4972621 0.036170708 -0.022725252)
(-1.7424027 0.04805439 -0.02329618)
(-1.8663694 0.06069383 -0.021101522)
(-1.8951825 0.072566511 -0.0176419)
(-1.8792713 0.082079998 -0.014903407)
(-0.12701663 0.0025577926 -0.0017839515)
(-0.40899255 0.0076811065 -0.0057709422)
(-0.75059303 0.013408569 -0.010914455)
(-1.119823 0.020401984 -0.016350066)
(-1.4614125 0.029552642 -0.020452204)
(-1.7175368 0.040895619 -0.022025961)
(-1.8588924 0.053412391 -0.021193362)
(-1.9039803 0.065574264 -0.01905968)
(-1.8975147 0.075866516 -0.017305697)
(-0.11994892 0.0015963668 -0.0012918796)
(-0.38761905 0.0049194118 -0.004262296)
(-0.71477068 0.0088954416 -0.0082720379)
(-1.0741451 0.014315177 -0.012855191)
(-1.4158347 0.022176199 -0.016884853)
(-1.6842342 0.032606248 -0.019273466)
(-1.8461016 0.044615026 -0.019793493)
(-1.9111841 0.056734305 -0.019126697)
(-1.9164642 0.067437173 -0.018561438)
(-0.11192369 0.00074763194 -0.00072392173)
(-0.36310723 0.0024343892 -0.0025219439)
(-0.67315681 0.0047338218 -0.0052224336)
(-1.0200099 0.0085051746 -0.0087210569)
(-1.3600283 0.014826381 -0.012377418)
(-1.6408194 0.023977461 -0.015297928)
(-1.8255879 0.035092337 -0.017025865)
(-1.9145822 0.046810275 -0.01780846)
(-1.9345459 0.0575854 -0.018488906)
(-0.10247569 3.788677e-05 -0.00010773266)
(-0.33423169 0.00031784608 -0.00064630599)
(-0.62381316 0.0010929532 -0.0019161242)
(-0.95457491 0.0032065481 -0.004093628)
(-1.2897788 0.0077703376 -0.0069931847)
(-1.5812258 0.015267206 -0.010033508)
(-1.7896279 0.025064552 -0.012670729)
(-1.9061699 0.035922223 -0.014689403)
(-1.9459726 0.046292944 -0.016171488)
(-0.087989644 0.001118359 0.0010298714)
(-0.28859376 0.003463365 0.0032059223)
(-0.54294762 0.0060558141 0.0056033095)
(-0.8396204 0.0084513045 0.0077608274)
(-1.1478767 0.010136485 0.0089628831)
(-1.4225407 0.010750727 0.0086637243)
(-1.6219515 0.010266271 0.006915074)
(-1.7322005 0.0089560084 0.0044387573)
(-1.7647769 0.0071516505 0.0021413306)
(-0.094805592 0.0011407556 0.00093213074)
(-0.30975251 0.0034729768 0.0028881655)
(-0.57988355 0.0059384884 0.0050092834)
(-0.88976047 0.0080358002 0.0068026239)
(-1.2025723 0.0092494277 0.0075045531)
(-1.4682247 0.0092823463 0.0065923844)
(-1.6458532 0.0082180967 0.0042350985)
(-1.7293451 0.0064754692 0.0013240161)
(-1.7418405 0.0046140658 -0.0012008348)
(-0.10049699 0.001090152 0.00077382069)
(-0.32742894 0.0032884743 0.0024024426)
(-0.61058153 0.0055434049 0.0041712546)
(-0.93063085 0.0073325108 0.0056155765)
(-1.2450661 0.0081634284 0.0059642315)
(-1.4995956 0.007810399 0.004682806)
(-1.6553498 0.0064439463 0.0019694555)
(-1.7149769 0.0045573795 -0.0012103994)
(-1.7122306 0.002722231 -0.0037421879)
(-0.1054019 0.0010145459 0.00062411483)
(-0.34253456 0.0030288219 0.0019387706)
(-0.63651973 0.0050314605 0.0033663639)
(-0.96448443 0.0065019339 0.0044743909)
(-1.2789223 0.0069889299 0.0044980003)
(-1.5221835 0.0063393959 0.0029096976)
(-1.6579744 0.0047883554 -5.9026972e-05)
(-1.6971543 0.0028567623 -0.0033723163)
(-1.6818359 0.0010686902 -0.0057961374)
(-0.10917997 0.00089588573 0.0004751305)
(-0.35428423 0.0026584109 0.0014850475)
(-0.65679703 0.0043709528 0.0025938915)
(-0.99080096 0.0055354374 0.0034065452)
(-1.3044938 0.0057425891 0.0031645145)
(-1.537499 0.0048908135 0.0013424271)
(-1.6560786 0.0032560789 -0.0017960302)
(-1.6782597 0.0013618303 -0.0051509889)
(-1.652544 -0.00030971044 -0.0074087044)
(-0.11210534 0.00075689249 0.00033631683)
(-0.36338157 0.0022358769 0.0010647818)
(-0.67243534 0.0036436478 0.0018897063)
(-1.0107915 0.004522922 0.0024558094)
(-1.3231015 0.0045118864 0.0020110293)
(-1.5469486 0.0035492115 2.7807582e-05)
(-1.6510222 0.0019291935 -0.0032055075)
(-1.6593971 0.00015296189 -0.0065360617)
(-1.6252475 -0.001350017 -0.0086084079)
(-0.11440119 0.00060917398 0.00022202893)
(-0.37042466 0.0017921792 0.0007178197)
(-0.68433827 0.0028969337 0.0013080537)
(-1.0255606 0.0035218807 0.0016750048)
(-1.33595 0.0033577833 0.001075418)
(-1.551703 0.0023727862 -0.0010175449)
(-1.6437916 0.00085668145 -0.0042918409)
(-1.6412142 -0.00073552902 -0.0075619968)
(-1.6004756 -0.0020366172 -0.0094514354)
(-0.11597185 0.00046125181 0.0001321941)
(-0.37527637 0.0013541859 0.00044568675)
(-0.69253003 0.0021753918 0.00085428701)
(-1.0355016 0.0025900454 0.0010730917)
(-1.3438756 0.002341327 0.00036704178)
(-1.55286 0.0014162838 -0.0017920456)
(-1.635422 8.0526786e-05 -0.0050682804)
(-1.6243888 -0.0012826737 -0.0082806883)
(-1.5787106 -0.0023581654 -0.010000659)
(-0.116934 0.00032575516 6.7595978e-05)
(-0.3782974 0.00095577266 0.0002494965)
(-0.69766113 0.0015280577 0.00052649261)
(-1.0415763 0.0017802194 0.00064151746)
(-1.348097 0.0015089823 -0.0001306358)
(-1.5517045 0.00071234667 -0.0023248295)
(-1.6269804 -0.00038660628 -0.0055933969)
(-1.6096716 -0.0014782197 -0.0087369606)
(-1.5604304 -0.0023185584 -0.010329565)
(-0.11747456 0.00021056991 2.5216205e-05)
(-0.38005059 0.00061789746 0.00012019806)
(-0.70067389 0.00098371146 0.00031068629)
(-1.0450234 0.0011201338 0.00035939785)
(-1.3499825 0.0008806454 -0.00045013051)
(-1.5495378 0.000267897 -0.0026573591)
(-1.6195154 -0.00054865445 -0.0059112683)
(-1.5977793 -0.0013448594 -0.0090066288)
(-1.5460989 -0.001948804 -0.010510127)
(-0.11800692 0.00011607662 1.0899329e-06)
(-0.38154942 0.00034035089 4.6211225e-05)
(-0.70295203 0.00053952487 0.00018663136)
(-1.0473205 0.00060126021 0.00019635339)
(-1.3508938 0.00043704136 -0.0006341543)
(-1.5475108 4.9761076e-05 -0.0028465502)
(-1.6139187 -0.00045438389 -0.006088062)
(-1.5893423 -0.00093877784 -0.009152501)
(-1.5361657 -0.0013001355 -0.010597415)
(-0.11803372 3.6488948e-05 -9.1327082e-06)
(-0.38174339 0.00010698044 1.4674732e-05)
(-0.7033961 0.0001687736 0.00013339524)
(-1.0478309 0.00018458957 0.00012664886)
(-1.350882 0.00012565419 -0.00071141658)
(-1.5461996 -6.6129045e-06 -0.0029248592)
(-1.6109315 -0.00017586835 -0.0061601444)
(-1.5849888 -0.00033813127 -0.0092124741)
(-1.5310881 -0.00045784813 -0.010630035)
(-0.11803373 -3.6478812e-05 -9.1338886e-06)
(-0.3817434 -0.00010695532 1.4677361e-05)
(-0.7033961 -0.00016874663 0.00013339332)
(-1.0478309 -0.00018455541 0.00012664852)
(-1.350882 -0.0001256241 -0.00071140923)
(-1.5461996 6.6179146e-06 -0.0029248489)
(-1.6109316 0.00017587533 -0.006160134)
(-1.5849888 0.00033821646 -0.0092124687)
(-1.5310882 0.00045807911 -0.010630035)
(-0.11800693 -0.00011607032 1.0872695e-06)
(-0.38154943 -0.00034033376 4.621619e-05)
(-0.70295204 -0.00053951109 0.00018663312)
(-1.0473205 -0.00060124742 0.00019635842)
(-1.3508938 -0.00043703745 -0.00063413172)
(-1.5475108 -4.9781793e-05 -0.0028465211)
(-1.6139187 0.00045437004 -0.0060880368)
(-1.5893424 0.00093886052 -0.009152492)
(-1.5361657 0.0013003741 -0.010597422)
(-0.11747457 -0.00021056742 2.5215626e-05)
(-0.3800506 -0.00061789092 0.00012020529)
(-0.70067391 -0.00098371132 0.00031070037)
(-1.0450234 -0.0011201418 0.00035941771)
(-1.3499825 -0.00088066902 -0.00045008962)
(-1.5495378 -0.00026794719 -0.0026573123)
(-1.6195154 0.00054861654 -0.0059112361)
(-1.5977794 0.0013449314 -0.0090066268)
(-1.546099 0.0019490401 -0.010510153)
(-0.11693401 -0.00032575335 6.7599455e-05)
(-0.37829743 -0.00095576912 0.00024951838)
(-0.69766116 -0.0015280641 0.00052652006)
(-1.0415764 -0.0017802384 0.00064155854)
(-1.348097 -0.0015090223 -0.00013057112)
(-1.5517045 -0.00071241773 -0.0023247644)
(-1.6269803 0.00038655176 -0.0055933587)
(-1.6096716 0.0014782742 -0.0087369634)
(-1.5604305 0.0023187759 -0.010329615)
(-0.11597187 -0.00046125074 0.00013219344)
(-0.3752764 -0.0013541784 0.00044571367)
(-0.69253007 -0.002175404 0.00085431359)
(-1.0355016 -0.0025900747 0.0010731481)
(-1.3438756 -0.0023413792 0.00036712926)
(-1.55286 -0.0014163705 -0.0017919619)
(-1.635422 -8.059425e-05 -0.0050682313)
(-1.6243889 0.0012827149 -0.0082806883)
(-1.5787107 0.0023583692 -0.010000727)
(-0.1144012 -0.00060917743 0.00022202675)
(-0.37042469 -0.0017921784 0.00071784693)
(-0.6843383 -0.0028969585 0.0013080956)
(-1.0255606 -0.0035219302 0.0016750808)
(-1.33595 -0.0033578554 0.0010755292)
(-1.5517031 -0.0023728875 -0.0010174408)
(-1.6437917 -0.00085676398 -0.0042917773)
(-1.6412143 0.00073556331 -0.0075619973)
(-1.6004758 0.0020368227 -0.0094515069)
(-0.11210535 -0.00075689832 0.00033632144)
(-0.3633816 -0.0022358863 0.001064815)
(-0.67243538 -0.0036436835 0.0018897616)
(-1.0107916 -0.0045229921 0.002455893)
(-1.3231015 -0.0045119749 0.0020111488)
(-1.5469487 -0.0035493274 2.7928068e-05)
(-1.6510223 -0.0019292913 -0.0032054263)
(-1.6593972 -0.00015293788 -0.0065360673)
(-1.6252476 0.0013502277 -0.0086084725)
(-0.10917998 -0.00089589014 0.00047513341)
(-0.35428425 -0.0026584169 0.0014850765)
(-0.65679705 -0.0043709815 0.0025939427)
(-0.99080099 -0.0055355024 0.0034066216)
(-1.3044938 -0.0057426767 0.0031646347)
(-1.5374991 -0.0048909306 0.0013425695)
(-1.6560787 -0.003256177 -0.0017959319)
(-1.6782599 -0.0013618191 -0.0051510006)
(-1.6525442 0.00030992698 -0.007408799)
(-0.1054019 -0.0010145434 0.00062411503)
(-0.34253457 -0.0030288117 0.0019387875)
(-0.63651974 -0.0050314581 0.0033664062)
(-0.96448442 -0.0065019603 0.0044744613)
(-1.2789223 -0.006988994 0.0044981265)
(-1.5221836 -0.006339485 0.0029098447)
(-1.6579745 -0.004788412 -5.8928042e-05)
(-1.6971545 -0.002856714 -0.0033723621)
(-1.6818361 -0.0010684677 -0.0057962986)
(-0.100497 -0.0010901433 0.00077381441)
(-0.32742895 -0.0032884511 0.0024024388)
(-0.61058153 -0.0055433797 0.0041712732)
(-0.93063084 -0.007332509 0.0056156318)
(-1.2450661 -0.0081634611 0.0059643343)
(-1.4995957 -0.0078104435 0.0046829075)
(-1.65535 -0.0064439439 0.0019695097)
(-1.7149772 -0.0045572442 -0.0012104804)
(-1.7122308 -0.0027219983 -0.0037423658)
(-0.0948056 -0.0011407455 0.00093212134)
(-0.30975253 -0.0034729539 0.0028881513)
(-0.57988357 -0.0059384642 0.0050092882)
(-0.88976051 -0.0080358035 0.0068026471)
(-1.2025724 -0.0092494506 0.0075045854)
(-1.4682248 -0.0092823529 0.0065923955)
(-1.6458533 -0.0082180224 0.0042350418)
(-1.7293454 -0.0064752097 0.0013238676)
(-1.7418408 -0.0046137161 -0.0012009967)
(-0.087989655 -0.0011183581 0.0010298692)
(-0.28859378 -0.0034633724 0.0032059228)
(-0.54294765 -0.0060558317 0.0056033248)
(-0.83962045 -0.0084513494 0.0077608316)
(-1.1478767 -0.010136552 0.0089628692)
(-1.4225408 -0.010750812 0.008663698)
(-1.6219517 -0.010266295 0.0069149778)
(-1.7322008 -0.0089558117 0.0044386738)
(-1.7647771 -0.0071514142 0.0021414289)
(-0.095293572 -7.2466285e-05 -5.5153866e-05)
(-0.31163055 -0.00028355216 -0.00020215419)
(-0.58387762 -0.00067588469 -0.00042167084)
(-0.89797817 -0.0014253346 -0.00073249248)
(-1.2201216 -0.0027842869 -0.0011237812)
(-1.5036553 -0.0049580462 -0.0015753943)
(-1.7081501 -0.0079231765 -0.0021270518)
(-1.8222382 -0.011352046 -0.0028812218)
(-1.8586379 -0.014777815 -0.0038823684)
(-0.10301465 -8.1274376e-05 -5.3124452e-05)
(-0.33548735 -0.00031479812 -0.00019212455)
(-0.62524029 -0.00075124548 -0.00040652484)
(-0.9537316 -0.0016023676 -0.00072309086)
(-1.2807956 -0.0031615451 -0.0011345934)
(-1.555115 -0.005649057 -0.0016241838)
(-1.7377225 -0.0090053789 -0.0022489831)
(-1.8254023 -0.012808819 -0.0031438065)
(-1.8424134 -0.016445944 -0.0044230327)
(-0.10956103 -9.0772031e-05 -5.0506149e-05)
(-0.35569842 -0.0003487659 -0.00018464287)
(-0.66006032 -0.00082701647 -0.00040170588)
(-0.99979062 -0.0017599413 -0.00073084628)
(-1.3288973 -0.0034628736 -0.0011581747)
(-1.5922813 -0.0061530791 -0.0016603676)
(-1.7534716 -0.0097255643 -0.0022949338)
(-1.8180186 -0.013668615 -0.0031816459)
(-1.8207835 -0.017305332 -0.0043751261)
(-0.11534671 -0.00012032857 -5.9984283e-05)
(-0.373401 -0.00043699216 -0.00021206778)
(-0.69021958 -0.00098214296 -0.00045405893)
(-1.0390074 -0.0019978791 -0.00081096631)
(-1.3687102 -0.0038050308 -0.001253877)
(-1.6213157 -0.0066097941 -0.0017465463)
(-1.7632592 -0.010268326 -0.0023369906)
(-1.8082132 -0.014211202 -0.0031116446)
(-1.7993242 -0.017720315 -0.0041014141)
(-0.12000387 -0.00015523859 -6.8227423e-05)
(-0.38775299 -0.00054022655 -0.00023596879)
(-0.71476102 -0.0011570202 -0.00049848904)
(-1.0708395 -0.0022422187 -0.00087346826)
(-1.4006006 -0.0041060068 -0.0013130976)
(-1.6436766 -0.0069352374 -0.0017669582)
(-1.7692839 -0.010553971 -0.0022715988)
(-1.7980505 -0.014356331 -0.002884699)
(-1.7794816 -0.017596052 -0.0036371097)
(-0.12380889 -0.00018877837 -7.0292696e-05)
(-0.39945419 -0.00063685985 -0.00024063277)
(-0.73468348 -0.0013116351 -0.00050726124)
(-1.0964397 -0.0024323531 -0.00087892351)
(-1.4257739 -0.0042858448 -0.0012869373)
(-1.6605628 -0.0070319216 -0.0016659474)
(-1.7726052 -0.010473818 -0.0020489717)
(-1.7882659 -0.013996794 -0.0024792633)
(-1.7617679 -0.016866248 -0.0030047902)
(-0.12698209 -0.00021288183 -6.5129486e-05)
(-0.40908135 -0.00070224117 -0.00022290085)
(-0.7508369 -0.0014036889 -0.00047479378)
(-1.1168094 -0.0025109119 -0.00081869506)
(-1.4452476 -0.0042765416 -0.0011677602)
(-1.672869 -0.0068292929 -0.0014452312)
(-1.7738362 -0.0099646653 -0.0016830341)
(-1.7791306 -0.01309173 -0.00192886)
(-1.7463396 -0.015530094 -0.0022547383)
(-0.12937434 -0.00021864938 -5.2042275e-05)
(-0.41635375 -0.00071073535 -0.00018116479)
(-0.76302425 -0.0013913957 -0.00040030865)
(-1.132061 -0.0024230474 -0.00069740918)
(-1.4595219 -0.0040170984 -0.00096836308)
(-1.6812947 -0.0062730967 -0.0011290134)
(-1.7735499 -0.0089900831 -0.001214717)
(-1.7709078 -0.011632361 -0.0012847133)
(-1.7333005 -0.013607525 -0.0014416632)
(-0.13106064 -0.00020242876 -3.3793353e-05)
(-0.42150969 -0.00065158427 -0.00012377814)
(-0.7716912 -0.0012572596 -0.00029873493)
(-1.1428687 -0.0021474711 -0.0005385604)
(-1.4694433 -0.0034888465 -0.00072434349)
(-1.6866923 -0.0053536234 -0.00076726189)
(-1.7723686 -0.0075590699 -0.00070791433)
(-1.7638855 -0.0096480844 -0.00061470626)
(-1.7227863 -0.011107722 -0.00064999925)
(-0.1321893 -0.00016434083 -1.4277185e-05)
(-0.42499983 -0.00052550222 -6.2856097e-05)
(-0.77758879 -0.0010038643 -0.00019174269)
(-1.1501941 -0.0016911928 -0.00037484111)
(-1.4760174 -0.0027072897 -0.00048065113)
(-1.6899272 -0.0040991264 -0.00041551278)
(-1.7708821 -0.0057158943 -0.000225356)
(-1.7583499 -0.0071785807 -1.1616789e-05)
(-1.7147806 -0.0082595839 -2.0992816e-06)
(-0.1331674 -0.00010773952 1.7629184e-06)
(-0.42779093 -0.00034270213 -1.3088173e-05)
(-0.78198076 -0.00065002704 -0.00010502266)
(-1.1553001 -0.0010847094 -0.00024339257)
(-1.480299 -0.0017188946 -0.00028819792)
(-1.6917634 -0.0025792364 -0.00014291553)