/*--------------------------------*- C++ -*----------------------------------*\
| =========                 |                                                 |
| \\      /  F ield         | OpenFOAM: The Open Source CFD Toolbox           |
|  \\    /   O peration     | Version:  2406                                  |
|   \\  /    A nd           | Website:  www.openfoam.com                      |
|    \\/     M anipulation  |                                                 |
\*---------------------------------------------------------------------------*/
FoamFile
{
    version     2.0;
    format      ascii;
    arch        "LSB;label=32;scalar=64";
    class       volScalarField;
    location    "1";
    object      p;
}
// * * * * * * * * * * * * * * * * * * * * * * * * * * * * * * * * * * * * * //

dimensions      [0 2 -2 0 0 0 0];

internalField   nonuniform List<scalar> 
1176
(
0.87742732
0.8774487
0.87747062
0.87747706
0.87744652
0.87735762
0.87721201
0.87703626
0.87684108
0.87663371
0.87645974
0.87636069
0.87636071
0.87645977
0.87663374
0.87684114
0.87703637
0.87721211
0.87735774
0.87744663
0.87747717
0.87747073
0.87744881
0.87742743
0.85420584
0.85415748
0.85410942
0.85409632
0.85417083
0.85439705
0.85479026
0.85525731
0.85565688
0.85590241
0.85605946
0.85618291
0.85618289
0.85605944
0.8559024
0.85565691
0.8552574
0.85479037
0.85439716
0.85417094
0.85409643
0.85410953
0.8541576
0.85420596
0.83700326
0.83703056
0.83706138
0.83708109
0.83705404
0.83692122
0.8366344
0.83624677
0.83589356
0.83567743
0.83568371
0.83578212
0.83578211
0.83568372
0.83567749
0.83589364
0.83624687
0.8366345
0.83692132
0.83705415
0.8370812
0.83706149
0.83703067
0.83700338
0.81959437
0.81963121
0.81968294
0.81975293
0.81983759
0.81991166
0.81991357
0.81976026
0.81946347
0.81931636
0.81956626
0.81991841
0.81991843
0.81956631
0.81931645
0.81946358
0.81976038
0.81991367
0.81991174
0.81983765
0.81975297
0.81968298
0.81963125
0.81959441
0.8024575
0.80251066
0.80257509
0.80263805
0.80267904
0.8026703
0.80261289
0.80256818
0.80269738
0.80329255
0.80438258
0.80534497
0.80534497
0.8043826
0.80329263
0.80269748
0.80256829
0.80261298
0.80267038
0.80267912
0.80263814
0.80257518
0.80251076
0.80245759
0.78668368
0.78673215
0.78677657
0.78678378
0.78671194
0.78649877
0.78613246
0.78578867
0.78599395
0.78725094
0.78934912
0.79104276
0.79104278
0.78934917
0.78725103
0.78599402
0.78578871
0.7861325
0.7864988
0.78671197
0.78678381
0.7867766
0.78673216
0.78668368
0.77428298
0.77429297
0.77427495
0.77417796
0.77393071
0.77343162
0.77264572
0.77182833
0.77173133
0.77318917
0.77593586
0.77824078
0.77824079
0.77593589
0.77318923
0.77173139
0.77182837
0.77264574
0.77343162
0.7739307
0.77417795
0.77427493
0.77429294
0.77428293
0.76641729
0.76635556
0.76623513
0.76599508
0.76555655
0.76480493
0.7636754
0.76239524
0.76179262
0.76296713
0.76574864
0.76837481
0.76837481
0.76574864
0.76296714
0.76179263
0.76239522
0.76367536
0.76480489
0.7655565
0.76599503
0.76623507
0.76635548
0.7664172
0.7629738
0.76283071
0.76260444
0.76223834
0.76165675
0.76074753
0.75941603
0.75779577
0.75665005
0.75705706
0.75922324
0.76182674
0.76182674
0.75922323
0.75705699
0.75664995
0.75779564
0.75941589
0.76074739
0.76165661
0.7622382
0.76260429
0.76283055
0.76297363
0.76251088
0.76230007
0.76199218
0.76154365
0.76089175
0.75994405
0.75858692
0.75681222
0.75516927
0.75455503
0.75587175
0.75800865
0.75800864
0.7558717
0.75455489
0.75516906
0.75681198
0.75858666
0.75994378
0.76089148
0.76154337
0.7619919
0.76229979
0.76251059
0.76294558
0.76269439
0.7623437
0.7618667
0.76121749
0.76032943
0.75908428
0.75734004
0.75530617
0.75388919
0.75454158
0.7557751
0.75577506
0.75454146
0.75388897
0.75530591
0.75733974
0.75908397
0.7603291
0.76121716
0.76186635
0.76234335
0.76269404
0.76294522
0.76244295
0.76218089
0.76182664
0.76136988
0.76078189
0.76002207
0.75897335
0.75737424
0.75514489
0.75325789
0.75321626
0.75359151
0.75359145
0.7532161
0.75325763
0.75514458
0.75737388
0.75897299
0.76002172
0.76078154
0.76136951
0.76182627
0.76218052
0.76244259
0.75955262
0.75930533
0.75897965
0.7585786
0.75808853
0.75749379
0.75669595
0.75538339
0.75326417
0.75106498
0.74987086
0.74971507
0.74971502
0.74987069
0.75106472
0.75326381
0.75538294
0.75669546
0.75749329
0.75808803
0.75857807
0.75897912
0.7593048
0.75955209
0.75321285
0.75299941
0.75272389
0.75239703
0.75201507
0.75157818
0.75101015
0.75000351
0.74810056
0.74577222
0.74375461
0.7430838
0.74308376
0.74375446
0.74577196
0.74810021
0.7500031
0.75100972
0.75157773
0.7520146
0.75239655
0.7527234
0.75299893
0.75321236
0.74320404
0.74303259
0.7428144
0.74256267
0.74227829
0.7419677
0.7415679
0.74079465
0.73914963
0.73677261
0.73458364
0.73357512
0.73357508
0.73458349
0.73677236
0.73914928
0.74079426
0.74156752
0.74196731
0.74227789
0.74256228
0.74281402
0.74303222
0.74320367
0.72990396
0.72977371
0.72960968
0.72942446
0.72922061
0.72900621
0.72872986
0.72814214
0.7267689
0.72459068
0.72253081
0.72138778
0.72138775
0.7225307
0.72459048
0.72676864
0.72814183
0.72872953
0.72900586
0.72922027
0.72942412
0.72960936
0.72977339
0.72990365
0.71393515
0.71384042
0.71372215
0.71359093
0.71344959
0.71330563
0.71311901
0.71268217
0.7115687
0.70972961
0.70791579
0.70678973
0.7067897
0.70791572
0.70972951
0.71156857
0.71268202
0.71311884
0.71330544
0.7134494
0.71359075
0.71372197
0.71384025
0.71393498
0.69594032
0.69587388
0.69579154
0.69570164
0.69560669
0.69551298
0.69539074
0.69507765
0.69421336
0.69271803
0.69116831
0.69017164
0.69017161
0.69116823
0.69271793
0.69421324
0.69507753
0.69539063
0.69551288
0.6956066
0.69570155
0.69579146
0.6958738
0.69594025
0.67647296
0.67642785
0.67637232
0.67631259
0.67625065
0.67619135
0.67611317
0.6758941
0.67524347
0.67406108
0.67279016
0.67196566
0.67196563
0.67279008
0.67406099
0.67524336
0.675894
0.67611308
0.67619125
0.67625056
0.6763125
0.67637223
0.67642775
0.67647287
0.65597646
0.65594673
0.65591035
0.65587175
0.65583236
0.65579567
0.6557465
0.65559612
0.65511981
0.65421251
0.65320916
0.65255752
0.6525575
0.6532091
0.65421243
0.65511975
0.65559608
0.65574645
0.65579562
0.6558323
0.65587169
0.65591029
0.65594666
0.65597639
0.63478694
0.63476788
0.63474469
0.63472036
0.6346959
0.63467367
0.63464321
0.63454199
0.63420273
0.63352644
0.63276006
0.63226355
0.63226353
0.63276002
0.63352639
0.63420269
0.63454195
0.63464317
0.63467361
0.63469584
0.63472029
0.6347446
0.6347678
0.63478686
0.61314647
0.61313456
0.61312013
0.61310518
0.61309032
0.6130771
0.61305848
0.61299165
0.61275622
0.61226569
0.61169748
0.6113307
0.6113307
0.61169747
0.61226568
0.61275622
0.61299167
0.61305851
0.61307713
0.61309036
0.61310522
0.61312018
0.6131346
0.61314651
0.59122177
0.5912145
0.59120574
0.59119675
0.59118792
0.5911802
0.59116896
0.59112565
0.59096621
0.59061938
0.59020925
0.58994548
0.58994548
0.59020927
0.59061941
0.59096625
0.59112568
0.59116897
0.59118019
0.59118791
0.59119675
0.59120574
0.5912145
0.59122177
0.5691232
0.56911887
0.56911367
0.56910839
0.56910324
0.56909881
0.56909212
0.56906456
0.56895901
0.56871951
0.56843057
0.56824532
0.56824533
0.56843061
0.56871958
0.5689591
0.56906466
0.56909223
0.56909894
0.56910337
0.56910852
0.5691138
0.569119
0.56912333
0.54692139
0.54691886
0.54691585
0.54691281
0.54690987
0.54690736
0.54690341
0.54688617
0.54681776
0.54665596
0.5464568
0.54632946
0.54632947
0.54645685
0.54665604
0.54681785
0.54688628
0.54690353
0.54690751
0.54691003
0.54691298
0.54691602
0.54691904
0.54692157
0.52466008
0.52465865
0.52465694
0.52465523
0.52465358
0.52465218
0.52464986
0.52463924
0.52459575
0.52448861
0.52435404
0.52426819
0.52426821
0.52435411
0.5244887
0.52459584
0.52463932
0.52464993
0.52465224
0.52465363
0.52465528
0.52465698
0.52465869
0.52466013
0.50236554
0.50236475
0.5023638
0.50236286
0.50236196
0.50236118
0.50235983
0.50235337
0.50232621
0.50225658
0.50216728
0.50211041
0.50211043
0.50216734
0.50225667
0.50232632
0.5023535
0.50235995
0.50236131
0.50236208
0.50236299
0.50236393
0.50236488
0.50236568
0.48005312
0.48005268
0.48005217
0.48005167
0.48005117
0.48005075
0.48004996
0.48004609
0.4800294
0.47998492
0.47992663
0.47988956
0.47988957
0.47992665
0.47998495
0.48002945
0.48004614
0.48005
0.48005078
0.4800512
0.48005169
0.48005219
0.4800527
0.48005313
0.45773147
0.45773124
0.45773097
0.4577307
0.45773044
0.45773021
0.45772975
0.45772745
0.45771735
0.45768937
0.45765189
0.4576281
0.45762811
0.45765192
0.45768941
0.45771741
0.45772752
0.45772981
0.45773027
0.4577305
0.45773076
0.45773103
0.45773129
0.45773152
0.43540534
0.43540522
0.43540509
0.43540495
0.43540481
0.43540468
0.43540441
0.43540306
0.43539703
0.43537968
0.43535592
0.43534085
0.43534086
0.43535593
0.4353797
0.43539706
0.43540309
0.43540444
0.43540471
0.43540484
0.43540497
0.43540511
0.43540525
0.43540536
0.41307722
0.41307717
0.4130771
0.41307703
0.41307696
0.41307689
0.41307672
0.41307593
0.41307238
0.41306177
0.41304689
0.41303747
0.41303747
0.41304689
0.41306176
0.41307237
0.41307591
0.41307669
0.41307684
0.4130769
0.41307697
0.41307703
0.41307709
0.41307715
0.39074836
0.39074834
0.39074831
0.39074827
0.39074824
0.39074819
0.39074809
0.39074763
0.39074555
0.39073914
0.39072993
0.39072411
0.39072411
0.39072991
0.3907391
0.39074549
0.39074757
0.39074803
0.39074813
0.39074818
0.39074822
0.39074825
0.39074828
0.39074831
0.36841933
0.36841932
0.36841931
0.36841929
0.36841927
0.36841924
0.36841918
0.3684189
0.3684177
0.36841387
0.36840823
0.36840467
0.36840466
0.36840818
0.36841378
0.36841757
0.36841875
0.368419
0.36841905
0.36841907
0.36841908
0.3684191
0.36841911
0.36841912
0.34609037
0.34609036
0.34609035
0.34609035
0.34609033
0.34609032
0.34609027
0.34609011
0.34608942
0.34608715
0.34608373
0.34608156
0.34608154
0.34608366
0.34608704
0.34608928
0.34608995
0.3460901
0.34609013
0.34609014
0.34609014
0.34609014
0.34609015
0.34609015
0.32376154
0.32376154
0.32376154
0.32376153
0.32376153
0.32376151
0.32376149
0.32376139
0.32376099
0.32375966
0.32375759
0.32375628
0.32375626
0.3237575
0.32375951
0.3237608
0.32376118
0.32376127
0.3237613
0.32376131
0.32376132
0.32376132
0.32376133
0.32376133
0.30143285
0.30143285
0.30143285
0.30143285
0.30143285
0.30143284
0.30143283
0.30143278
0.30143255
0.30143177
0.30143052
0.30142973
0.30142969
0.30143041
0.30143159
0.30143232
0.30143251
0.30143255
0.30143255
0.30143255
0.30143255
0.30143254
0.30143254
0.30143254
0.27910428
0.27910428
0.27910428
0.27910428
0.27910428
0.27910428
0.27910428
0.27910425
0.27910412
0.27910366
0.27910291
0.27910242
0.27910237
0.27910277
0.27910344
0.27910385
0.27910396
0.27910399
0.279104
0.27910401
0.27910401
0.27910401
0.27910402
0.27910402
0.25677579
0.25677579
0.25677579
0.25677579
0.25677579
0.2567758
0.2567758
0.25677578
0.25677571
0.25677543
0.25677496
0.25677465
0.25677458
0.25677478
0.25677515
0.25677535
0.25677539
0.25677539
0.25677538
0.25677538
0.25677538
0.25677538
0.25677538
0.25677538
0.23444734
0.23444734
0.23444734
0.23444734
0.23444735
0.23444735
0.23444735
0.23444734
0.23444729
0.23444712
0.23444682
0.23444661
0.23444653
0.23444662
0.2344468
0.2344469
0.23444692
0.23444691
0.23444691
0.23444691
0.23444691
0.23444691
0.2344469
0.2344469
0.21211891
0.21211891
0.21211891
0.21211891
0.21211892
0.21211892
0.21211892
0.21211891
0.21211887
0.21211875
0.21211855
0.21211839
0.21211831
0.21211833
0.21211841
0.21211844
0.21211843
0.21211841
0.21211839
0.21211838
0.21211837
0.21211837
0.21211837
0.21211837
0.18979048
0.18979049
0.18979049
0.18979049
0.18979049
0.18979049
0.18979048
0.18979047
0.18979043
0.18979034
0.1897902
0.18979008
0.18979001
0.18979
0.18979003
0.18979004
0.18979003
0.18979002
0.18979
0.18978999
0.18978999
0.18978998
0.18978998
0.18978998
0.16746205
0.16746205
0.16746205
0.16746205
0.16746205
0.16746205
0.16746204
0.16746202
0.16746199
0.16746192
0.16746182
0.16746172
0.16746167
0.16746165
0.16746166
0.16746166
0.16746165
0.16746163
0.16746161
0.1674616
0.16746159
0.16746159
0.16746158
0.16746158
0.14513362
0.14513362
0.14513362
0.14513362
0.14513362
0.14513362
0.14513361
0.14513359
0.14513356
0.1451335
0.14513342
0.14513334
0.14513331
0.1451333
0.14513331
0.14513332
0.14513332
0.14513332
0.14513331
0.1451333
0.1451333
0.14513329
0.14513329
0.14513329
0.12280518
0.12280519
0.12280519
0.12280519
0.12280519
0.12280518
0.12280518
0.12280516
0.12280513
0.12280508
0.12280501
0.12280495
0.12280492
0.12280493
0.12280497
0.12280499
0.12280499
0.12280499
0.12280499
0.12280498
0.12280498
0.12280498
0.12280498
0.12280498
0.10047676
0.10047677
0.10047677
0.10047677
0.10047677
0.10047677
0.10047678
0.10047677
0.10047674
0.10047668
0.1004766
0.10047655
0.10047653
0.10047656
0.10047661
0.10047666
0.10047667
0.10047668
0.10047667
0.10047667
0.10047667
0.10047666
0.10047666
0.10047666
0.078148407
0.078148412
0.07814842
0.078148428
0.078148437
0.078148445
0.078148446
0.078148421
0.078148363
0.078148267
0.078148148
0.078148077
0.078148071
0.078148124
0.07814823
0.078148319
0.078148376
0.078148401
0.078148403
0.078148398
0.078148391
0.078148384
0.078148377
0.078148372
0.055819856
0.055819856
0.055819856
0.055819858
0.055819871
0.055819903
0.05581996
0.055820006
0.055819971
0.055819858
0.055819728
0.055819678
0.055819688
0.055819725
0.055819836
0.055819953
0.05581999
0.05581995
0.055819897
0.055819867
0.055819856
0.055819854
0.055819856
0.055819857
0.033492716
0.033492711
0.033492698
0.03349267
0.03349262
0.033492529
0.033492365
0.033492116
0.033491788
0.033491447
0.033491213
0.033491123
0.033491123
0.033491218
0.033491443
0.033491779
0.03349211
0.033492366
0.033492535
0.033492629
0.033492681
0.033492711
0.033492724
0.033492731
0.011164293
0.011164299
0.011164303
0.011164298
0.01116428
0.011164231
0.011164137
0.011164003
0.01116385
0.011163703
0.011163595
0.011163531
0.011163529
0.011163601
0.011163717
0.011163866
0.011164021
0.011164159
0.011164255
0.011164307
0.011164327
0.011164333
0.011164331
0.011164326
)
;

boundaryField
{
    INLET
    {
        type            zeroGradient;
    }
    OUTLET
    {
        type            fixedValue;
        value           uniform 0;
    }
    WALL
    {
        type            zeroGradient;
    }
    frontAndBackPlanes
    {
        type            empty;
    }
}


// ************************************************************************* //
