/*--------------------------------*- C++ -*----------------------------------*\
| =========                 |                                                 |
| \\      /  F ield         | OpenFOAM: The Open Source CFD Toolbox           |
|  \\    /   O peration     | Version:  2406                                  |
|   \\  /    A nd           | Website:  www.openfoam.com                      |
|    \\/     M anipulation  |                                                 |
\*---------------------------------------------------------------------------*/
FoamFile
{
    version     2.0;
    format      ascii;
    arch        "LSB;label=32;scalar=64";
    class       surfaceScalarField;
    location    "1";
    object      phi;
}
// * * * * * * * * * * * * * * * * * * * * * * * * * * * * * * * * * * * * * //

dimensions      [0 3 -1 0 0 0 0];

oriented        oriented;

internalField   nonuniform List<scalar> 
2279
(
2.0384099e-08
1.015216e-05
1.8817408e-07
4.9837441e-05
6.4546474e-07
0.00014255965
1.4832917e-06
0.00034357815
2.5504012e-06
0.00075381415
3.2772288e-06
0.0015414989
3.165785e-06
0.0029495172
2.5714189e-06
0.0052488735
1.8248477e-06
0.0085822957
9.99967e-07
0.012686377
4.1664239e-07
0.016666492
4.4785643e-12
0.019181924
-4.1660054e-07
0.019181924
-9.9987482e-07
0.016666492
-1.8249332e-06
0.012686377
-2.5716023e-06
0.0085822958
-3.165803e-06
0.0052488735
-3.2773233e-06
0.0029495173
-2.5504514e-06
0.0015414989
-1.4832863e-06
0.00075381414
-6.4545429e-07
0.00034357814
-1.8816915e-07
0.00014255965
-2.0382739e-08
4.9837439e-05
1.015216e-05
-9.7253905e-08
1.0249411e-05
-5.4534651e-07
5.0285534e-05
-1.6304509e-06
0.00014364476
-3.5037639e-06
0.00034545148
-5.7142965e-06
0.00075602472
-6.8235799e-06
0.0015426082
-5.5641461e-06
0.0029482579
-2.9717681e-06
0.0052462811
-8.1931537e-07
0.0085801433
-3.2516916e-08
0.012685591
-8.1403147e-08
0.016666541
-7.6578163e-11
0.019181843
8.124181e-08
0.019181843
3.2407381e-08
0.016666541
8.1915041e-07
0.01268559
2.9714634e-06
0.0085801432
5.5640914e-06
0.0052462809
6.8235593e-06
0.0029482578
5.7142925e-06
0.0015426082
3.5037832e-06
0.0007560247
1.6304528e-06
0.00034545147
5.4533774e-07
0.00014364476
9.7247215e-08
5.0285531e-05
1.0249411e-05
6.3379452e-08
1.0186025e-05
3.4835736e-07
5.0000552e-05
1.0494449e-06
0.00014294368
2.3397869e-06
0.00034416114
4.1050245e-06
0.00075425947
5.6361259e-06
0.0015410771
5.8879061e-06
0.0029480061
4.0946291e-06
0.0052480744
9.5849206e-07
0.0085832793
-1.5885628e-06
0.012688138
-2.0154705e-06
0.016666968
-1.0964921e-10
0.019179828
2.015168e-06
0.019179828
1.5881755e-06
0.016666968
-9.5875393e-07
0.012688137
-4.0948356e-06
0.0085832792
-5.8878788e-06
0.0052480741
-5.636119e-06
0.002948006
-4.1050534e-06
0.0015410771
-2.3397792e-06
0.00075425947
-1.0494439e-06
0.00034416114
-3.4836713e-07
0.00014294367
-6.3386311e-08
5.0000551e-05
1.0186025e-05
8.2099251e-08
1.0103919e-05
4.7101189e-07
4.9611641e-05
1.513641e-06
0.00014190106
3.732523e-06
0.00034194229
7.5600868e-06
0.00075043195
1.2343582e-05
0.0015362937
1.5106431e-05
0.0029452432
1.2442546e-05
0.0052507383
4.6062608e-06
0.0085911156
-2.3355902e-06
0.012695079
-3.4166725e-06
0.016668049
-2.7278361e-10
0.019176411
3.4162143e-06
0.019176411
2.3352302e-06
0.016668049
-4.606489e-06
0.012695079
-1.2442747e-05
0.0085911154
-1.5106292e-05
0.005250738
-1.2343326e-05
0.0029452431
-7.5599673e-06
0.0015362937
-3.7324576e-06
0.00075043194
-1.513608e-06
0.00034194229
-4.7100262e-07
0.00014190106
-8.2097229e-08
4.961164e-05
1.0103918e-05
1.1308235e-07
9.9908372e-06
6.2274161e-07
4.9101979e-05
1.9057413e-06
0.00014061805
4.4075955e-06
0.00033944042
8.2663217e-06
0.00074657325
1.2505529e-05
0.0015320546
1.4235926e-05
0.0029435128
9.7296641e-06
0.0052552444
-1.2362361e-06
0.0086020814
-1.082821e-05
0.012704671
-9.9454538e-06
0.016667166
-3.0733659e-10
0.019166466
9.9448483e-06
0.019166466
1.0827546e-05
0.016667166
1.235864e-06
0.012704671
-9.7297785e-06
0.008602081
-1.4235758e-05
0.0052552441
-1.250529e-05
0.0029435128
-8.2663073e-06
0.0015320546
-4.407638e-06
0.00074657327
-1.905747e-06
0.00033944043
-6.2272748e-07
0.00014061805
-1.1307105e-07
4.9101981e-05
9.9908378e-06
9.8907491e-08
9.8919519e-06
5.0361008e-07
4.8697291e-05
1.3899637e-06
0.00013973168
2.7193726e-06
0.00033811098
3.6922475e-06
0.00074560036
2.189104e-06
0.0015335578
-4.4215955e-06
0.0029501237
-1.6164975e-05
0.0052669878
-2.8631229e-05
0.0086145476
-3.4185126e-05
0.012710225
-2.4222922e-05
0.016657204
-5.232738e-10
0.019142244
2.4221943e-05
0.019142244
3.418427e-05
0.016657203
2.8630889e-05
0.012710224
1.6164966e-05
0.0086145469
4.4216135e-06
0.0052669874
-2.1890616e-06
0.0029501235
-3.6923118e-06
0.0015335577
-2.7194326e-06
0.00074560036
-1.3899522e-06
0.00033811098
-5.0356636e-07
0.00013973169
-9.8881072e-08
4.8697293e-05
9.8919524e-06
8.3079119e-09
9.8836848e-06
-4.8293932e-08
4.8753913e-05
-5.0850292e-07
0.00014019188
-2.410922e-06
0.00034001337
-8.1721218e-06
0.00075136156
-2.1657346e-05
0.001547043
-4.4961193e-05
0.0029734275
-7.1089482e-05
0.005293116
-8.50158e-05
0.0086284739
-7.7964564e-05
0.012703174
-4.8592863e-05
0.016627832
-7.297103e-10
0.019093652
4.8591488e-05
0.019093652
7.7963386e-05
0.016627831
8.501503e-05
0.012703173
7.1089078e-05
0.0086284729
4.4960916e-05
0.0052931155
2.1657253e-05
0.0029734272
8.1720653e-06
0.0015470429
2.4108861e-06
0.0007513615
5.0853053e-07
0.00034001334
4.8349495e-08
0.00014019187
-8.2768793e-09
4.8753911e-05
9.8836846e-06
-1.4523155e-07
1.0028959e-05
-9.4375742e-07
4.9552436e-05
-3.4617918e-06
0.00014270985
-1.0051855e-05
0.00034660335
-2.514444e-05
0.00076645414
-5.4759123e-05
0.0015766577
-0.00010086943
0.0030195379
-0.00014917308
0.0053414197
-0.00016942917
0.00864873
-0.00014497139
0.012678716
-8.479245e-05
0.016567653
-9.6447228e-10
0.01900886
8.4790548e-05
0.01900886
0.00014496975
0.016567652
0.00016942791
0.012678715
0.00014917226
0.0086487287
0.00010086878
0.0053414189
5.4758683e-05
0.0030195374
2.5144164e-05
0.0015766575
1.0051681e-05
0.00076645399
3.4617386e-06
0.00034660328
9.4377472e-07
0.00014270982
1.4524867e-07
4.9552427e-05
1.0028957e-05
-3.1394884e-07
1.0342951e-05
-1.9071765e-06
5.114567e-05
-6.5753061e-06
0.00014737796
-1.7940847e-05
0.00035796888
-4.2361364e-05
0.0007908747
-8.8147691e-05
0.0016224441
-0.0001583441
0.0030897342
-0.00023402454
0.0054171001
-0.00026964421
0.0086843497
-0.00023171784
0.01264079
-0.00013234049
0.016468276
-1.2287552e-09
0.018876521
0.00013233809
0.018876521
0.00023171592
0.016468275
0.00026964266
0.012640788
0.00023402339
0.008684348
0.0001583432
0.0054170989
8.81471e-05
0.0030897334
4.2361086e-05
0.0016224435
1.7940727e-05
0.00079087439
6.5752738e-06
0.00035796873
1.9071853e-06
0.0001473779
3.1395374e-07
5.1145648e-05
1.0342946e-05
-4.4970097e-07
1.079268e-05
-2.6690991e-06
5.3365059e-05
-8.9977619e-06
0.00015370658
-2.3981994e-05
0.00037295306
-5.5393367e-05
0.00082228607
-0.0001134924
0.0016805432
-0.0002034548
0.0031796967
-0.0003057264
0.0055193717
-0.00036335783
0.0087419813
-0.0003228889
0.012600321
-0.00018557834
0.016330966
-1.465281e-09
0.018690944
0.0001855756
0.018690944
0.00032288683
0.016330963
0.00036335612
0.012600319
0.00030572506
0.008741979
0.00020345383
0.0055193699
0.00011349168
0.0031796954
5.5392904e-05
0.0016805423
2.3981757e-05
0.0008222856
8.9976687e-06
0.00037295283
2.6690719e-06
0.00015370648
4.496903e-07
5.3365023e-05
1.0792672e-05
-5.2627933e-07
1.1318976e-05
-3.0865203e-06
5.5925297e-05
-1.0283926e-05
0.00016090398
-2.7079709e-05
0.00038974884
-6.1883822e-05
0.00085709019
-0.00012614628
0.0017448057
-0.00022768082
0.0032812313
-0.00035009207
0.0056417828
-0.00043094271
0.008822832
-0.00039868188
0.01256806
-0.00023494729
0.016167231
-1.6084005e-09
0.018455999
0.00023494431
0.018455998
0.00039867955
0.016167228
0.00043094075
0.012568057
0.00035009065
0.008822829
0.00022767995
0.0056417806
0.00012614574
0.0032812295
6.1883554e-05
0.0017448045
2.707961e-05
0.00085708957
1.028389e-05
0.00038974853
3.0865027e-06
0.00016090384
5.2626742e-07
5.5925249e-05
1.1318966e-05
-5.4177077e-07
1.1860753e-05
-3.151962e-06
5.853549e-05
-1.0420648e-05
0.00016817268
-2.7226043e-05
0.00040655426
-6.1828481e-05
0.00089169262
-0.00012587792
0.0018088551
-0.00022939485
0.0033847484
-0.00036213123
0.0057745192
-0.00046282853
0.0089235291
-0.00044430354
0.012549536
-0.00027065496
0.015993582
-1.6648775e-09
0.018185345
0.00027065181
0.018185344
0.00044430086
0.015993579
0.00046282637
0.012549532
0.00036212977
0.0089235254
0.00022939391
0.0057745164
0.00012587732
0.0033847462
6.1828235e-05
0.0018088538
2.7225982e-05
0.00089169194
1.0420624e-05
0.00040655392
3.1519414e-06
0.00016817253
5.4175644e-07
5.8535437e-05
1.1860742e-05
-5.0553456e-07
1.2366281e-05
-2.9240138e-06
6.0953966e-05
-9.6167993e-06
0.00017486547
-2.5007952e-05
0.00042194544
-5.6622549e-05
0.00092330721
-0.00011544747
0.0018676799
-0.00021262524
0.0034819262
-0.0003444948
0.0059063891
-0.00045861875
0.0090376529
-0.00045527439
0.012546191
-0.0002856664
0.015823974
-1.70748e-09
0.017899681
0.00028566318
0.01789968
0.00045527155
0.015823971
0.00045861678
0.012546187
0.00034449373
0.0090376484
0.00021262456
0.0059063854
0.00011544709
0.0034819236
5.6622473e-05
0.0018676783
2.5007961e-05
0.00092330639
9.6167937e-06
0.00042194503
2.9239971e-06
0.00017486529
5.0552302e-07
6.0953901e-05
1.2366268e-05
-4.3252888e-07
1.2798798e-05
-2.4930713e-06
6.3014503e-05
-8.1772164e-06
0.00018054963
-2.1225711e-05
0.00043499399
-4.8066668e-05
0.00095014824
-9.8433276e-05
0.0019180464
-0.00018350897
0.0035670018
-0.0003044345
0.0060273149
-0.00042077948
0.0091539979
-0.00043286447
0.012558276
-0.00027881081
0.015669921
-1.7399174e-09
0.017620872
0.0002788077
0.01762087
0.0004328619
0.015669917
0.00042077775
0.012558271
0.00030443344
0.0091539927
0.00018350816
0.0060273107
9.8432899e-05
0.0035669989
4.8066576e-05
0.0019180447
2.1225665e-05
0.0009501473
8.1771768e-06
0.00043499351
2.4930446e-06
0.00018054942
4.3251862e-07
6.3014425e-05
1.2798781e-05
-3.445463e-07
1.3143329e-05
-1.982332e-06
6.4652282e-05
-6.4952349e-06
0.00018506254
-1.6860985e-05
0.00044535977
-3.8267708e-05
0.00097155507
-7.8868755e-05
0.0019586475
-0.00014905099
0.0036371839
-0.00025324841
0.0061315125
-0.00036201262
0.0092627622
-0.00038707996
0.012583343
-0.00025566973
0.01553851
-1.6647623e-09
0.017365204
0.00025566678
0.017365202
0.00038707775
0.015538506
0.0003620112
0.012583337
0.00025324755
0.0092627562
0.00014905043
0.0061315077
7.8868576e-05
0.0036371806
3.8267626e-05
0.0019586456
1.6860892e-05
0.00097155403
6.4951702e-06
0.00044535924
1.9822976e-06
0.0001850623
3.4453522e-07
6.4652194e-05
1.314331e-05
-2.5971909e-07
1.3403033e-05
-1.4929112e-06
6.5885465e-05
-4.8908826e-06
0.0001884605
-1.2709686e-05
0.00045317856
-2.8941407e-05
0.00098778683
-6.0094493e-05
0.0019898007
-0.00011522475
0.0036923141
-0.0002005558
0.0062168437
-0.00029622792
0.0093584344
-0.00032876412
0.01261588
-0.00022284182
0.015432588
-1.4300903e-09
0.017142363
0.00022283926
0.017142361
0.00032876229
0.015432583
0.0002962269
0.012615873
0.00020055531
0.0093584277
0.00011522455
0.0062168384
6.0094491e-05
0.0036923106
2.8941353e-05
0.0019897986
1.270961e-05
0.00098778572
4.8908372e-06
0.000453178
1.4928887e-06
0.00018846025
2.5971298e-07
6.5885372e-05
1.3403013e-05
-1.874465e-07
1.3590468e-05
-1.0769921e-06
6.6775009e-05
-3.5293759e-06
0.00019091289
-9.1859043e-06
0.00045883507
-2.0998099e-05
0.00099959904
-4.3951735e-05
0.0020127544
-8.553667e-05
0.003733899
-0.00015253635
0.0062838434
-0.00023281358
0.0094387116
-0.00026755007
0.012650616
-0.00018599168
0.01535103
-1.0791859e-09
0.016956372
0.00018598962
0.01695637
0.00026754844
0.015351024
0.00023281273
0.012650608
0.00015253611
0.0094387045
8.5536762e-05
0.0062838379
4.3951915e-05
0.0037338956
2.0998146e-05
0.0020127525
9.1859078e-06
0.00099959796
3.5293775e-06
0.00045883454
1.0769905e-06
0.00019091264
1.8744682e-07
6.6774919e-05
1.3590449e-05
-1.305186e-07
1.3720978e-05
-7.4973638e-07
6.7394227e-05
-2.4582695e-06
0.00019262143
-6.4099133e-06
0.00046278671
-1.4713667e-05
0.0010079028
-3.1055207e-05
0.0020290961
-6.1357784e-05
0.0037642017
-0.00011210271
0.0063345883
-0.00017676966
0.0095033786
-0.0002099752
0.012683821
-0.00014950128
0.015290556
-5.1146805e-10
0.016806872
0.00014950024
0.01680687
0.00020997434
0.01529055
0.00017676947
0.012683813
0.00011210294
0.009503371
6.1358138e-05
0.0063345827
3.105544e-05
0.0037641983
1.4713704e-05
0.0020290942
6.409915e-06
0.0010079018
2.4582713e-06
0.0004627862
7.4973496e-07
0.00019262119
1.3051852e-07
6.7394142e-05
1.372096e-05
-8.7994008e-08
1.3808966e-05
-5.0546742e-07
6.7811702e-05
-1.6586774e-06
0.00019377464
-4.3342795e-06
0.0004654623
-9.9941701e-06
0.0010135626
-2.1277745e-05
0.0020403797
-4.2689181e-05
0.0037856131
-7.9898863e-05
0.0063717979
-0.00013008844
0.0095535682
-0.00015955668
0.012713289
-0.00011622949
0.015247229
1.3109042e-10
0.016690642
0.00011622983
0.01669064
0.00015955711
0.015247222
0.00013008912
0.012713281
7.989957e-05
0.0095535606
4.2689798e-05
0.0063717925
2.1278102e-05
0.00378561
9.9942995e-06
0.002040378
4.334339e-06
0.0010135617
1.6587036e-06
0.00046546182
5.0547499e-07
0.00019377442
8.7996092e-08
6.7811622e-05
1.3808949e-05
-5.7580526e-08
1.3866543e-05
-3.3085082e-07
6.8084976e-05
-1.0868543e-06
0.00019453065
-2.8471282e-06
0.00046722258
-6.5974113e-06
0.0010173129
-1.4174564e-05
0.0020479569
-2.8888166e-05
0.0038003268
-5.5391113e-05
0.0063983007
-9.3080552e-05
0.0095912577
-0.00011779047
0.012737999
-8.7708827e-05
0.015217147
6.8810947e-10
0.016602933
8.7710281e-05
0.01660293
0.00011779197
0.015217141
9.3081932e-05
0.012737991
5.5392216e-05
0.0095912504
2.8888991e-05
0.0063982958
1.4175032e-05
0.003800324
6.5976308e-06
0.0020479554
2.8472362e-06
0.0010173121
1.0869001e-06
0.00046722215
3.3086608e-07
0.00019453046
5.7584739e-08
6.8084906e-05
1.3866528e-05
-3.6652343e-08
1.3903192e-05
-2.1070716e-07
6.825903e-05
-6.9312079e-07
0.00019501306
-1.8208703e-06
0.00046835032
-4.2420554e-06
0.0010197341
-9.2023923e-06
0.0020529173
-1.9061219e-05
0.0038101857
-3.7450177e-05
0.0064166896
-6.4928215e-05
0.0096187358
-8.4716265e-05
0.012757787
-6.4433284e-05
0.015196864
1.1568894e-09
0.016538498
6.4435654e-05
0.016538496
8.4718662e-05
0.015196858
6.4930259e-05
0.01275778
3.7451671e-05
0.009618729
1.9062216e-05
0.0064166853
9.2029345e-06
0.0038101833
4.2423265e-06
0.0020529159
1.8210027e-06
0.0010197333
6.9317577e-07
0.00046834996
2.1072552e-07
0.0001950129
3.6657049e-08
6.825897e-05
1.3903179e-05
-2.2734125e-08
1.3925923e-05
-1.3079113e-07
6.8367082e-05
-4.3094537e-07
0.00019531321
-1.1357766e-06
0.00046905514
-2.6615925e-06
0.0010212599
-5.8335301e-06
0.0020560892
-1.2288721e-05
0.0038166409
-2.4748291e-05
0.0064291491
-4.4255558e-05
0.009638243
-5.9502969e-05
0.012773035
-4.6197096e-05
0.015183558
1.4631258e-09
0.016492299
4.620001e-05
0.016492297
5.9505774e-05
0.015183552
4.4257838e-05
0.012773027
2.4749853e-05
0.009638237
1.2289656e-05
0.0064291455
5.8339502e-06
0.003816639
2.6617353e-06
0.0020560882
1.1358086e-06
0.0010212593
4.309456e-07
0.00046905486
1.3078728e-07
0.00019531308
2.2732484e-08
6.8367036e-05
1.3925913e-05
-1.3756841e-08
1.3939677e-05
-7.9223729e-08
6.8432544e-05
-2.6155075e-07
0.00019549553
-6.9186941e-07
0.00046948544
-1.6318854e-06
0.0010221999
-3.6164401e-06
0.0020580738
-7.7542104e-06
0.0038207788
-1.601525e-05
0.0064374101
-2.953463e-05
0.0096517623
-4.0900534e-05
0.012784401
-3.2396243e-05
0.015175054
1.7142362e-09
0.016459901
3.2399535e-05
0.016459899
4.0903535e-05
0.015175048
2.9536997e-05
0.012784394
1.6016867e-05
0.0096517571
7.7552182e-06
0.006437407
3.6169713e-06
0.0038207771
1.6321437e-06
0.0020580729
6.9198151e-07
0.0010221994
2.6159236e-07
0.0004694852
7.92359e-08
0.00019549542
1.3759187e-08
6.8432506e-05
1.3939668e-05
-8.1255244e-09
1.3947801e-05
-4.6856788e-08
6.8471274e-05
-1.5506232e-07
0.00019560373
-4.1192351e-07
0.00046974229
-9.7867403e-07
0.0010227666
-2.1951475e-06
0.0020592902
-4.795727e-06
0.0038233794
-1.0165067e-05
0.0064427794
-1.9331644e-05
0.0096609288
-2.7562025e-05
0.012792631
-2.2261572e-05
0.015169753
1.9035243e-09
0.016437638
2.226513e-05
0.016437636
2.7564995e-05
0.015169748
1.9333735e-05
0.012792625
1.0166267e-05
0.0096609247
4.7962845e-06
0.0064427772
2.1953589e-06
0.0038233782
9.7877363e-07
0.0020592896
4.1197433e-07
0.0010227663
1.5508492e-07
0.00046974213
4.6864641e-08
0.00019560366
8.1276691e-09
6.8471249e-05
1.3947796e-05
-4.685127e-09
1.3952486e-05
-2.7063657e-08
6.8493655e-05
-8.9816283e-08
0.00019566649
-2.3977143e-07
0.00046989226
-5.7437037e-07
0.0010231012
-1.3055888e-06
0.0020600213
-2.9101953e-06
0.0038249839
-6.3364202e-06
0.0064462057
-1.2428298e-05
0.0096670207
-1.8236813e-05
0.01279844
-1.5013919e-05
0.01516653
1.9206283e-09
0.016422622
1.5017513e-05
0.01642262
1.8239671e-05
0.015166526
1.2430145e-05
0.012798435
6.3373734e-06
0.0096670173
2.9105895e-06
0.0064462038
1.3057616e-06
0.0038249829
5.7447123e-07
0.0020600209
2.3981603e-07
0.0010231009
8.9830309e-08
0.00046989214
2.706636e-08
0.00019566644
4.6846946e-09
6.8493637e-05
1.3952482e-05
-2.6364244e-09
1.3955122e-05
-1.5261168e-08
6.8506281e-05
-5.0820531e-08
0.00019570205
-1.3645266e-07
0.00046997791
-3.2995748e-07
0.0010232947
-7.6124947e-07
0.0020604526
-1.7341928e-06
0.0038259568
-3.8833609e-06
0.0064483548
-7.8577956e-06
0.0096709951
-1.18636e-05
0.012802445
-9.9521066e-06
0.015164619
1.6703674e-09
0.016412668
9.9552065e-06
0.016412667
1.1865948e-05
0.015164615
7.8591807e-06
0.012802442
3.8840516e-06
0.0096709925
1.7345609e-06
0.0064483533
7.6151131e-07
0.0038259559
3.3013166e-07
0.0020604522
1.365379e-07
0.0010232945
5.0854094e-08
0.00046997779
1.5272083e-08
0.000195702
2.6392466e-09
6.8506262e-05
1.3955118e-05
-1.445228e-09
1.3956567e-05
-8.3892627e-09
6.8513226e-05
-2.8058383e-08
0.00019572172
-7.5870846e-08
0.00047002572
-1.8550902e-07
0.0010234044
-4.3525867e-07
0.0020607024
-1.0154673e-06
0.003826537
-2.3421133e-06
0.0064496815
-4.8911175e-06
0.0096735442
-7.5965719e-06
0.012805151
-6.4916057e-06
0.015163514
1.2064278e-09
0.016406175
6.4937883e-06
0.016406174
7.5980391e-06
0.015163511
4.8916837e-06
0.012805148
2.3421567e-06
0.009673542
1.0153923e-06
0.0064496801
4.3521498e-07
0.0038265362
1.8549324e-07
0.002060702
7.5867416e-08
0.0010234041
2.8059155e-08
0.00047002562
8.3903255e-09
0.00019572168
1.4460516e-09
6.851321e-05
1.3956564e-05
-7.6945791e-10
1.3957337e-05
-4.4844996e-09
6.8516944e-05
-1.5084809e-08
0.00019573233
-4.1155632e-08
0.0004700518
-1.0199788e-07
0.0010234652
-2.4404946e-07
0.0020608444
-5.8459459e-07
0.0038268775
-1.3912159e-06
0.0064504881
-3.0001945e-06
0.0096751531
-4.7929274e-06
0.012806944
-4.1714164e-06
0.015162892
5.4600902e-10
0.016402004
4.1722808e-06
0.016402002
4.7932224e-06
0.01516289
2.999883e-06
0.012806941
1.3906922e-06
0.0096751511
5.8417087e-07
0.0064504865
2.4378383e-07
0.0038268764
1.0186374e-07
0.0020608438
4.1103018e-08
0.0010234648
1.506768e-08
0.00047005163
4.4796809e-09
0.00019573226
7.6827207e-10
6.8516918e-05
1.3957332e-05
-3.96553e-10
1.3957735e-05
-2.3236424e-09
6.8518874e-05
-7.8740361e-09
0.00019573789
-2.1724515e-08
0.00047006565
-5.4746181e-08
0.0010234982
-1.3409313e-07
0.0020609237
-3.3094284e-07
0.0038270744
-8.1442474e-07
0.0064509715
-1.8150419e-06
0.0096761537
-2.9823823e-06
0.012808111
-2.6432523e-06
0.015162553
-2.0774048e-10
0.016399361
2.6426452e-06
0.01639936
2.9813744e-06
0.015162551
1.8137673e-06
0.012808109
8.1328001e-07
0.0096761515
3.3015353e-07
0.0064509696
1.3364566e-07
0.0038270729
5.4538794e-08
0.0020609229
2.1641767e-08
0.0010234978
7.8441861e-09
0.00047006543
2.3149451e-09
0.00019573779
3.9511489e-10
6.8518839e-05
1.3957727e-05
-1.9677322e-10
1.3957932e-05
-1.1612302e-09
6.8519839e-05
-3.9733263e-09
0.0001957407
-1.1121401e-08
0.00047007281
-2.8618575e-08
0.0010235157
-7.2121295e-08
0.0020609672
-1.8423228e-07
0.0038271864
-4.7014034e-07
0.0064512575
-1.0838143e-06
0.0096767674
-1.8317631e-06
0.012808859
-1.6531595e-06
0.015162375
-9.3446816e-10
0.016397708
1.6511858e-06
0.016397707
1.8296195e-06
0.015162373
1.0817722e-06
0.012808857
4.6856593e-07
0.0096767647
1.8323042e-07
0.0064512549
7.1580091e-08
0.0038271846
2.8367593e-08
0.0020609661
1.1015232e-08
0.0010235151
3.9329097e-09
0.00047007253
1.1487982e-09
0.00019574058
1.9437928e-10
6.8519796e-05
1.3957923e-05
-9.2949376e-11
1.3958024e-05
-5.5432852e-10
6.85203e-05
-1.9237639e-09
0.00019574207
-5.4942199e-09
0.00047007638
-1.4532073e-08
0.0010235247
-3.7935307e-08
0.0020609906
-1.0087426e-07
0.0038272494
-2.6782094e-07
0.0064514244
-6.3931394e-07
0.009677139
-1.1114262e-06
0.012809331
-1.0214326e-06
0.015162285
-1.571897e-09
0.016396688
1.0183174e-06
0.016396687
1.1084059e-06
0.015162282
6.367367e-07
0.012809328
2.660074e-07
0.0096771355
9.9799879e-08
0.0064514212
3.7382386e-08
0.0038272471
1.4280123e-08
0.0020609892
5.3895797e-09
0.001023524
1.8851775e-09
0.00047007603
5.4293662e-10
0.00019574192
9.1112305e-11
6.8520248e-05
1.3958014e-05
-4.0924669e-11
1.3958065e-05
-2.4852659e-10
6.8520508e-05
-8.8266748e-10
0.0001957427
-2.599917e-09
0.0004700781
-7.1468992e-09
0.0010235293
-1.9515806e-08
0.002061003
-5.4398575e-08
0.0038272843
-1.5076357e-07
0.0064515208
-3.729433e-07
0.0096773611
-6.6683461e-07
0.012809625
-6.241341e-07
0.015162242
-2.0909789e-09
0.016396066
6.2010171e-07
0.016396065
6.6316017e-07
0.015162239
3.7001391e-07
0.012809621
1.4881765e-07
0.0096773567
5.3287151e-08
0.0064515167
1.8939865e-08
0.0038272815
6.8687737e-09
0.0020610014
2.4746871e-09
0.0010235284
8.330701e-10
0.00047007769
2.330642e-10
0.00019574253
3.8270944e-11
6.8520445e-05
1.3958052e-05
-1.6144226e-11
1.3958081e-05
-1.0183461e-10
6.8520594e-05
-3.7720445e-10
0.00019574298
-1.1684444e-09
0.00047007889
-3.4009469e-09
0.0010235315
-9.8489683e-09
0.0020610094
-2.8985421e-08
0.0038273034
-8.4048916e-08
0.0064515758
-2.1546106e-07
0.0096774925
-3.9608249e-07
0.012809806
-3.7760518e-07
0.015162223
-2.4333091e-09
0.016395691
3.7294542e-07
0.01639569
3.9198674e-07
0.01516222
2.1235648e-07
0.012809801
8.2069947e-08
0.009677487
2.7892004e-08
0.0064515709
9.3076619e-09
0.0038273
3.1573327e-09
0.0020610074
1.0694264e-09
0.0010235305
3.4211669e-10
0.00047007839
9.2339625e-11
0.00019574276
1.5049161e-11
6.8520517e-05
1.3958066e-05
-5.0818379e-12
1.3958087e-05
-3.5472038e-11
6.8520625e-05
-1.4403761e-10
0.00019574309
-4.8948665e-10
0.00047007924
-1.5581685e-09
0.0010235326
-4.8830941e-09
0.0020610128
-1.5301855e-08
0.0038273138
-4.6497162e-08
0.006451607
-1.2345324e-07
0.0096775694
-2.3317855e-07
0.012809915
-2.2646239e-07
0.015162217
-2.5319887e-09
0.016395467
2.2161811e-07
0.016395466
2.2903323e-07
0.015162213
1.2043338e-07
0.01280991
4.4603268e-08
0.0096775628
1.4251911e-08
0.0064516012
4.3600668e-09
0.0038273099
1.3238157e-09
0.0020610105
3.948586e-10
0.0010235314
1.1058747e-10
0.00047007866
2.6578883e-11
0.00019574284
4.2029442e-12
6.8520536e-05
1.3958068e-05
-4.533963e-13
1.3958087e-05
-6.9243681e-12
6.8520632e-05
-4.0522537e-11
0.00019574313
-1.7606747e-10
0.00047007938
-6.657526e-10
0.0010235331
-2.3500754e-09
0.0020610144
-7.9635173e-09
0.0038273194
-2.5486459e-08
0.0064516245
-7.0148404e-08
0.009677614
-1.3611564e-07
0.012809981
-1.346975e-07
0.015162215
-2.3308186e-09
0.016395335
1.3025635e-07
0.016395333
1.3246014e-07
0.015162211
6.7668546e-08
0.012809974
2.403674e-08
0.0096776064
7.1977402e-09
0.006451618
1.9742865e-09
0.003827315
4.9253952e-10
0.0020610119
1.0005908e-10
0.0010235318
1.0699479e-11
0.00047007875
-2.6071497e-12
0.00019574286
-1.738183e-12
6.8520537e-05
1.3958068e-05
1.3886996e-12
1.3958086e-05
5.1514075e-12
6.8520627e-05
5.6140339e-12
0.00019574312
-2.8708458e-11
0.0004700794
-2.2344028e-10
0.0010235333
-1.0260363e-09
0.0020610152
-3.9682999e-09
0.0038273223
-1.3677291e-08
0.0064516341
-3.9346419e-08
0.0096776396
-7.8616538e-08
0.01281002
-7.9301264e-08
0.015162216
-1.7895088e-09
0.016395257
7.5941604e-08
0.016395255
7.6038646e-08
0.015162211
3.784127e-08
0.012810013
1.2992601e-08
0.0096776312
3.7198456e-09
0.0064516273
9.6076636e-10
0.0038273177
2.2173994e-10
0.0020610126
3.9612538e-11
0.0010235319
1.7538065e-12
0.00047007877
-2.30215e-12
0.00019574285
-9.1785884e-13
6.8520532e-05
1.3958066e-05
2.0989956e-12
1.3958083e-05
1.0520876e-11
6.8520617e-05
2.7916453e-11
0.0001957431
4.6858938e-11
0.00047007937
1.4110496e-11
0.0010235333
-2.9516405e-10
0.0020610155
-1.7163013e-09
0.0038273236
-6.9205583e-09
0.0064516392
-2.145093e-08
0.0096776541
-4.4575349e-08
0.012810043
-4.5873576e-08
0.015162217
-9.1307698e-10
0.016395212
4.4231731e-08
0.01639521
4.3604582e-08
0.015162211
2.1270677e-08
0.012810035
7.1658443e-09
0.0096776454
2.0047174e-09
0.0064516325
4.8637763e-10
0.0038273193
8.9580241e-11
0.0020610131
3.0078313e-12
0.0010235321
-7.5229346e-12
0.00047007881
-4.2409243e-12
0.00019574286
-1.1345951e-12
6.8520535e-05
1.3958067e-05
2.3190963e-12
1.3958081e-05
1.2956539e-11
6.8520605e-05
3.9769257e-11
0.00019574307
9.0889568e-11
0.00047007931
1.5946115e-10
0.0010235332
1.5184155e-10
0.0020610154
-3.7546601e-10
0.0038273241
-2.9498054e-09
0.0064516418
-1.0936557e-08
0.0096776621
-2.4337814e-08
0.012810057
-2.5601446e-08
0.015162218
1.9104868e-10
0.016395187
2.6109836e-08
0.016395184
2.5325574e-08
0.015162212
1.2306126e-08
0.012810048
4.2626559e-09
0.0096776534
1.318111e-09
0.0064516354
4.1115387e-10
0.0038273202
1.3351612e-10
0.0020610133
4.4190031e-11
0.0010235321
1.4149568e-11
0.00047007882
4.0750788e-12
0.00019574286
9.2935972e-13
6.8520533e-05
1.3958066e-05
2.4067175e-12
1.3958078e-05
1.4490097e-11
6.8520591e-05
4.806161e-11
0.00019574303
1.2288542e-10
0.00047007923
2.6482497e-10
0.001023533
4.6856417e-10
0.0020610152
5.1217496e-10
0.003827324
-5.1783001e-10
0.0064516428
-4.6574718e-09
0.0096776662
-1.223428e-08
0.012810065
-1.3263835e-08
0.015162219
1.2830336e-09
0.016395172
1.5877678e-08
0.01639517
1.5017239e-08
0.015162213
7.3164392e-09
0.012810056
2.6010353e-09
0.0096776581
8.3626735e-10
0.0064516372
2.6769527e-10
0.0038273208
8.3731331e-11
0.0020610135
2.3351157e-11
0.0010235322
5.4997885e-12
0.00047007884
1.3104442e-12
0.00019574287
5.435938e-13
6.8520534e-05
1.3958066e-05
2.306449e-12
1.3958075e-05
1.4415737e-11
6.8520579e-05
4.9834284e-11
0.000195743
1.3470452e-10
0.00047007914
3.1347588e-10
0.0010235329
6.2937632e-10
0.0020610149
1.0037303e-09
0.0038273237
8.8355878e-10
0.006451643
-1.0101276e-09
0.0096776682
-5.1146514e-09
0.012810069
-5.8528841e-09
0.01516222
2.143156e-09
0.016395164
1.0140099e-08
0.016395162
9.2342519e-09
0.015162214
4.5064835e-09
0.01281006
1.6455748e-09
0.0096776609
5.7050104e-10
0.0064516381
2.1713774e-10
0.003827321
9.028063e-11
0.0020610135
3.5734386e-11
0.0010235322
1.2297616e-11
0.00047007881
3.7770392e-12
0.00019574286
9.4430498e-13
6.8520529e-05
1.3958065e-05
2.5698309e-12
1.3958073e-05
1.5819123e-11
6.8520568e-05
5.4836101e-11
0.00019574296
1.5007173e-10
0.00047007907
3.544665e-10
0.0010235327
7.303546e-10
0.0020610146
1.2707718e-09
0.0038273233
1.6619235e-09
0.0064516428
1.0138893e-09
0.009677669
-1.0758707e-09
0.012810071
-1.6285796e-09
0.015162221
2.5329704e-09
0.01639516
6.6089838e-09
0.016395158
5.5532538e-09
0.015162215
2.5028584e-09
0.012810063
7.4567605e-10
0.0096776626
1.31335e-10
0.0064516387
-2.328485e-11
0.0038273211
-4.131698e-11
0.0020610135
-2.852401e-11
0.0010235321
-1.4084467e-11
0.00047007879
-4.8305552e-12
0.00019574284
-8.1904231e-13
6.8520523e-05
1.3958064e-05
2.44827e-12
1.3958071e-05
1.4595667e-11
6.8520559e-05
5.0161906e-11
0.00019574294
1.3805343e-10
0.000470079
3.298716e-10
0.0010235325
6.9188499e-10
0.0020610143
1.2514606e-09
0.0038273229
1.8454597e-09
0.0064516423
1.8801017e-09
0.0096776691
9.264935e-10
0.012810072
5.1435069e-10
0.015162221
2.4840786e-09
0.016395158
4.3209158e-09
0.016395156
3.1994713e-09
0.015162216
1.1665715e-09
0.012810065
1.0087929e-10
0.0096776635
-1.727592e-10
0.0064516388
-1.5106735e-10
0.0038273209
-8.560537e-11
0.0020610133
-4.1311757e-11
0.001023532
-1.7337323e-11
0.00047007874
-5.7871878e-12
0.00019574282
-1.3047726e-12
6.8520515e-05
1.3958062e-05
2.7607928e-12
1.3958069e-05
1.593592e-11
6.8520548e-05
5.3352323e-11
0.00019574291
1.4273404e-10
0.00047007893
3.2973312e-10
0.0010235324
6.698306e-10
0.0020610141
1.1999842e-09
0.0038273224
1.8455427e-09
0.0064516417
2.2152272e-09
0.0096776687
1.8276915e-09
0.012810072
1.4065213e-09
0.015162222
2.0553844e-09
0.016395157
2.4795561e-09
0.016395155
1.3173654e-09
0.015162217
-4.1555662e-11
0.012810067
-6.1039026e-10
0.009677664
-5.7482336e-10
0.0064516387
-3.7417206e-10
0.0038273207
-2.0108444e-10
0.0020610132
-9.2832705e-11
0.0010235319
-3.644299e-11
0.00047007869
-1.1406024e-11
0.0001957428
-2.2726259e-12
6.8520508e-05
1.395806e-05
3.1990719e-12
1.3958067e-05
1.8043887e-11
6.8520536e-05
5.8897531e-11
0.00019574287
1.5361781e-10
0.00047007885
3.4913938e-10
0.0010235322
7.0927653e-10
0.0020610137
1.2775228e-09
0.0038273219
1.9674583e-09
0.006451641
2.4569577e-09
0.0096776683
2.3012218e-09
0.012810072
1.7624846e-09
0.015162222
1.5504414e-09
0.016395157
1.0749235e-09
0.016395156
-1.1510187e-10
0.015162218
-1.0979664e-09
0.012810067
-1.2843543e-09
0.0096776642
-9.6697652e-10
0.0064516384
-5.6987757e-10
0.0038273204
-2.8806629e-10
0.0020610129
-1.2881843e-10
0.0010235318
-4.9959402e-11
0.00047007862
-1.5561496e-11
0.00019574277
-3.0323081e-12
6.8520497e-05
1.3958058e-05
1.0948056e-12
1.3958066e-05
6.8406879e-12
6.852053e-05
2.6157429e-11
0.00019574285
8.3205598e-11
0.00047007879
2.3108669e-10
0.0010235321
5.5328946e-10
0.0020610134
1.1125987e-09
0.0038273213
1.8634744e-09
0.0064516403
2.5545017e-09
0.0096776676
2.6331005e-09
0.012810072
1.9725166e-09
0.015162223
1.0841556e-09
0.016395158
-2.3701666e-11
0.016395157
-1.1958607e-09
0.015162219
-1.7406583e-09
0.012810068
-1.4951986e-09
0.009677664
-9.6087058e-10
0.0064516379
-4.9292385e-10
0.0038273199
-2.0628265e-10
0.0020610126
-7.2286356e-11
0.0010235317
-2.1364221e-11
0.00047007858
-5.0020628e-12
0.00019574275
-5.7957502e-13
6.8520493e-05
1.3958058e-05
1.1256277e-11
1.3958054e-05
6.3177227e-11
6.8520478e-05
1.9671416e-10
0.00019574272
4.6775586e-10
0.00047007852
9.3610908e-10
0.0010235316
1.6525079e-09
0.0020610127