/*--------------------------------*- C++ -*----------------------------------*\
| =========                 |                                                 |
| \\      /  F ield         | OpenFOAM: The Open Source CFD Toolbox           |
|  \\    /   O peration     | Version:  2406                                  |
|   \\  /    A nd           | Website:  www.openfoam.com                      |
|    \\/     M anipulation  |                                                 |
\*---------------------------------------------------------------------------*/
FoamFile
{
    version     2.0;
    format      ascii;
    arch        "LSB;label=32;scalar=64";
    class       volVectorField;
    location    "1";
    object      U;
}
// * * * * * * * * * * * * * * * * * * * * * * * * * * * * * * * * * * * * * //

dimensions      [0 1 -1 0 0 0 0];

internalField   nonuniform List<vector> 
1176
(
(0.019499169 5.7821937e-07 0)
(0.066694143 7.3785167e-06 0)
(0.13360929 3.6504986e-05 0)
(0.22728602 0.00010148166 0)
(0.35595384 0.00019961736 0)
(0.5277422 0.00029286624 0)
(0.74780303 0.00032275 0)
(1.0136191 0.00027902338 0)
(1.3093511 0.00020569432 0)
(1.6017337 0.00012794739 0)
(1.8421708 6.2362739e-05 0)
(1.9792894 1.7490679e-05 0)
(1.9792894 -1.7488925e-05 0)
(1.8421708 -6.2356041e-05 0)
(1.6017337 -0.0001279461 0)
(1.3093511 -0.00020570712 0)
(1.0136192 -0.00027903306 0)
(0.74780303 -0.00032275624 0)
(0.52774219 -0.0002928732 0)
(0.35595384 -0.00019961898 0)
(0.22728602 -0.00010148074 0)
(0.13360928 -3.6504337e-05 0)
(0.066694142 -7.3782307e-06 0)
(0.019499168 -5.781811e-07 0)
(0.0201942 -3.8515981e-06 0)
(0.068833614 -2.5336266e-05 0)
(0.13734962 -9.7777182e-05 0)
(0.23249606 -0.00024891188 0)
(0.36203566 -0.0004634086 0)
(0.53367415 -0.00063323475 0)
(0.75259932 -0.00060590105 0)
(1.016945 -0.00040177035 0)
(1.3116647 -0.00016661612 0)
(1.6035448 -2.5171572e-05 0)
(1.8437204 6.2650689e-06 0)
(1.9807759 -4.213704e-06 0)
(1.9807759 4.1940678e-06 0)
(1.8437204 -6.2761729e-06 0)
(1.6035448 2.516165e-05 0)
(1.3116647 0.00016659264 0)
(1.0169449 0.00040175255 0)
(0.75259932 0.00060589726 0)
(0.53367414 0.00063323386 0)
(0.36203565 0.00046340973 0)
(0.23249605 0.00024891261 0)
(0.13734962 9.7776558e-05 0)
(0.068833611 2.5335507e-05 0)
(0.020194199 3.8514434e-06 0)
(0.02003429 2.4757788e-06 0)
(0.068366504 1.5356458e-05 0)
(0.13659879 6.2526849e-05 0)
(0.23160756 0.0001630469 0)
(0.36131741 0.00032222232 0)
(0.53350535 0.00048447351 0)
(0.75325273 0.00054657704 0)
(1.0184843 0.00052005545 0)
(1.3135802 0.00022138936 0)
(1.6054713 -4.6186345e-05 0)
(1.8454928 -0.00020277278 0)
(1.9822553 -0.00012213205 0)
(1.9822553 0.00012210432 0)
(1.8454929 0.00020274231 0)
(1.6054713 4.6155269e-05 0)
(1.3135802 -0.00022141369 0)
(1.0184843 -0.00052006279 0)
(0.75325271 -0.00054657483 0)
(0.53350534 -0.00048447527 0)
(0.3613174 -0.00032222289 0)
(0.23160755 -0.00016304649 0)
(0.13659879 -6.2527391e-05 0)
(0.068366501 -1.5357388e-05 0)
(0.020034289 -2.475904e-06 0)
(0.019916475 2.9317695e-06 0)
(0.067968339 1.9091163e-05 0)
(0.13582765 8.3291056e-05 0)
(0.23039893 0.00023666468 0)
(0.35973853 0.0005396527 0)
(0.53190641 0.00099832293 0)
(0.75220508 0.0014298139 0)
(1.0182603 0.0013987393 0)
(1.3139158 0.00081315438 0)
(1.6057506 2.4762491e-07 0)
(1.8454315 -0.00034609099 0)
(1.9819931 -0.00018873912 0)
(1.9819931 0.0001886886 0)
(1.8454314 0.00034605016 0)
(1.6057506 -2.7322219e-07 0)
(1.3139158 -0.00081317591 0)
(1.0182602 -0.0013987412 0)
(0.75220507 -0.0014297924 0)
(0.53190641 -0.00099830504 0)
(0.35973852 -0.00053964427 0)
(0.23039893 -0.00023666018 0)
(0.13582765 -8.3289196e-05 0)
(0.067968339 -1.9090599e-05 0)
(0.019916475 -2.9316438e-06 0)
(0.019709573 4.3234768e-06 0)
(0.06729947 2.7580478e-05 0)
(0.13460003 0.00010942405 0)
(0.228601 0.00029233678 0)
(0.35756307 0.00060983747 0)
(0.5298871 0.0010290136 0)
(0.75111103 0.0013778425 0)
(1.0184463 0.0012636976 0)
(1.3149683 0.00048379903 0)
(1.6064885 -0.00071187952 0)
(1.8452088 -0.00116894 0)
(1.9811243 -0.00053536011 0)
(1.9811243 0.00053529914 0)
(1.8452088 0.0011688767 0)
(1.6064885 0.00071183072 0)
(1.3149682 -0.00048382406 0)
(1.0184462 -0.0012636932 0)
(0.75111101 -0.0013778198 0)
(0.52988712 -0.0010290026 0)
(0.35756308 -0.00060984006 0)
(0.228601 -0.00029233844 0)
(0.13460004 -0.00010942354 0)
(0.067299471 -2.7578768e-05 0)
(0.019709573 -4.3232855e-06 0)
(0.019468988 4.161601e-06 0)
(0.066567174 2.5807359e-05 0)
(0.13335954 8.6756053e-05 0)
(0.22699907 0.00020560771 0)
(0.3559927 0.00034509839 0)
(0.52892682 0.00034074443 0)
(0.75127868 -0.00010364014 0)
(1.0198458 -0.0010589317 0)
(1.3168925 -0.0021890188 0)
(1.6076821 -0.0031108965 0)
(1.8447543 -0.0030504336 0)
(1.9794762 -0.0012599226 0)
(1.9794762 0.0012598235 0)
(1.8447542 0.0030503416 0)
(1.607682 0.0031108354 0)
(1.3168924 0.0021890028 0)
(1.0198458 0.0010589351 0)
(0.75127867 0.00010364461 0)
(0.52892683 -0.00034074806 0)
(0.35599271 -0.00034510569 0)
(0.22699908 -0.00020560861 0)
(0.13335954 -8.6753235e-05 0)
(0.066567177 -2.5803286e-05 0)
(0.019468989 -4.1612744e-06 0)
(0.019325442 1.1682721e-06 0)
(0.066206886 5.8838937e-06 0)
(0.1329333 -1.2139039e-05 0)
(0.22686288 -9.2547437e-05 0)
(0.35672369 -0.00041943382 0)
(0.53109033 -0.0013367669 0)
(0.7547504 -0.0032712892 0)
(1.0233465 -0.0059845731 0)
(1.3190828 -0.0079707538 0)
(1.60806 -0.0080115311 0)
(1.8430507 -0.0063293899 0)
(1.976125 -0.0024532802 0)
(1.976125 0.0024531412 0)
(1.8430507 0.006329263 0)
(1.6080599 0.008011434 0)
(1.3190827 0.0079707007 0)
(1.0233464 0.0059845402 0)
(0.75475035 0.0032712703 0)
(0.5310903 0.0013367601 0)
(0.35672368 0.00041943017 0)
(0.22686288 9.2548899e-05 0)
(0.1329333 1.2142984e-05 0)
(0.066206887 -5.8789308e-06 0)
(0.019325443 -1.1679294e-06 0)
(0.019442113 -4.2275587e-06 0)
(0.06673752 -3.0028554e-05 0)
(0.13426857 -0.00017047936 0)
(0.22961553 -0.00055651694 0)
(0.36162125 -0.0015334316 0)
(0.53846671 -0.0036707234 0)
(0.76350592 -0.0075779562 0)
(1.0303886 -0.012785851 0)
(1.3215908 -0.016427352 0)
(1.6063004 -0.015758312 0)
(1.8385582 -0.011263444 0)
(1.9697015 -0.0042175123 0)
(1.9697015 0.0042173257 0)
(1.8385581 0.011263268 0)
(1.6063002 0.015758168 0)
(1.3215906 0.016427255 0)
(1.0303885 0.012785778 0)
(0.76350583 0.0075779021 0)
(0.53846665 0.0036706895 0)
(0.3616212 0.0015334101 0)
(0.2296155 0.00055650729 0)
(0.13426856 0.00017047826 0)
(0.066737515 3.0030764e-05 0)
(0.019442112 4.227599e-06 0)
(0.019901013 -1.0336144e-05 0)
(0.068400992 -7.0901042e-05 0)
(0.13776631 -0.00033980076 0)
(0.23577695 -0.0010421983 0)
(0.37127482 -0.0026740964 0)
(0.55175546 -0.006014702 0)
(0.77854588 -0.011898895 0)
(1.0423823 -0.019867904 0)
(1.3256037 -0.025973006 0)
(1.6021402 -0.025696853 0)
(1.8299348 -0.017813258 0)
(1.9588094 -0.0065608284 0)
(1.9588094 0.0065605927 0)
(1.8299346 0.017813045 0)
(1.60214 0.02569668 0)
(1.3256034 0.025972878 0)
(1.0423821 0.019867802 0)
(0.77854571 0.011898822 0)
(0.55175532 0.0060146621 0)
(0.37127472 0.0026740786 0)
(0.23577688 0.0010421918 0)
(0.13776627 0.00033980003 0)
(0.068400972 7.0902015e-05 0)
(0.019901008 1.0336087e-05 0)
(0.020676423 -1.5355253e-05 0)
(0.071089768 -0.00010479113 0)
(0.14318107 -0.0004728566 0)
(0.2449018 -0.0014188606 0)
(0.38501276 -0.0035422504 0)
(0.57017898 -0.0077755446 0)
(0.79941368 -0.015169833 0)
(1.0598267 -0.025529532 0)
(1.3325652 -0.034491081 0)
(1.5967889 -0.035543591 0)
(1.8167083 -0.025299211 0)
(1.9424561 -0.0092309645 0)
(1.942456 0.0092306844 0)
(1.8167081 0.025298977 0)
(1.5967886 0.035543404 0)
(1.3325649 0.034490931 0)
(1.0598264 0.025529419 0)
(0.79941342 0.015169752 0)
(0.57017875 0.0077754889 0)
(0.38501257 0.0035422178 0)
(0.24490167 0.0014188454 0)
(0.14318098 0.00047285125 0)
(0.071089726 0.00010478943 0)
(0.020676411 1.5354877e-05 0)
(0.021663907 -1.8286477e-05 0)
(0.07444975 -0.00012486403 0)
(0.14982215 -0.00054498015 0)
(0.25588088 -0.0016173025 0)
(0.40127981 -0.0039805669 0)
(0.59187149 -0.0086371638 0)
(0.82439938 -0.016795301 0)
(1.0819706 -0.028684165 0)
(1.3431605 -0.040269331 0)
(1.5919031 -0.043043163 0)
(1.7996099 -0.032315977 0)
(1.9204969 -0.011776537 0)
(1.9204968 0.011776227 0)
(1.7996096 0.03231572 0)
(1.5919028 0.043042953 0)
(1.3431601 0.040269164 0)
(1.0819702 0.028684054 0)
(0.824399 0.016795235 0)
(0.59187114 0.0086371271 0)
(0.40127954 0.0039805512 0)
(0.2558807 0.0016172966 0)
(0.14982203 0.00054497754 0)
(0.074449691 0.00012486251 0)
(0.02166389 1.8286198e-05 0)
(0.022739056 -1.9034009e-05 0)
(0.078066251 -0.00013021693 0)
(0.15688925 -0.000555118 0)
(0.26743096 -0.0016358598 0)
(0.41824874 -0.003989559 0)
(0.61453638 -0.0085992122 0)
(0.85115055 -0.016732243 0)
(1.1071907 -0.029067661 0)
(1.3571931 -0.042471541 0)
(1.5885552 -0.047150085 0)
(1.7803465 -0.037219065 0)
(1.893863 -0.013759306 0)
(1.8938629 0.013758986 0)
(1.7803462 0.037218778 0)
(1.5885548 0.04714985 0)
(1.3571926 0.04247136 0)
(1.1071902 0.029067545 0)
(0.85115007 0.016732171 0)
(0.61453597 0.0085991747 0)
(0.41824843 0.0039895466 0)
(0.26743075 0.0016358559 0)
(0.15688911 0.0005551157 0)
(0.078066181 0.00013021513 0)
(0.022739035 1.9033698e-05 0)
(0.02378721 -1.7891085e-05 0)
(0.081562119 -0.00012280929 0)
(0.16366503 -0.00051387067 0)
(0.2784192 -0.001508134 0)
(0.43431346 -0.0036582214 0)
(0.63606508 -0.00786205 0)
(0.87713192 -0.015345409 0)
(1.1333439 -0.027090018 0)
(1.3738797 -0.041094853 0)
(1.5870843 -0.047901006 0)
(1.7609205 -0.038991603 0)
(1.864385 -0.014824508 0)
(1.8643848 0.014824184 0)
(1.7609202 0.038991299 0)
(1.5870837 0.047900766 0)
(1.373879 0.041094701 0)
(1.1333432 0.027089938 0)
(0.87713128 0.015345362 0)
(0.63606457 0.0078620319 0)
(0.43431309 0.0036582196 0)
(0.27841896 0.0015081336 0)
(0.16366488 0.00051386935 0)
(0.08156204 0.00012280797 0)
(0.023787187 1.7890858e-05 0)
(0.024718249 -1.5362321e-05 0)
(0.084650438 -0.00010597268 0)
(0.16962415 -0.00043745402 0)
(0.28805242 -0.0012819145 0)
(0.44839809 -0.0031030014 0)
(0.65508213 -0.0066733526 0)
(0.90060004 -0.013104581 0)
(1.1581515 -0.023509115 0)
(1.3918867 -0.036836477 0)
(1.5874902 -0.045042314 0)
(1.7427005 -0.037818019 0)
(1.8346752 -0.014789823 0)
(1.8346751 0.014789497 0)
(1.7427001 0.037817739 0)
(1.5874895 0.045042098 0)
(1.391886 0.036836342 0)
(1.1581508 0.023509026 0)
(0.90059934 0.013104527 0)
(0.65508158 0.0066733326 0)
(0.44839768 0.003102995 0)
(0.28805213 0.0012819098 0)
(0.16962397 0.00043745106 0)
(0.084650343 0.00010597103 0)
(0.02471822 1.5362094e-05 0)
(0.025481107 -1.2250594e-05 0)
(0.087173429 -8.4992966e-05 0)
(0.17448399 -0.00034743027 0)
(0.29590883 -0.001018299 0)
(0.45992501 -0.0024650197 0)
(0.67080937 -0.00531649 0)
(0.9204705 -0.010527488 0)
(1.1801412 -0.019218373 0)
(1.4093621 -0.031032291 0)
(1.5900038 -0.039655237 0)
(1.7267392 -0.034532426 0)
(1.8067256 -0.013819765 0)
(1.8067255 0.01381945 0)
(1.7267388 0.03453217 0)
(1.5900031 0.03965506 0)
(1.4093612 0.031032179 0)
(1.1801403 0.019218307 0)
(0.92046969 0.010527456 0)
(0.67080874 0.0053164781 0)
(0.45992453 0.0024650103 0)
(0.29590848 0.0010182913 0)
(0.17448377 0.00034742624 0)
(0.087173313 8.4990807e-05 0)
(0.025481072 1.2250423e-05 0)
(0.026068561 -9.2331241e-06 0)
(0.089113326 -6.4430969e-05 0)
(0.17821948 -0.00026140971 0)
(0.30195727 -0.00076698909 0)
(0.46884492 -0.0018589349 0)
(0.68312462 -0.0040253954 0)
(0.93640432 -0.0080453161 0)
(1.1985491 -0.014958959 0)
(1.4251372 -0.024898051 0)
(1.5938355 -0.033094763 0)
(1.7135776 -0.029995259 0)
(1.7818193 -0.01223384 0)
(1.7818191 0.012233567 0)
(1.7135771 0.029995035 0)
(1.5938347 0.033094628 0)
(1.4251362 0.024897979 0)
(1.1985481 0.014958928 0)
(0.93640345 0.0080453089 0)
(0.68312393 0.0040253925 0)
(0.46884439 0.0018589277 0)
(0.3019569 0.00076698359 0)
(0.17821924 0.00026140726 0)
(0.0891132 6.442949e-05 0)
(0.026068522 9.2331147e-06 0)
(0.026499671 -6.6584494e-06 0)
(0.090535864 -4.6735249e-05 0)
(0.18095992 -0.00018843094 0)
(0.30640513 -0.00055368818 0)
(0.47544331 -0.0013444297 0)
(0.69234912 -0.0029248475 0)
(0.9486259 -0.0059026909 0)
(1.21326 -0.011179533 0)
(1.4386534 -0.019190311 0)
(1.5982408 -0.026480353 0)
(1.7032682 -0.024942392 0)
(1.7606559 -0.010351708 0)
(1.7606557 0.010351501 0)
(1.7032676 0.0249422 0)
(1.5982398 0.02648023 0)
(1.4386524 0.01919026 0)
(1.2132589 0.011179533 0)
(0.94862504 0.0059027069 0)
(0.69234843 0.0029248581 0)
(0.47544279 0.0013444316 0)
(0.30640476 0.00055368865 0)
(0.18095968 0.00018843131 0)
(0.090535739 4.6735062e-05 0)
(0.026499633 6.6586051e-06 0)
(0.026804133 -4.6310925e-06 0)
(0.09154007 -3.2693979e-05 0)
(0.18289588 -0.00013107775 0)
(0.30955574 -0.00038582734 0)
(0.48014645 -0.00093888339 0)
(0.69900806 -0.0020528574 0)
(0.95765806 -0.0041846447 0)
(1.2245692 -0.0080715703 0)
(1.4497322 -0.014283422 0)
(1.6026368 -0.020464936 0)
(1.6955211 -0.019960114 0)
(1.7433846 -0.0084287849 0)
(1.7433843 0.0084286836 0)
(1.6955204 0.019960012 0)
(1.6026358 0.020464874 0)
(1.449731 0.014283433 0)
(1.2245681 0.0080716071 0)
(0.95765718 0.0041846753 0)
(0.69900739 0.0020528694 0)
(0.48014595 0.00093888436 0)
(0.30955538 0.0003858273 0)
(0.18289565 0.0001310778 0)
(0.091539951 3.2693852e-05 0)
(0.026804096 4.6311771e-06 0)
(0.027012052 -3.117598e-06 0)
(0.092225742 -2.2139787e-05 0)
(0.18421911 -8.8312244e-05 0)
(0.31171575 -0.00026046776 0)
(0.48339215 -0.00063543786 0)
(0.70366317 -0.0013968891 0)
(0.96412041 -0.0028770612 0)
(1.2329731 -0.005651547 0)
(1.4584665 -0.010303549 0)
(1.6066621 -0.015323822 0)
(1.6898992 -0.015443833 0)
(1.7297751 -0.0066360097 0)
(1.7297749 0.0066360328 0)
(1.6898986 0.015443869 0)
(1.6066611 0.015323871 0)
(1.4584653 0.010303624 0)
(1.232972 0.0056516184 0)
(0.96411957 0.0028771094 0)
(0.70366253 0.001396911 0)
(0.48339167 0.00063544583 0)
(0.31171541 0.00026047131 0)
(0.18421889 8.8313357e-05 0)
(0.092225629 2.214042e-05 0)
(0.027012017 3.1176601e-06 0)
(0.027149715 -2.03626e-06 0)
(0.092679795 -1.4549696e-05 0)
(0.18509657 -5.7768099e-05 0)
(0.31315307 -0.00017077564 0)
(0.48556717 -0.00041784602 0)
(0.70682431 -0.00092392813 0)
(0.96861125 -0.0019235262 0)
(1.2390296 -0.0038487448 0)
(1.4651157 -0.007225909 0)
(1.6101165 -0.011150905 0)
(1.685949 -0.011597666 0)
(1.7193818 -0.005069184 0)
(1.7193816 0.0050693156 0)
(1.6859483 0.011597807 0)
(1.6101155 0.011151049 0)
(1.4651145 0.0072260374 0)
(1.2390286 0.0038488426 0)
(0.96861049 0.0019235882 0)
(0.70682373 0.00092395956 0)
(0.48556674 0.00041786072 0)
(0.31315277 0.00017078226 0)
(0.18509637 5.7770288e-05 0)
(0.092679691 1.4550749e-05 0)
(0.027149683 2.0363249e-06 0)
(0.027238295 -1.2932116e-06 0)
(0.092972087 -9.3005812e-06 0)
(0.18566241 -3.6768463e-05 0)
(0.31408357 -0.00010898385 0)
(0.48698589 -0.00026754801 0)
(0.70891474 -0.00059534844 0)
(0.97165059 -0.0012535394 0)
(1.2432758 -0.0025557405 0)
(1.4700213 -0.004939866 0)
(1.6129343 -0.0079065982 0)
(1.6832564 -0.00847873 0)
(1.711665 -0.0037681631 0)
(1.7116648 0.0037683842 0)
(1.6832557 0.0084789615 0)
(1.6129333 0.0079068246 0)
(1.4700202 0.0049400436 0)
(1.2432749 0.0025558627 0)
(0.97164991 0.0012536119 0)
(0.70891423 0.0005953856 0)
(0.48698551 0.00026756616 0)
(0.3140833 0.00010899201 0)
(0.18566224 3.6771382e-05 0)
(0.092971999 9.3016081e-06 0)
(0.027238268 1.2933198e-06 0)
(0.027293792 -7.9993684e-07 0)
(0.093155352 -5.7930553e-06 0)
(0.18601793 -2.28099e-05 0)
(0.31467076 -6.7813053e-05 0)
(0.48788848 -0.00016710717 0)
(0.71026387 -0.00037441961 0)
(0.97365865 -0.00079784661 0)
(1.2461797 -0.0016583778 0)
(1.4735408 -0.0032995024 0)
(1.615139 -0.0054754304 0)
(1.6814723 -0.0060499374 0)
(1.7060792 -0.0027326796 0)
(1.7060789 0.0027329606 0)
(1.6814716 0.0060502166 0)
(1.615138 0.0054756899 0)
(1.4735398 0.0032996922 0)
(1.2461789 0.0016584977 0)
(0.97365811 0.00079790887 0)
(0.71026347 0.00037444406 0)
(0.48788819 0.00016711397 0)
(0.31467055 6.781377e-05 0)
(0.18601779 2.2809474e-05 0)
(0.093155281 5.7926356e-06 0)
(0.02729377 7.9984133e-07 0)
(0.027327695 -4.8251749e-07 0)
(0.09326743 -3.5205249e-06 0)
(0.18623589 -1.380878e-05 0)
(0.31503253 -4.1193944e-05 0)
(0.48844948 -0.0001019493 0)
(0.71111516 -0.00023016345 0)
(0.97495642 -0.00049675355 0)
(1.2481211 -0.0010534054 0)
(1.4760029 -0.0021574688 0)
(1.6168039 -0.0037108599 0)
(1.6803212 -0.0042225537 0)
(1.7021281 -0.0019376244 0)
(1.7021279 0.0019379518 0)
(1.6803205 0.0042228619 0)
(1.616803 0.0037111319 0)
(1.476002 0.0021576642 0)
(1.2481205 0.0010535301 0)
(0.97495596 0.00049682434 0)
(0.71111483 0.00023019934 0)
(0.48844924 0.00010196616 0)
(0.31503236 4.1200774e-05 0)
(0.18623578 1.381095e-05 0)
(0.093267371 3.5211535e-06 0)
(0.027327677 4.8261887e-07 0)
(0.02734791 -2.8394315e-07 0)
(0.093334351 -2.0888766e-06 0)
(0.18636641 -8.1625699e-06 0)
(0.31525037 -2.4447277e-05 0)
(0.48879056 -6.0804398e-05 0)
(0.71164111 -0.00013843668 0)
(0.9757782 -0.00030293298 0)
(1.2493926 -0.00065598531 0)
(1.4776863 -0.0013833354 0)
(1.6180232 -0.0024655601 0)
(1.6795974 -0.0028880666 0)
(1.6993918 -0.0013458537 0)
(1.6993916 0.0013462155 0)
(1.6795968 0.0028883942 0)
(1.6180224 0.002465811 0)
(1.4776856 0.0013834941 0)
(1.2493921 0.00065606508 0)
(0.97577782 0.00030296567 0)
(0.71164084 0.00013844984 0)
(0.48879037 6.0811308e-05 0)
(0.31525024 2.4450644e-05 0)
(0.18636633 8.1640392e-06 0)
(0.09333431 2.0890481e-06 0)
(0.027347898 2.8399305e-07 0)
(0.027359677 -1.6297771e-07 0)
(0.093373375 -1.2103288e-06 0)
(0.18644279 -4.7116811e-06 0)
(0.31537865 -1.4177296e-05 0)
(0.48899357 -3.5464425e-05 0)
(0.7119596 -8.1516099e-05 0)
(0.97628876 -0.00018109582 0)
(1.2502095 -0.00040094377 0)
(1.4788137 -0.00087096962 0)
(1.6188922 -0.0016083877 0)
(1.6791535 -0.0019388161 0)
(1.6975331 -0.00091725638 0)
(1.6975329 0.00091762258 0)
(1.6791529 0.0019391471 0)
(1.6188916 0.0016086168 0)
(1.4788131 0.00087110107 0)
(1.2502091 0.00040100155 0)
(0.97628851 0.00018111937 0)
(0.71195944 8.1528448e-05 0)
(0.48899345 3.5471251e-05 0)
(0.31537857 1.418001e-05 0)
(0.18644274 4.7125635e-06 0)
(0.09337335 1.2100827e-06 0)
(0.02735967 1.6297063e-07 0)
(0.027366362 -9.1175727e-08 0)
(0.093395598 -6.8461987e-07 0)
(0.18648647 -2.6551548e-06 0)
(0.31545255 -8.0330263e-06 0)
(0.48911192 -2.0229843e-05 0)
(0.71214881 -4.7004711e-05 0)
(0.97660033 -0.00010619047 0)
(1.2507252 -0.00024074819 0)
(1.4795543 -0.00053911374 0)
(1.6194969 -0.0010314769 0)
(1.6788879 -0.0012792662 0)
(1.696293 -0.00061429454 0)
(1.6962928 0.00061461527 0)
(1.6788875 0.0012795464 0)
(1.6194963 0.0010316563 0)
(1.4795538 0.00053920823 0)
(1.2507248 0.00024079277 0)
(0.97660007 0.00010621892 0)
(0.71214863 4.7025656e-05 0)
(0.48911179 2.0242048e-05 0)
(0.31545246 8.038537e-06 0)
(0.18648642 2.657264e-06 0)
(0.093395571 6.8511293e-07 0)
(0.027366354 9.131748e-08 0)
(0.027370064 -4.9635531e-08 0)
(0.093407941 -3.7743004e-07 0)
(0.18651085 -1.4587239e-06 0)
(0.31549416 -4.4428392e-06 0)
(0.4891795 -1.1280077e-05 0)
(0.71225914 -2.6542007e-05 0)
(0.97678727 -6.1101389e-05 0)
(1.2510454 -0.00014212242 0)
(1.4800323 -0.00032839684 0)
(1.6199084 -0.0006510467 0)
(1.6787331 -0.0008306227 0)
(1.6954792 -0.00040477251 0)
(1.695479 0.00040500429 0)
(1.6787327 0.00083081392 0)
(1.619908 0.00065114256 0)
(1.4800319 0.0003284189 0)
(1.2510451 0.00014211502 0)
(0.97678709 6.109368e-05 0)
(0.71225902 2.65389e-05 0)
(0.48917942 1.1279245e-05 0)
(0.3154941 4.4428788e-06 0)
(0.18651082 1.458789e-06 0)
(0.093407922 3.7769028e-07 0)
(0.027370058 4.9682702e-08 0)
(0.027372059 -2.6229263e-08 0)
(0.093414618 -2.0230255e-07 0)
(0.18652413 -7.7940454e-07 0)
(0.31551706 -2.3939949e-06 0)
(0.48921729 -6.1407057e-06 0)
(0.7123223 -1.4669546e-05 0)
(0.97689762 -3.4504617e-05 0)
(1.2512411 -8.2537447e-05 0)
(1.4803358 -0.00019703404 0)
(1.6201831 -0.00040483964 0)
(1.6786452 -0.000531289 0)
(1.6949534 -0.00026272302 0)
(1.6949532 0.0002628283 0)
(1.6786449 0.00053135228 0)
(1.6201828 0.00040483488 0)
(1.4803355 0.00019698566 0)
(1.2512408 8.2486912e-05 0)
(0.97689738 3.4470254e-05 0)
(0.71232212 1.4650828e-05 0)
(0.48921716 6.132492e-06 0)
(0.31551696 2.3910267e-06 0)
(0.18652407 7.7848389e-07 0)
(0.093414589 2.0208863e-07 0)
(0.02737205 2.6167374e-08 0)
(0.027373102 -1.3382375e-08 0)
(0.093418128 -1.0513594e-07 0)
(0.18653116 -4.0357843e-07 0)
(0.31552935 -1.2531209e-06 0)
(0.48923798 -3.255914e-06 0)
(0.71235782 -7.92414e-06 0)
(0.97696175 -1.9117046e-05 0)
(1.251359 -4.717412e-05 0)
(1.4805255 -0.00011652785 0)
(1.6203632 -0.00024822985 0)
(1.6785968 -0.0003350849 0)
(1.6946185 -0.00016815252 0)
(1.6946184 0.0001681121 0)
(1.6785966 0.00033500984 0)
(1.6203629 0.00024811393 0)
(1.4805252 0.00011640215 0)
(1.2513587 4.7076728e-05 0)
(0.97696145 1.9057386e-05 0)
(0.71235757 7.8938177e-06 0)
(0.4892378 3.2430449e-06 0)
(0.31552922 1.2483434e-06 0)
(0.18653109 4.0192393e-07 0)
(0.093418088 1.0489741e-07 0)
(0.02737309 1.3314136e-08 0)
(0.027373627 -6.5340147e-09 0)
(0.093419909 -5.27025e-08 0)
(0.18653477 -2.0144697e-07 0)
(0.31553576 -6.3448514e-07 0)
(0.48924904 -1.6761926e-06 0)
(0.71237741 -4.1755278e-06 0)
(0.97699846 -1.0383818e-05 0)
(1.2514291 -2.6540786e-05 0)
(1.4806425 -6.797573e-05 0)
(1.6204792 -0.00015020277 0)
(1.678571 -0.00020857089 0)
(1.6944081 -0.00010623438 0)
(1.6944081 0.00010605513 0)
(1.6785708 0.00020837014 0)
(1.6204789 0.00014999251 0)
(1.4806421 6.7792856e-05 0)
(1.2514287 2.6414182e-05 0)
(0.97699805 1.0310982e-05 0)
(0.71237707 4.1393868e-06 0)
(0.48924879 1.660269e-06 0)
(0.31553559 6.2815782e-07 0)
(0.18653467 1.9918278e-07 0)
(0.093419853 5.2312009e-08 0)
(0.02737361 6.4498002e-09 0)
(0.02737388 -3.0101489e-09 0)
(0.093420776 -2.521025e-08 0)
(0.18653656 -9.6053671e-08 0)
(0.31553901 -3.0872264e-07 0)
(0.48925481 -8.3427861e-07 0)
(0.71238802 -2.1416594e-06 0)
(0.97701917 -5.5272077e-06 0)
(1.2514702 -1.4705732e-05 0)
(1.4807136 -3.914299e-05 0)
(1.6205528 -8.9766344e-05 0)
(1.6785578 -0.00012823131 0)
(1.6942777 -6.631971e-05 0)
(1.6942776 6.601985e-05 0)
(1.6785576 0.00012792996 0)
(1.6205525 8.9485414e-05 0)
(1.4807132 3.8924302e-05 0)
(1.2514696 1.4566371e-05 0)
(0.97701864 5.4512204e-06 0)
(0.7123876 2.105168e-06 0)
(0.4892545 8.1855908e-07 0)
(0.3155388 3.0265945e-07 0)
(0.18653643 9.4139761e-08 0)
(0.093420713 2.4685153e-08 0)
(0.027373861 2.9397123e-09 0)
(0.027373994 -1.2806382e-09 0)
(0.093421175 -1.1273069e-08 0)
(0.1865374 -4.3047714e-08 0)
(0.31554059 -1.4276484e-07 0)
(0.48925774 -3.9911091e-07 0)
(0.71239366 -1.0674941e-06 0)
(0.97703069 -2.8849225e-06 0)
(1.251494 -8.0359542e-06 0)
(1.4807564 -2.2277643e-05 0)
(1.6205989 -5.3038076e-05 0)
(1.6785514 -7.794619e-05 0)
(1.6941978 -4.0959542e-05 0)
(1.6941977 4.0562276e-05 0)
(1.6785512 7.7563768e-05 0)
(1.6205985 5.2708237e-05 0)
(1.4807557 2.2037808e-05 0)
(1.2514933 7.8906189e-06 0)
(0.97703004 2.8070843e-06 0)
(0.71239315 1.0287702e-06 0)
(0.48925737 3.8117218e-07 0)
(0.31554034 1.3512716e-07 0)
(0.18653725 4.0316809e-08 0)
(0.093421097 1.0643713e-08 0)
(0.027373971 1.1942182e-09 0)
(0.027374041 -4.7542812e-10 0)
(0.093421346 -4.5600186e-09 0)
(0.18653778 -1.7669659e-08 0)
(0.31554133 -6.1841465e-08 0)
(0.48925919 -1.8254366e-07 0)
(0.71239662 -5.1739849e-07 0)
(0.97703703 -1.4817062e-06 0)
(1.2515076 -4.3436426e-06 0)
(1.4807817 -1.2554744e-05 0)
(1.6206273 -3.1019146e-05 0)
(1.6785486 -4.689634e-05 0)
(1.6941494 -2.5059798e-05 0)
(1.6941493 2.4598045e-05 0)
(1.6785483 4.6456744e-05 0)
(1.6206268 3.0662295e-05 0)
(1.4807809 1.2306578e-05 0)
(1.2515067 4.199405e-06 0)
(0.97703623 1.4075464e-06 0)
(0.71239599 4.8246445e-07 0)
(0.48925873 1.6746363e-07 0)
(0.31554103 5.6175247e-08 0)
(0.18653759 1.5810206e-08 0)
(0.093421249 4.4103166e-09 0)
(0.027374013 4.4593291e-10 0)
(0.027374058 -1.2102933e-10 0)
(0.093421412 -1.5366222e-09 0)
(0.18653793 -6.1583725e-09 0)
(0.31554167 -2.4214282e-08 0)
(0.48925989 -7.8677507e-08 0)
(0.71239815 -2.4361215e-07 0)
(0.97704048 -7.5077517e-07 0)
(1.2515154 -2.328477e-06 0)
(1.4807966 -7.018841e-06 0)
(1.6206447 -1.7979442e-05 0)
(1.6785475 -2.7957692e-05 0)
(1.6941204 -1.520734e-05 0)
(1.6941203 1.4725628e-05 0)
(1.6785471 2.7502407e-05 0)
(1.620644 1.7627746e-05 0)
(1.4807957 6.780518e-06 0)
(1.2515143 2.1904783e-06 0)
(0.97703954 6.7885897e-07 0)
(0.7123974 2.0970948e-07 0)
(0.48925935 6.4277766e-08 0)
(0.3155413 1.876703e-08 0)
(0.18653771 4.4937978e-09 0)
(0.0934213 1.1855838e-09 0)
(0.027374025 4.5127562e-11 0)
(0.027374062 2.3141944e-11 0)
(0.093421432 -2.687359e-10 0)
(0.18653799 -1.1951604e-09 0)
(0.31554181 -7.3690759e-09 0)
(0.48926022 -3.0032128e-08 0)
(0.71239892 -1.0859952e-07 0)
(0.97704235 -3.7130841e-07 0)
(1.2515197 -1.2334732e-06 0)
(1.4808053 -3.8901821e-06 0)
(1.6206551 -1.0331483e-05 0)
(1.6785472 -1.6523465e-05 0)
(1.6941032 -9.1564167e-06 0)
(1.6941031 8.7114434e-06 0)
(1.6785467 1.6110127e-05 0)
(1.6206543 1.0032462e-05 0)
(1.4808042 3.7012831e-06 0)
(1.2515185 1.1313218e-06 0)
(0.97704128 3.2022813e-07 0)
(0.71239808 8.4288621e-08 0)
(0.4892596 1.9173034e-08 0)
(0.31554139 2.8277091e-09 0)
(0.18653773 -4.5289551e-10 0)
(0.093421302 -1.0713229e-10 0)
(0.027374024 -7.5738649e-11 0)
(0.027374061 7.5454702e-11 0)
(0.09342143 2.2834413e-10 0)
(0.186538 9.1996033e-10 0)
(0.31554185 2.6734941e-10 0)
(0.48926035 -6.9134647e-09 0)
(0.7123993 -4.0199229e-08 0)
(0.97704333 -1.7026735e-07 0)
(1.2515221 -6.3150259e-07 0)
(1.4808103 -2.1199545e-06 0)
(1.6206614 -5.8694356e-06 0)
(1.6785472 -9.6652765e-06 0)
(1.6940931 -5.4554838e-06 0)
(1.6940929 5.1115746e-06 0)
(1.6785467 9.3610447e-06 0)
(1.6206604 5.6707718e-06 0)
(1.480809 2.0173975e-06 0)
(1.2515208 5.9206513e-07 0)
(0.97704218 1.5857771e-07 0)
(0.7123984 3.890011e-08 0)
(0.48925971 7.8694593e-09 0)
(0.31554142 7.3821232e-10 0)
(0.18653774 -3.6949988e-10 0)
(0.093421298 -1.5016059e-10 0)
(0.027374022 -6.4254959e-11 0)
(0.027374057 9.2198731e-11 0)
(0.093421419 4.1283658e-10 0)
(0.18653798 1.8706289e-09 0)
(0.31554184 4.0227639e-09 0)
(0.48926039 5.4654799e-09 0)
(0.71239945 -3.5661405e-09 0)
(0.97704382 -5.7475883e-08 0)
(1.2515235 -2.8951162e-07 0)
(1.4808131 -1.1052838e-06 0)
(1.6206651 -3.2628301e-06 0)
(1.6785473 -5.5622111e-06 0)
(1.6940872 -3.1841181e-06 0)
(1.694087 3.0050994e-06 0)
(1.6785467 5.4262679e-06 0)
(1.620664 3.206705e-06 0)
(1.4808118 1.1144232e-06 0)
(1.2515221 3.2184305e-07 0)
(0.97704268 8.3262325e-08 0)
(0.71239858 1.7798447e-08 0)
(0.48925977 1.9320262e-09 0)
(0.31554144 -7.8643861e-10 0)
(0.18653774 -7.0509764e-10 0)
(0.093421297 -2.430914e-10 0)
(0.027374021 -5.6387159e-11 0)
(0.027374051 9.2904461e-11 0)
(0.093421403 4.8217565e-10 0)
(0.18653796 2.3261216e-09 0)
(0.31554181 6.0303307e-09 0)
(0.48926036 1.2703427e-08 0)
(0.71239948 2.0218815e-08 0)
(0.97704402 9.6473664e-09 0)
(1.2515241 -8.6381354e-08 0)
(1.4808147 -5.1140403e-07 0)
(1.6206672 -1.7303006e-06 0)
(1.6785475 -3.1019947e-06 0)
(1.6940839 -1.7772481e-06 0)
(1.6940836 1.807238e-06 0)
(1.6785468 3.1734983e-06 0)
(1.6206661 1.8452499e-06 0)
(1.4808133 6.4965752e-07 0)
(1.2515228 2.0219187e-07 0)
(0.97704296 6.3392441e-08 0)
(0.71239868 2.0832778e-08 0)
(0.48925981 6.9877032e-09 0)
(0.31554145 2.2753036e-09 0)
(0.18653774 6.4968705e-10 0)
(0.093421296 2.4792589e-10 0)
(0.02737402 2.6565799e-11 0)
(0.027374046 8.8104784e-11 0)
(0.093421385 5.4102726e-10 0)
(0.18653792 2.613456e-09 0)
(0.31554176 7.5137102e-09 0)
(0.4892603 1.7993505e-08 0)
(0.71239942 3.6712995e-08 0)
(0.97704406 5.875709e-08 0)
(1.2515244 4.2042055e-08 0)
(1.4808155 -1.531098e-07 0)
(1.6206685 -8.1932352e-07 0)
(1.6785476 -1.6239042e-06 0)
(1.6940819 -9.0241483e-07 0)
(1.6940817 1.1417002e-06 0)
(1.6785469 1.8910952e-06 0)
(1.6206673 1.0855496e-06 0)
(1.4808143 3.9278699e-07 0)
(1.2515233 1.279502e-07 0)
(0.97704314 4.1597966e-08 0)
(0.71239876 1.3508213e-08 0)
(0.48925984 3.9458366e-09 0)
(0.31554146 9.4826514e-10 0)
(0.18653775 7.8529277e-11 0)
(0.093421299 2.0322804e-10 0)
(0.027374021 -1.8272756e-11 0)
(0.02737404 7.4710071e-11 0)
(0.093421366 5.7300867e-10 0)
(0.18653789 2.5767062e-09 0)
(0.3155417 7.9255669e-09 0)
(0.48926021 2.0088199e-08 0)
(0.71239932 4.4656864e-08 0)
(0.97704399 8.4698219e-08 0)
(1.2515245 1.1428948e-07 0)
(1.480816 5.4073494e-08 0)
(1.6206692 -2.8819913e-07 0)
(1.6785478 -7.4868977e-07 0)
(1.6940809 -3.65466e-07 0)
(1.6940806 7.7285883e-07 0)
(1.678547 1.1660663e-06 0)
(1.6206681 6.6410839e-07 0)
(1.4808148 2.4615146e-07 0)
(1.2515235 8.3958387e-08 0)
(0.97704323 3.0907664e-08 0)
(0.71239879 1.2845712e-08 0)
(0.48925985 5.2499176e-09 0)
(0.31554146 1.9443134e-09 0)
(0.18653774 4.5889133e-10 0)
(0.093421294 4.1095347e-10 0)
(0.027374019 -1.5486567e-11 0)
(0.027374036 7.5319738e-11 0)
(0.093421352 6.9984532e-10 0)
(0.18653786 2.7822988e-09 0)
(0.31554165 8.7955228e-09 0)
(0.48926014 2.2541372e-08 0)
(0.71239923 5.0376209e-08 0)
(0.9770439 9.7878252e-08 0)
(1.2515245 1.5612929e-07 0)
(1.4808162 1.6609581e-07 0)
(1.6206695 1.0262308e-08 0)
(1.6785478 -2.477999e-07 0)
(1.6940803 -6.4267077e-08 0)
(1.6940801 5.5152815e-07 0)
(1.6785471 7.1480812e-07 0)
(1.6206685 3.8523247e-07 0)
(1.4808151 1.2471803e-07 0)
(1.2515237 2.7138369e-08 0)
(0.97704328 8.2262583e-10 0)
(0.7123988 -4.6212298e-09 0)
(0.48925984 -3.8633789e-09 0)
(0.31554145 -2.1348618e-09 0)
(0.18653773 -1.0099253e-09 0)
(0.093421289 -1.2166205e-11 0)
(0.027374017 -7.6181606e-11 0)
(0.027374031 6.7233954e-11 0)
(0.093421335 7.1177023e-10 0)
(0.18653782 2.512456e-09 0)
(0.31554159 8.0550472e-09 0)
(0.48926004 2.078151e-08 0)
(0.7123991 4.6989425e-08 0)
(0.97704376 9.2900203e-08 0)
(1.2515244 1.5741793e-07 0)
(1.4808162 2.0398131e-07 0)
(1.6206697 1.495072e-07 0)
(1.6785479 1.0016394e-08 0)
(1.69408 8.5377207e-08 0)
(1.6940798 3.9467299e-07 0)
(1.6785472 4.3401347e-07 0)
(1.6206688 2.0460022e-07 0)
(1.4808153 3.9163051e-08 0)
(1.2515237 -1.4029979e-08 0)
(0.97704326 -1.9865956e-08 0)
(0.71239875 -1.190891e-08 0)
(0.48925979 -5.912699e-09 0)
(0.31554141 -2.6135282e-09 0)
(0.18653771 -1.1160259e-09 0)
(0.093421275 -7.3833009e-11 0)
(0.027374013 -7.9666092e-11 0)
(0.027374029 7.6279988e-11 0)
(0.093421328 7.9504812e-10 0)
(0.18653781 2.7268835e-09 0)
(0.31554156 8.5051531e-09 0)
(0.48926 2.1225769e-08 0)
(0.71239905 4.630927e-08 0)
(0.97704369 8.8841413e-08 0)
(1.2515244 1.5012003e-07 0)
(1.4808162 2.1190064e-07 0)
(1.6206698 2.0950567e-07 0)