/*--------------------------------*- C++ -*----------------------------------*\
  =========                 |
  \\      /  F ield         | OpenFOAM: The Open Source CFD Toolbox
   \\    /   O peration     | Website:  https://openfoam.org
    \\  /    A nd           | Version:  10
     \\/     M anipulation  |
\*---------------------------------------------------------------------------*/
FoamFile
{
    format      ascii;
    class       volScalarField;
    location    "48.5";
    object      ddt0(T);
}
// * * * * * * * * * * * * * * * * * * * * * * * * * * * * * * * * * * * * * //

dimensions      [0 0 -1 1 0 0 0];

internalField   nonuniform List<scalar> 
10000
(
225.625
-4.85203
35.0131
32.3394
32.2392
32.2902
32.2916
32.2912
32.2918
32.2925
32.293
32.2936
32.2942
32.2947
32.2953
32.2958
32.2963
32.2969
32.2974
32.2979
32.2985
32.299
32.2995
32.3
32.3005
32.301
32.3015
32.302
32.3025
32.303
32.3035
32.304
32.3045
32.305
32.3054
32.3059
32.3063
32.3068
32.3072
32.3077
32.3081
32.3086
32.309
32.3094
32.3098
32.3102
32.3106
32.311
32.3114
32.3118
32.3122
32.3126
32.3129
32.3133
32.3136
32.314
32.3143
32.3146
32.315
32.3153
32.3156
32.3159
32.3162
32.3165
32.3167
32.317
32.3173
32.3175
32.3178
32.318
32.3183
32.3185
32.3187
32.3189
32.3191
32.3193
32.3195
32.3197
32.3199
32.32
32.3202
32.3203
32.3205
32.3206
32.3207
32.3209
32.321
32.3211
32.3212
32.3212
32.3213
32.3214
32.3215
32.3215
32.3211
32.3181
32.3385
32.7479
31.2808
21.0965
3.39564
-33.3949
-8.81878
-14.5671
-14.3624
-14.2479
-14.2526
-14.2546
-14.253
-14.2512
-14.2496
-14.2479
-14.2463
-14.2447
-14.2431
-14.2414
-14.2398
-14.2382
-14.2366
-14.2351
-14.2335
-14.2319
-14.2304
-14.2288
-14.2273
-14.2257
-14.2242
-14.2227
-14.2212
-14.2198
-14.2183
-14.2168
-14.2154
-14.214
-14.2126
-14.2112
-14.2098
-14.2084
-14.2071
-14.2058
-14.2045
-14.2032
-14.2019
-14.2006
-14.1994
-14.1981
-14.1969
-14.1958
-14.1946
-14.1934
-14.1923
-14.1912
-14.1901
-14.189
-14.188
-14.1869
-14.1859
-14.1849
-14.184
-14.183
-14.1821
-14.1812
-14.1803
-14.1794
-14.1786
-14.1778
-14.177
-14.1762
-14.1755
-14.1747
-14.174
-14.1733
-14.1727
-14.1721
-14.1714
-14.1708
-14.1703
-14.1697
-14.1692
-14.1687
-14.1683
-14.1678
-14.1674
-14.167
-14.1666
-14.1663
-14.1659
-14.1656
-14.1654
-14.1651
-14.1649
-14.1647
-14.1645
-14.1642
-14.1641
-14.1698
-14.1883
-13.9996
-14.3584
-8.87219
39.074
-11.4887
8.92542
3.58127
3.96897
4.09035
4.08235
4.081
4.08379
4.08669
4.08945
4.09218
4.09491
4.09763
4.10034
4.10303
4.10572
4.10839
4.11105
4.11369
4.11632
4.11893
4.12153
4.1241
4.12666
4.12921
4.13173
4.13423
4.13671
4.13917
4.14161
4.14403
4.14642
4.14879
4.15114
4.15346
4.15575
4.15802
4.16027
4.16248
4.16467
4.16683
4.16896
4.17107
4.17314
4.17518
4.17719
4.17918
4.18113
4.18305
4.18493
4.18679
4.18861
4.19039
4.19215
4.19387
4.19555
4.19721
4.19882
4.2004
4.20195
4.20346
4.20493
4.20637
4.20776
4.20913
4.21045
4.21174
4.21299
4.2142
4.21538
4.21651
4.21761
4.21867
4.21969
4.22067
4.22162
4.22252
4.22338
4.22421
4.22499
4.22574
4.22644
4.22711
4.22773
4.22832
4.22886
4.22937
4.22983
4.23026
4.23064
4.23098
4.2313
4.23172
4.23225
4.22763
4.19993
4.27089
3.80044
2.99579
36.9458
-16.5527
4.223
-0.901428
-0.496864
-0.382111
-0.391084
-0.39144
-0.387495
-0.383485
-0.379626
-0.3758
-0.371985
-0.368182
-0.364395
-0.360623
-0.356869
-0.353133
-0.349415
-0.345718
-0.342041
-0.338387
-0.334755
-0.331148
-0.327565
-0.324009
-0.320479
-0.316977
-0.313504
-0.31006
-0.306647
-0.303265
-0.299915
-0.296599
-0.293316
-0.290068
-0.286856
-0.283679
-0.28054
-0.277439
-0.274376
-0.271353
-0.268369
-0.265427
-0.262525
-0.259666
-0.256849
-0.254075
-0.251345
-0.24866
-0.24602
-0.243425
-0.240876
-0.238374
-0.23592
-0.233512
-0.231153
-0.228843
-0.226581
-0.224369
-0.222207
-0.220095
-0.218034
-0.216023
-0.214065
-0.212157
-0.210302
-0.2085
-0.20675
-0.205053
-0.203409
-0.201819
-0.200282
-0.1988
-0.197372
-0.195998
-0.194679
-0.193415
-0.192206
-0.191052
-0.189954
-0.188912
-0.187925
-0.186994
-0.186118
-0.1853
-0.184537
-0.183831
-0.183181
-0.182587
-0.182052
-0.181577
-0.181148
-0.180576
-0.179155
-0.178001
-0.186993
-0.128795
-0.0353863
-0.163902
36.8601
-16.3872
4.56117
-0.545543
-0.147699
-0.0348476
-0.0430261
-0.0422115
-0.0371373
-0.0320257
-0.0270714
-0.0221533
-0.0172495
-0.0123622
-0.00749374
-0.00264572
0.00218051
0.00698363
0.0117623
0.0165152
0.021241
0.0259384
0.0306062
0.0352432
0.039848
0.0444195
0.0489564
0.0534576
0.0579219
0.0623481
0.0667352
0.0710818
0.0753871
0.0796498
0.083869
0.0880435
0.0921724
0.0962546
0.100289
0.104275
0.108212
0.112097
0.115932
0.119714
0.123443
0.127119
0.130739
0.134304
0.137812
0.141263
0.144657
0.147992
0.151267
0.154483
0.157638
0.160732
0.163764
0.166734
0.16964
0.172483
0.175262
0.177977
0.180626
0.18321
0.185727
0.188178
0.190563
0.19288
0.195129
0.19731
0.199422
0.201466
0.203441
0.205346
0.207182
0.208947
0.210642
0.212267
0.213821
0.215303
0.216715
0.218055
0.219324
0.22052
0.221645
0.222698
0.223678
0.224586
0.225421
0.226184
0.226873
0.22748
0.227984
0.228425
0.229204
0.229937
0.221977
0.220715
0.238627
0.261205
36.9029
-16.2876
4.66839
-0.44429
-0.0482964
0.0652339
0.058227
0.0601892
0.0663727
0.072582
0.0786302
0.0846389
0.0906299
0.0966004
0.102548
0.10847
0.114366
0.120234
0.126071
0.131877
0.137651
0.143389
0.149091
0.154756
0.160381
0.165966
0.171509
0.177007
0.182461
0.187868
0.193228
0.198538
0.203797
0.209005
0.214159
0.219259
0.224303
0.22929
0.234219
0.239088
0.243897
0.248644
0.253329
0.257949
0.262505
0.266995
0.271418
0.275773
0.280059
0.284275
0.28842
0.292495
0.296496
0.300425
0.304279
0.308059
0.311763
0.315391
0.318941
0.322415
0.32581
0.329126
0.332362
0.335518
0.338594
0.341588
0.344501
0.347332
0.350079
0.352744
0.355325
0.357821
0.360234
0.362561
0.364804
0.36696
0.369031
0.371016
0.372914
0.374726
0.37645
0.378087
0.379637
0.381099
0.382473
0.383759
0.384956
0.386066
0.387086
0.388019
0.388863
0.389615
0.390259
0.390788
0.391467
0.392789
0.391688
0.388947
0.386075
0.392423
36.904
-16.2913
4.66192
-0.451623
-0.0548423
0.059856
0.0540017
0.0570774
0.0643602
0.0716645
0.0788049
0.0859027
0.0929791
0.100031
0.107056
0.114051
0.121015
0.127945
0.13484
0.141698
0.148517
0.155295
0.162031
0.168721
0.175366
0.181962
0.188509
0.195004
0.201445
0.207832
0.214162
0.220434
0.226647
0.232798
0.238886
0.244909
0.250867
0.256757
0.262579
0.26833
0.27401
0.279618
0.285151
0.290608
0.295989
0.301292
0.306516
0.31166
0.316723
0.321703
0.326599
0.331411
0.336138
0.340778
0.345331
0.349795
0.35417
0.358455
0.362649
0.366751
0.370761
0.374678
0.378501
0.382229
0.385862
0.389399
0.392839
0.396182
0.399427
0.402575
0.405623
0.408572
0.411422
0.414171
0.416819
0.419367
0.421813
0.424157
0.426399
0.428539
0.430576
0.432509
0.43434
0.436067
0.437689
0.439208
0.440623
0.441933
0.443138
0.444239
0.445236
0.446128
0.446905
0.447537
0.448089
0.448941
0.449579
0.449758
0.448291
0.449361
36.9037
-16.2927
4.66109
-0.451457
-0.0535132
0.062331
0.0575902
0.0617658
0.0701442
0.0785416
0.0867722
0.0949571
0.103117
0.111249
0.119349
0.127415
0.135445
0.143436
0.151387
0.159295
0.167157
0.174973
0.182739
0.190454
0.198116
0.205722
0.213271
0.22076
0.228188
0.235552
0.242852
0.250084
0.257247
0.26434
0.27136
0.278305
0.285175
0.291967
0.29868
0.305312
0.311862
0.318327
0.324707
0.331
0.337205
0.34332
0.349344
0.355275
0.361112
0.366855
0.372501
0.37805
0.3835
0.38885
0.3941
0.399248
0.404292
0.409233
0.41407
0.4188
0.423424
0.42794
0.432348
0.436647
0.440836
0.444914
0.448881
0.452736
0.456478
0.460107
0.463622
0.467023
0.470308
0.473478
0.476532
0.47947
0.482291
0.484994
0.487579
0.490046
0.492395
0.494625
0.496735
0.498726
0.500598
0.502349
0.50398
0.505491
0.506881
0.50815
0.509299
0.510328
0.511235
0.512001
0.512609
0.51318
0.513743
0.514466
0.513411
0.514802
36.9043
-16.2911
4.66388
-0.447524
-0.0484536
0.0684998
0.0648583
0.0701296
0.0796014
0.0890897
0.0984084
0.107678
0.116919
0.126128
0.135301
0.144436
0.153529
0.162579
0.171583
0.180539
0.189443
0.198294
0.20709
0.215827
0.224504
0.233117
0.241666
0.250147
0.258559
0.266899
0.275166
0.283356
0.291468
0.2995
0.30745
0.315316
0.323096
0.330788
0.33839
0.345901
0.353318
0.36064
0.367865
0.374992
0.382019
0.388944
0.395766
0.402483
0.409093
0.415597
0.421991
0.428275
0.434447
0.440506
0.446451
0.452281
0.457994
0.46359
0.469066
0.474424
0.47966
0.484775
0.489766
0.494635
0.499379
0.503997
0.50849
0.512855
0.517093
0.521203
0.525184
0.529035
0.532756
0.536346
0.539805
0.543131
0.546325
0.549387
0.552315
0.555109
0.557768
0.560294
0.562684
0.564939
0.567058
0.569042
0.570889
0.5726
0.574174
0.575611
0.576911
0.578075
0.579104
0.579993
0.580722
0.581296
0.58177
0.582703
0.581106
0.583245
36.9049
-16.2894
4.66675
-0.443534
-0.0433616
0.0746896
0.0721432
0.0785077
0.0890704
0.0996471
0.110051
0.120403
0.130723
0.141006
0.15125
0.16145
0.171605
0.181712
0.191766
0.201767
0.21171
0.221594
0.231416
0.241173
0.250862
0.260481
0.270028
0.279499
0.288892
0.298206
0.307437
0.316583
0.325642
0.334611
0.343489
0.352273
0.360961
0.36955
0.37804
0.386427
0.394709
0.402886
0.410954
0.418913
0.42676
0.434493
0.442111
0.449611
0.456994
0.464256
0.471396
0.478413
0.485306
0.492072
0.498711
0.505221
0.511601
0.51785
0.523966
0.529948
0.535795
0.541507
0.547081
0.552518
0.557815
0.562973
0.56799
0.572865
0.577597
0.582187
0.586632
0.590933
0.595088
0.599097
0.602959
0.606674
0.610241
0.613659
0.616929
0.620049
0.623019
0.625839
0.628508
0.631026
0.633393
0.635608
0.637671
0.639581
0.641339
0.642944
0.644396
0.645695
0.646842
0.647837
0.648674
0.649319
0.649781
0.651037
0.648758
0.651574
36.9055
-16.2877
4.66951
-0.439676
-0.0384087
0.0807366
0.0792825
0.0867373
0.0983882
0.11005
0.121537
0.132968
0.144363
0.155719
0.16703
0.178294
0.189507
0.200666
0.211769
0.222812
0.233792
0.244706
0.255551
0.266325
0.277024
0.287645
0.298187
0.308645
0.319018
0.329302
0.339495
0.349594
0.359597
0.369501
0.379305
0.389004
0.398597
0.408082
0.417456
0.426717
0.435863
0.444892
0.453801
0.462589
0.471254
0.479793
0.488205
0.496487
0.504639
0.512658
0.520543
0.528291
0.535902
0.543374
0.550704
0.557893
0.564938
0.571837
0.578591
0.585197
0.591654
0.59796
0.604116
0.610119
0.615968
0.621664
0.627203
0.632587
0.637812
0.64288
0.647789
0.652538
0.657126
0.661553
0.665817
0.669919
0.673858
0.677633
0.681243
0.684689
0.687969
0.691082
0.69403
0.69681
0.699424
0.701869
0.704147
0.706257
0.708198
0.70997
0.711573
0.713007
0.714272
0.71537
0.7163
0.717018
0.717474
0.719086
0.716166
0.719595
36.9061
-16.2861
4.67225
-0.435848
-0.0334892
0.086747
0.0863821
0.0949241
0.10766
0.120404
0.13297
0.145477
0.157945
0.170369
0.182744
0.195068
0.207337
0.219546
0.231694
0.243776
0.255789
0.26773
0.279596
0.291383
0.303089
0.31471
0.326244
0.337686
0.349035
0.360287
0.371439
0.382489
0.393433
0.404269
0.414995
0.425607
0.436103
0.44648
0.456737
0.466869
0.476876
0.486755
0.496502
0.506117
0.515597
0.52494
0.534143
0.543205
0.552124
0.560898
0.569524
0.578002
0.586329
0.594504
0.602524
0.610389
0.618097
0.625646
0.633035
0.640262
0.647327
0.654227
0.660962
0.66753
0.67393
0.680161
0.686222
0.692112
0.69783
0.703374
0.708745
0.71394
0.71896
0.723804
0.72847
0.732958
0.737268
0.741398
0.745348
0.749117
0.752706
0.756113
0.759337
0.76238
0.765239
0.767915
0.770407
0.772715
0.774839
0.776778
0.778532
0.780101
0.781485
0.782685
0.783705
0.784493
0.784942
0.786877
0.783411
0.787369
36.9066
-16.2845
4.67498
-0.432032
-0.0285841
0.0927395
0.0934604
0.103086
0.116903
0.130726
0.144368
0.157947
0.171484
0.184973
0.198409
0.21179
0.22511
0.238366
0.251555
0.264673
0.277716
0.290681
0.303564
0.316362
0.329071
0.341689
0.354211
0.366634
0.378956
0.391172
0.403281
0.415278
0.42716
0.438926
0.450571
0.462092
0.473488
0.484755
0.495891
0.506892
0.517757
0.528482
0.539065
0.549505
0.559797
0.569941
0.579933
0.589772
0.599456
0.608981
0.618347
0.627552
0.636593
0.645468
0.654176
0.662716
0.671084
0.679281
0.687303
0.69515
0.70282
0.710312
0.717624
0.724755
0.731704
0.738469
0.74505
0.751445
0.757652
0.763672
0.769503
0.775144
0.780595
0.785853
0.79092
0.795793
0.800471
0.804956
0.809244
0.813337
0.817233
0.820932
0.824434
0.827737
0.830841
0.833746
0.836452
0.838958
0.841264
0.84337
0.845274
0.846978
0.84848
0.849783
0.850892
0.851751
0.852198
0.854402
0.850506
0.854894
36.9072
-16.2828
4.67769
-0.428228
-0.0236953
0.0987118
0.100514
0.11122
0.126114
0.141012
0.155726
0.170374
0.184976
0.199526
0.21402
0.228453
0.242821
0.25712
0.271347
0.285497
0.299566
0.313551
0.327448
0.341253
0.354962
0.368572
0.382079
0.39548
0.408771
0.421949
0.43501
0.447951
0.460768
0.473459
0.486021
0.498449
0.510741
0.522895
0.534907
0.546774
0.558493
0.570062
0.581478
0.592739
0.603841
0.614783
0.625561
0.636174
0.64662
0.656895
0.666998
0.676926
0.686679
0.696252
0.705646
0.714857
0.723884
0.732725
0.741379
0.749843
0.758117
0.766198
0.774085
0.781778
0.789273
0.796571
0.803669
0.810567
0.817263
0.823757
0.830047
0.836132
0.842011
0.847683
0.853148
0.858404
0.863451
0.868288
0.872915
0.87733
0.881532
0.885522
0.889299
0.892862
0.896211
0.899345
0.902264
0.904967
0.907454
0.909725
0.91178
0.913617
0.915238
0.916643
0.91784
0.918772
0.91923
0.921639
0.917434
0.922153
36.9077
-16.2812
4.6804
-0.424439
-0.0188253
0.104661
0.107541
0.119323
0.13529
0.151259
0.16704
0.182753
0.198416
0.214023
0.22957
0.245052
0.260464
0.275802
0.291062
0.30624
0.321332
0.336333
0.35124
0.366048
0.380753
0.395352
0.409841
0.424215
0.438472
0.452607
0.466617
0.480498
0.494247
0.50786
0.521334
0.534666
0.547851
0.560888
0.573772
0.586501
0.599072
0.611482
0.623728
0.635806
0.647715
0.659452
0.671014
0.682398
0.693602
0.704624
0.715461
0.726111
0.736572
0.746841
0.756917
0.766798
0.776481
0.785964
0.795247
0.804326
0.813201
0.821869
0.83033
0.838581
0.846621
0.854449
0.862063
0.869462
0.876645
0.88361
0.890357
0.896884
0.903191
0.909275
0.915137
0.920776
0.926189
0.931378
0.93634
0.941076
0.945584
0.949864
0.953915
0.957737
0.961329
0.964691
0.967822
0.970722
0.97339
0.975826
0.97803
0.980001
0.981739
0.983246
0.98453
0.985535
0.986017
0.988573
0.98417
0.989127
36.9083
-16.2796
4.6831
-0.420666
-0.0139754
0.110586
0.114539
0.127392
0.144428
0.161463
0.178308
0.195081
0.2118
0.228461
0.245056
0.261582
0.278034
0.294407
0.310697
0.326898
0.343008
0.359021
0.374933
0.39074
0.406437
0.422021
0.437487
0.452831
0.46805
0.483139
0.498094
0.512911
0.527588
0.542119
0.556502
0.570732
0.584807
0.598723
0.612477
0.626065
0.639484
0.652731
0.665802
0.678696
0.691408
0.703936
0.716278
0.72843
0.74039
0.752156
0.763724
0.775092
0.786259
0.797221
0.807976
0.818523
0.828859
0.838983
0.848891
0.858583
0.868057
0.87731
0.886341
0.895149
0.903731
0.912087
0.920215
0.928113
0.935781
0.943216
0.950418
0.957386
0.964117
0.970612
0.97687
0.982888
0.988667
0.994206
0.999503
1.00456
1.00937
1.01394
1.01826
1.02234
1.02618
1.02977
1.03311
1.0362
1.03905
1.04165
1.04401
1.04611
1.04796
1.04957
1.05094
1.05202
1.05254
1.05519
1.05069
1.0558
36.9088
-16.278
4.68578
-0.416909
-0.00914696
0.116484
0.121506
0.135425
0.153526
0.171622
0.189526
0.207354
0.225125
0.242834
0.260474
0.278039
0.295526
0.312929
0.330243
0.347465
0.364588
0.381608
0.398521
0.415323
0.432008
0.448572
0.465011
0.481321
0.497497
0.513535
0.52943
0.54518
0.56078
0.576226
0.591513
0.606639
0.6216
0.636391
0.65101
0.665453
0.679716
0.693796
0.70769
0.721395
0.734907
0.748224
0.761342
0.774258
0.786971
0.799476
0.811772
0.823856
0.835725
0.847377
0.858809
0.87002
0.881006
0.891766
0.902298
0.9126
0.922669
0.932505
0.942104
0.951466
0.960589
0.96947
0.978109
0.986505
0.994654
1.00256
1.01021
1.01762
1.02477
1.03168
1.03833
1.04473
1.05087
1.05676
1.06239
1.06776
1.07287
1.07773
1.08233
1.08666
1.09074
1.09455
1.09811
1.1014
1.10442
1.10719
1.10969
1.11193
1.1139
1.11561
1.11706
1.11821
1.11878
1.12148
1.11696
1.12217
36.9093
-16.2764
4.68846
-0.413171
-0.00434141
0.122355
0.12844
0.14342
0.16258
0.181733
0.20069
0.219569
0.238387
0.257139
0.275818
0.294418
0.312935
0.331363
0.349698
0.367934
0.386065
0.404089
0.421998
0.439789
0.457457
0.474997
0.492405
0.509675
0.526804
0.543787
0.560619
0.577297
0.593815
0.610171
0.626359
0.642376
0.658218
0.673881
0.689361
0.704654
0.719758
0.734668
0.74938
0.763892
0.7782
0.792301
0.806192
0.81987
0.833331
0.846574
0.859594
0.872389
0.884958
0.897296
0.909402
0.921272
0.932906
0.9443
0.955453
0.966361
0.977024
0.987439
0.997604
1.00752
1.01718
1.02658
1.03573
1.04462
1.05325
1.06162
1.06972
1.07757
1.08514
1.09245
1.0995
1.10627
1.11278
1.11901
1.12497
1.13066
1.13608
1.14122
1.14609
1.15068
1.155
1.15904
1.1628
1.16628
1.16949
1.17241
1.17506
1.17743
1.17952
1.18133
1.18287
1.18409
1.18471
1.18743
1.18296
1.1882
36.9099
-16.2748
4.69112
-0.409451
0.000439974
0.128196
0.135339
0.151375
0.171589
0.191793
0.211799
0.231723
0.251583
0.271373
0.291085
0.310715
0.330257
0.349705
0.369055
0.3883
0.407435
0.426456
0.445357
0.464133
0.482779
0.50129
0.519661
0.537887
0.555964
0.573887
0.591651
0.609252
0.626685
0.643946
0.66103
0.677934
0.694652
0.711182
0.727519
0.743659
0.759599
0.775334
0.790861
0.806176
0.821276
0.836158
0.850817
0.865252
0.879459
0.893434
0.907175
0.920679
0.933943
0.946964
0.95974
0.972268
0.984545
0.99657
1.00834
1.01985
1.03111
1.0421
1.05282
1.06329
1.07348
1.08341
1.09306
1.10244
1.11155
1.12038
1.12894
1.13721
1.14521
1.15293
1.16036
1.16751
1.17437
1.18095
1.18724
1.19325
1.19896
1.20439
1.20953
1.21437
1.21893
1.22319
1.22716
1.23084
1.23422
1.23731
1.24011
1.24261
1.24481
1.24672
1.24835
1.24964
1.25032
1.25303
1.24866
1.25389
36.9104
-16.2732
4.69376
-0.405751
0.00519589
0.134006
0.142202
0.159288
0.18055
0.2018
0.222848
0.243812
0.264708
0.28553
0.306271
0.326925
0.347487
0.36795
0.388308
0.408557
0.428691
0.448704
0.468591
0.488347
0.507965
0.527442
0.546772
0.565949
0.584969
0.603827
0.622518
0.641037
0.659379
0.677541
0.695516
0.713302
0.730893
0.748285
0.765474
0.782456
0.799227
0.815783
0.83212
0.848234
0.864122
0.87978
0.895205
0.910393
0.925341
0.940045
0.954503
0.968711
0.982667
0.996368
1.00981
1.02299
1.03591
1.04856
1.06095
1.07306
1.0849
1.09646
1.10775
1.11876
1.12949
1.13993
1.15009
1.15996
1.16954
1.17883
1.18784
1.19654
1.20496
1.21307
1.2209
1.22842
1.23564
1.24256
1.24918
1.2555
1.26152
1.26723
1.27263
1.27773
1.28252
1.28701
1.29119
1.29506
1.29861
1.30187
1.30481
1.30744
1.30976
1.31177
1.31347
1.31484
1.31559
1.31826
1.31403
1.31922
36.9109
-16.2716
4.69639
-0.402072
0.00992504
0.139783
0.149025
0.167156
0.189461
0.21175
0.233835
0.255833
0.277759
0.299608
0.321372
0.343044
0.364619
0.386091
0.407454
0.428701
0.449828
0.470828
0.491695
0.512425
0.533011
0.553448
0.57373
0.593853
0.613811
0.633598
0.653211
0.672643
0.69189
0.710947
0.729809
0.748471
0.766929
0.785179
0.803216
0.821035
0.838633
0.856005
0.873148
0.890057
0.906728
0.923158
0.939343
0.95528
0.970965
0.986394
1.00156
1.01647
1.03112
1.04549
1.0596
1.07343
1.08699
1.10026
1.11326
1.12597
1.13839
1.15053
1.16237
1.17392
1.18518
1.19613
1.20679
1.21715
1.22721
1.23696
1.2464
1.25554
1.26437
1.27289
1.28109
1.28899
1.29656
1.30383
1.31078
1.31741
1.32372
1.32971
1.33538
1.34073
1.34576
1.35047
1.35485
1.35891
1.36265
1.36606
1.36914
1.3719
1.37434
1.37644
1.37824
1.37967
1.38049
1.38311
1.37905
1.38418
36.9115
-16.2701
4.699
-0.398414
0.0146262
0.145526
0.155809
0.174978
0.198319
0.221642
0.244757
0.267782
0.290733
0.313603
0.336383
0.359068
0.381651
0.404125
0.426486
0.448726
0.470839
0.49282
0.514662
0.53636
0.557907
0.579299
0.600529
0.621592
0.642482
0.663194
0.683722
0.704062
0.724208
0.744155
0.763898
0.783432
0.802753
0.821855
0.840734
0.859386
0.877806
0.895989
0.913933
0.931631
0.949081
0.966279
0.98322
0.999901
1.01632
1.03247
1.04835
1.06395
1.07928
1.09433
1.10909
1.12357
1.13776
1.15165
1.16526
1.17856
1.19156
1.20427
1.21666
1.22875
1.24054
1.25201
1.26316
1.274
1.28453
1.29474
1.30462
1.31419
1.32343
1.33234
1.34093
1.3492
1.35713
1.36473
1.372
1.37894
1.38555
1.39182
1.39776
1.40336
1.40862
1.41355
1.41814
1.42239
1.4263
1.42987
1.4331
1.43599
1.43853
1.44074
1.44262
1.44411
1.44501
1.44758
1.44371
1.44875
36.912
-16.2685
4.7016
-0.39478
0.019298
0.151233
0.16255
0.182751
0.207121
0.231471
0.255611
0.279658
0.303626
0.32751
0.351301
0.374991
0.398576
0.422047
0.445399
0.468625
0.491719
0.514675
0.537486
0.560146
0.582649
0.604989
0.627161
0.649158
0.670974
0.692605
0.714044
0.735285
0.756325
0.777156
0.797775
0.818175
0.838353
0.858302
0.878018
0.897497
0.916734
0.935724
0.954463
0.972947
0.991171
1.00913
1.02682
1.04424
1.06139
1.07826
1.09484
1.11114
1.12714
1.14286
1.15828
1.1734
1.18822
1.20273
1.21693
1.23083
1.24441
1.25767
1.27062
1.28325
1.29555
1.30753
1.31918
1.3305
1.3415
1.35216
1.36248
1.37247
1.38212
1.39143
1.4004
1.40903
1.41731
1.42526
1.43285
1.4401
1.447
1.45355
1.45975
1.4656
1.47109
1.47624
1.48103
1.48547
1.48955
1.49328
1.49665
1.49967
1.50233
1.50464
1.50659
1.50816
1.50913
1.51163
1.50796
1.51291
36.9125
-16.2669
4.70418
-0.391169
0.0239393
0.156903
0.169246
0.190473
0.215866
0.241237
0.266395
0.291455
0.316435
0.341326
0.366121
0.390811
0.41539
0.439852
0.464189
0.488395
0.512463
0.536387
0.560161
0.583777
0.607229
0.630512
0.653619
0.676544
0.69928
0.721823
0.744167
0.766305
0.788232
0.809942
0.83143
0.852692
0.87372
0.894511
0.915059
0.93536
0.955408
0.9752
0.994729
1.01399
1.03299
1.0517
1.07014
1.0883
1.10617
1.12374
1.14103
1.15801
1.1747
1.19107
1.20714
1.2229
1.23834
1.25347
1.26827
1.28275
1.29691
1.31073
1.32422
1.33738
1.35021
1.36269
1.37483
1.38663
1.39809
1.4092
1.41996
1.43037
1.44043
1.45013
1.45948
1.46847
1.47711
1.48538
1.4933
1.50085
1.50804
1.51487
1.52133
1.52743
1.53316
1.53852
1.54351
1.54814
1.55239
1.55628
1.5598
1.56294
1.56571
1.56812
1.57015
1.57179
1.57283
1.57527
1.5718
1.57666
36.913
-16.2654
4.70674
-0.387583
0.0285488
0.162534
0.175898
0.198142
0.224551
0.250935
0.277104
0.303172
0.329157
0.355048
0.380839
0.406522
0.43209
0.457535
0.48285
0.508029
0.533065
0.557951
0.58268
0.607246
0.631641
0.65586
0.679895
0.703742
0.727393
0.750842
0.774084
0.797112
0.81992
0.842503
0.864856
0.886972
0.908846
0.930472
0.951847
0.972964
0.993818
1.0144
1.03472
1.05476
1.07451
1.09398
1.11316
1.13205
1.15064
1.16892
1.1869
1.20457
1.22192
1.23896
1.25567
1.27206
1.28813
1.30386
1.31926
1.33432
1.34904
1.36343
1.37746
1.39115
1.40449
1.41747
1.43011
1.44238
1.4543
1.46585
1.47705
1.48787
1.49834
1.50843
1.51816
1.52751
1.53649
1.5451
1.55333
1.56119
1.56867
1.57577
1.58249
1.58883
1.59479
1.60037
1.60557
1.61038
1.61481
1.61885
1.62251
1.62578
1.62866
1.63116
1.63328
1.63498
1.6361
1.63848
1.6352
1.63997
36.9135
-16.2639
4.70929
-0.384022
0.0331253
0.168125
0.182501
0.205757
0.233174
0.260565
0.287737
0.314805
0.341787
0.368672
0.395453
0.422121
0.44867
0.475091
0.501378
0.527523
0.55352
0.579361
0.605039
0.630547
0.655878
0.681026
0.705984
0.730746
0.755304
0.779653
0.803787
0.827698
0.851382
0.874832
0.898042
0.921006
0.94372
0.966176
0.988371
1.0103
1.03195
1.05333
1.07442
1.09523
1.11574
1.13596
1.15588
1.17549
1.19479
1.21378
1.23244
1.25079
1.26881
1.2865
1.30386
1.32088
1.33756
1.35389
1.36988
1.38552
1.40081
1.41574
1.43032
1.44453
1.45838
1.47187
1.48498
1.49773
1.5101
1.5221
1.53372
1.54497
1.55583
1.56631
1.57641
1.58613
1.59545
1.60439
1.61294
1.6211
1.62887
1.63624
1.64322
1.6498
1.65599
1.66178
1.66718
1.67217
1.67677
1.68097
1.68477
1.68816
1.69116
1.69376
1.69596
1.69773
1.69892
1.70123
1.69814
1.70283
36.914
-16.2624
4.71181
-0.380488
0.0376676
0.173674
0.189055
0.213314
0.241733
0.270122
0.29829
0.326352
0.354323
0.382194
0.409957
0.437603
0.465126
0.492516
0.519767
0.546872
0.573822
0.60061
0.62723
0.653674
0.679934
0.706005
0.731878
0.757548
0.783007
0.808249
0.833268
0.858057
0.882609
0.906919
0.93098
0.954787
0.978333
1.00161
1.02462
1.04735
1.0698
1.09196
1.11383
1.1354
1.15667
1.17763
1.19827
1.2186
1.23861
1.25829
1.27765
1.29667
1.31535
1.33369
1.35168
1.36932
1.38661
1.40355
1.42013
1.43634
1.45219
1.46767
1.48278
1.49751
1.51187
1.52585
1.53945
1.55266
1.56549
1.57793
1.58998
1.60164
1.6129
1.62376
1.63423
1.6443
1.65397
1.66324
1.6721
1.68056
1.68861
1.69626
1.70349
1.71032
1.71673
1.72274
1.72833
1.73351
1.73828
1.74263
1.74656
1.75009
1.75319
1.75588
1.75816
1.76
1.76126
1.76352
1.76061
1.76522
36.9145
-16.2609
4.71432
-0.376981
0.0421746
0.17918
0.195558
0.220813
0.250225
0.279605
0.308761
0.337808
0.366761
0.395611
0.424348
0.452965
0.481454
0.509806
0.538014
0.566069
0.593966
0.621694
0.649249
0.676621
0.703803
0.730789
0.757571
0.784141
0.810494
0.836623
0.86252
0.888178
0.913593
0.938756
0.963662
0.988304
1.01268
1.03678
1.06059
1.08412
1.10736
1.1303
1.15293
1.17526
1.19727
1.21897
1.24034
1.26138
1.28209
1.30247
1.3225
1.34218
1.36152
1.3805
1.39913
1.41739
1.43529
1.45282
1.46998
1.48676
1.50317
1.51919
1.53483
1.55008
1.56495
1.57942
1.59349
1.60717
1.62045
1.63332
1.6458
1.65786
1.66952
1.68077
1.6916
1.70203
1.71204
1.72163
1.7308
1.73956
1.74789
1.7558
1.76329
1.77036
1.777
1.78322
1.78901
1.79437
1.7993
1.80381
1.80788
1.81153
1.81474
1.81753
1.81989
1.82179
1.82312
1.82533
1.82259
1.82713
36.915
-16.2594
4.71681
-0.373503
0.046645
0.184641
0.202009
0.228251
0.258648
0.289011
0.319147
0.349171
0.379098
0.408919
0.438623
0.468203
0.497649
0.526955
0.556112
0.585111
0.613946
0.642608
0.671089
0.699381
0.727478
0.755372
0.783055
0.810519
0.837759
0.864766
0.891534
0.918056
0.944325
0.970335
0.996079
1.02155
1.04674
1.07165
1.09627
1.12059
1.14461
1.16832
1.19172
1.21479
1.23755
1.25997
1.28206
1.30381
1.32522
1.34628
1.36699
1.38734
1.40732
1.42694
1.4462
1.46507
1.48357
1.50169
1.51943
1.53678
1.55374
1.5703
1.58646
1.60223
1.61759
1.63255
1.6471
1.66124
1.67496
1.68827
1.70116
1.71363
1.72568
1.73731
1.74851
1.75928
1.76963
1.77954
1.78903
1.79808
1.80669
1.81487
1.82261
1.82992
1.83678
1.84321
1.84919
1.85473
1.85983
1.86449
1.8687
1.87247
1.87579
1.87867
1.88111
1.88308
1.88448
1.88664
1.88406
1.88854
36.9155
-16.2579
4.71927
-0.370054
0.0510777
0.190056
0.208405
0.235626
0.267
0.298338
0.329446
0.360439
0.391332
0.422114
0.452777
0.483311
0.513708
0.54396
0.574057
0.603993
0.633758
0.663344
0.692745
0.72195
0.750954
0.779748
0.808324
0.836675
0.864793
0.892672
0.920304
0.947682
0.974799
1.00165
1.02822
1.05452
1.08052
1.10623
1.13165
1.15675
1.18154
1.20602
1.23017
1.254
1.27748
1.30063
1.32344
1.34589
1.36799
1.38973
1.4111
1.4321
1.45274
1.47299
1.49286
1.51235
1.53145
1.55015
1.56846
1.58637
1.60387
1.62097
1.63766
1.65393
1.66979
1.68523
1.70025
1.71484
1.72901
1.74275
1.75606
1.76893
1.78137
1.79337
1.80494
1.81606
1.82674
1.83697
1.84676
1.8561
1.865
1.87344
1.88143
1.88897
1.89606
1.90269
1.90887
1.91459
1.91985
1.92466
1.92901
1.9329
1.93633
1.9393
1.94182
1.94385
1.94531
1.94745
1.94501
1.94944
36.916
-16.2564
4.72171
-0.366636
0.0554715
0.195424
0.214745
0.242936
0.275279
0.307583
0.339654
0.371608
0.403458
0.435195
0.466807
0.498288
0.529627
0.560816
0.591846
0.622709
0.653396
0.6839
0.714211
0.744322
0.774224
0.80391
0.833371
0.862601
0.891591
0.920333
0.948821
0.977048
1.005
1.03269
1.06008
1.08719
1.114
1.14051
1.16671
1.1926
1.21816
1.24339
1.26829
1.29285
1.31707
1.34094
1.36444
1.38759
1.41038
1.43279
1.45483
1.47648
1.49775
1.51864
1.53912
1.55922
1.57891
1.59819
1.61707
1.63553
1.65358
1.6712
1.68841
1.70519
1.72154
1.73745
1.75294
1.76798
1.78259
1.79676
1.81048
1.82375
1.83657
1.84895
1.86087
1.87234
1.88335
1.8939
1.90399
1.91362
1.92279
1.93149
1.93973
1.94751
1.95481
1.96165
1.96802
1.97392
1.97935
1.9843
1.98879
1.9928
1.99634
1.9994
2.00199
2.00409
2.00562
2.00772
2.00541
2.0098
36.9165
-16.255
4.72413
-0.363248
0.0598254
0.200743
0.221027
0.25018
0.283483
0.316744
0.34977
0.382675
0.415474
0.448156
0.48071
0.513128
0.5454
0.577518
0.609472
0.641255
0.672856
0.704268
0.735482
0.766489
0.797282
0.827852
0.858191
0.888291
0.918145
0.947743
0.97708
1.00615
1.03494
1.06344
1.09166
1.11957
1.14718
1.17448
1.20146
1.22811
1.25444
1.28042
1.30607
1.33136
1.3563
1.38087
1.40508
1.42892
1.45238
1.47546
1.49815
1.52046
1.54236
1.56386
1.58496
1.60565
1.62593
1.64579
1.66523
1.68424
1.70282
1.72098
1.73869
1.75597
1.77281
1.7892
1.80515
1.82064
1.83568
1.85027
1.8644
1.87807
1.89127
1.90402
1.91629
1.9281
1.93944
1.95031
1.9607
1.97062
1.98006
1.98902
1.99751
2.00551
2.01304
2.02008
2.02664
2.03271
2.0383
2.04341
2.04802
2.05215
2.0558
2.05895
2.06162
2.06378
2.06537
2.06745
2.06526
2.06962
36.917
-16.2535
4.72653
-0.359892
0.0641383
0.206012
0.22725
0.257356
0.291609
0.325818
0.35979
0.393638
0.427377
0.460995
0.494482
0.527828
0.561025
0.594063
0.626933
0.659625
0.692132
0.724444
0.756552
0.788448
0.820123
0.851569
0.882777
0.913739
0.944448
0.974895
1.00507
1.03497
1.06459
1.09391
1.12293
1.15165
1.18005
1.20813
1.23588
1.2633
1.29038
1.31711
1.34348
1.3695
1.39515
1.42043
1.44534
1.46986
1.49399
1.51773
1.54107
1.56401
1.58655
1.60867
1.63037
1.65165
1.67251
1.69294
1.71293
1.73249
1.75161
1.77028
1.7885
1.80628
1.8236
1.84046
1.85686
1.8728
1.88827
1.90328
1.91781
1.93187
1.94546
1.95857
1.97119
1.98334
1.995
2.00618
2.01687
2.02707
2.03679
2.04601
2.05474
2.06297
2.07071
2.07796
2.0847
2.09095
2.0967
2.10195
2.1067
2.11095
2.1147
2.11795
2.12069
2.12292
2.12457
2.12663
2.12454
2.12888
36.9174
-16.2521
4.7289
-0.35657
0.068409
0.211229
0.233413
0.264462
0.299656
0.334804
0.369712
0.404494
0.439163
0.473708
0.508118
0.542385
0.576497
0.610446
0.644222
0.677817
0.71122
0.744423
0.777417
0.810192
0.842741
0.875054
0.907123
0.938939
0.970494
1.00178
1.03279
1.06351
1.09395
1.12408
1.1539
1.18341
1.21259
1.24145
1.26996
1.29814
1.32596
1.35343
1.38053
1.40727
1.43363
1.45961
1.4852
1.51039
1.53519
1.55959
1.58358
1.60715
1.6303
1.65303
1.67533
1.6972
1.71864
1.73963
1.76017
1.78027
1.79992
1.8191
1.83783
1.85609
1.87389
1.89122
1.90807
1.92445
1.94035
1.95577
1.9707
1.98515
1.99911
2.01258
2.02556
2.03804
2.05002
2.06151
2.0725
2.08298
2.09296
2.10244
2.11141
2.11987
2.12782
2.13527
2.1422
2.14862
2.15453
2.15993
2.16481
2.16917
2.17303
2.17636
2.17918
2.18147
2.18318
2.18523
2.18324
2.18756
36.9179
-16.2507
4.73125
-0.35328
0.0726365
0.216393
0.239513
0.271495
0.307621
0.343699
0.379534
0.41524
0.45083
0.486293
0.521617
0.556794
0.591813
0.626664
0.661337