/*--------------------------------*- C++ -*----------------------------------*\
  =========                 |
  \\      /  F ield         | OpenFOAM: The Open Source CFD Toolbox
   \\    /   O peration     | Website:  https://openfoam.org
    \\  /    A nd           | Version:  10
     \\/     M anipulation  |
\*---------------------------------------------------------------------------*/
FoamFile
{
    format      ascii;
    class       volScalarField;
    location    "6.5";
    object      T_0;
}
// * * * * * * * * * * * * * * * * * * * * * * * * * * * * * * * * * * * * * //

dimensions      [0 0 -1 0 0 0 0];

internalField   nonuniform List<scalar> 
100
(
7.56325
22.6195
37.475
51.9978
66.0591
79.5341
92.3031
104.253
115.277
125.278
134.168
141.866
148.305
153.428
157.189
159.555
160.504
160.029
158.134
154.834
150.161
144.155
136.869
128.368
118.728
108.034
96.3816
83.8733
70.6206
56.741
42.3578
27.5986
12.5944
-2.5215
-17.6151
-32.5523
-47.2006
-61.4299
-75.1139
-88.1313
-100.366
-111.711
-122.063
-131.333
-139.436
-146.302
-151.869
-156.088
-158.922
-160.346
-160.346
-158.922
-156.088
-151.869
-146.302
-139.436
-131.332
-122.063
-111.71
-100.366
-88.1312
-75.1138
-61.4297
-47.2004
-32.5521
-17.6149
-2.52134
12.5946
27.5988
42.358
56.7412
70.6207
83.8735
96.3818
108.035
118.728
128.368
136.869
144.155
150.161
154.835
158.134
160.029
160.504
159.555
157.189
153.428
148.305
141.866
134.168
125.278
115.277
104.253
92.3031
79.5341
66.0591
51.9978
37.4749
22.6195
7.56324
)
;

boundaryField
{
    xmin
    {
        type            fixedValue;
        value           uniform 0;
    }
    xmax
    {
        type            fixedValue;
        value           uniform 0;
    }
    frontAndBack
    {
        type            empty;
    }
}


// ************************************************************************* //
