/*--------------------------------*- C++ -*----------------------------------*\
  =========                 |
  \\      /  F ield         | OpenFOAM: The Open Source CFD Toolbox
   \\    /   O peration     | Website:  https://openfoam.org
    \\  /    A nd           | Version:  10
     \\/     M anipulation  |
\*---------------------------------------------------------------------------*/
FoamFile
{
    format      ascii;
    class       volScalarField;
    location    "46.5";
    object      T;
}
// * * * * * * * * * * * * * * * * * * * * * * * * * * * * * * * * * * * * * //

dimensions      [0 0 0 1 0 0 0];

internalField   nonuniform List<scalar> 
10000
(
374.991
361.308
356.641
354.602
353.502
352.813
352.336
351.984
351.712
351.493
351.313
351.16
351.03
350.916
350.815
350.724
350.643
350.569
350.5
350.437
350.379
350.324
350.272
350.224
350.178
350.134
350.093
350.053
350.015
349.978
349.943
349.909
349.877
349.845
349.815
349.785
349.756
349.728
349.701
349.675
349.649
349.625
349.6
349.577
349.554
349.531
349.509
349.488
349.467
349.447
349.427
349.408
349.389
349.37
349.352
349.335
349.318
349.301
349.285
349.269
349.254
349.239
349.225
349.211
349.197
349.184
349.171
349.158
349.146
349.134
349.123
349.112
349.102
349.092
349.082
349.073
349.064
349.055
349.047
349.039
349.032
349.025
349.018
349.012
349.006
349
348.995
348.99
348.986
348.982
348.978
348.975
348.972
348.97
348.967
348.966
348.964
348.963
348.963
348.963
388.632
374.911
367.293
362.867
360.095
358.225
356.884
355.873
355.081
354.44
353.909
353.459
353.072
352.733
352.433
352.164
351.921
351.699
351.496
351.307
351.132
350.968
350.814
350.669
350.531
350.401
350.276
350.157
350.043
349.934
349.829
349.727
349.629
349.535
349.443
349.354
349.268
349.185
349.104
349.025
348.948
348.873
348.8
348.729
348.66
348.593
348.527
348.463
348.401
348.34
348.28
348.222
348.166
348.111
348.057
348.004
347.953
347.904
347.855
347.808
347.762
347.717
347.674
347.631
347.59
347.551
347.512
347.475
347.438
347.403
347.369
347.337
347.305
347.275
347.246
347.218
347.191
347.165
347.14
347.117
347.095
347.074
347.054
347.035
347.017
347
346.985
346.971
346.958
346.946
346.935
346.925
346.916
346.909
346.902
346.897
346.893
346.89
346.888
346.888
393.261
382.41
374.753
369.48
365.785
363.109
361.101
359.543
358.298
357.278
356.425
355.697
355.066
354.513
354.021
353.579
353.179
352.813
352.477
352.165
351.875
351.603
351.348
351.107
350.879
350.662
350.455
350.257
350.068
349.886
349.711
349.542
349.379
349.222
349.07
348.922
348.779
348.64
348.505
348.373
348.246
348.121
348
347.882
347.767
347.655
347.545
347.439
347.334
347.233
347.134
347.037
346.943
346.851
346.762
346.674
346.589
346.506
346.425
346.347
346.27
346.196
346.123
346.053
345.985
345.918
345.854
345.792
345.731
345.673
345.616
345.562
345.51
345.459
345.41
345.364
345.319
345.276
345.235
345.196
345.159
345.123
345.09
345.059
345.029
345.002
344.976
344.952
344.93
344.91
344.892
344.876
344.861
344.849
344.838
344.83
344.823
344.818
344.815
344.814
395.26
386.717
379.827
374.515
370.456
367.326
364.868
362.9
361.291
359.951
358.815
357.838
356.985
356.231
355.559
354.953
354.402
353.898
353.433
353.002
352.6
352.223
351.869
351.534
351.216
350.914
350.626
350.351
350.087
349.833
349.589
349.353
349.126
348.906
348.693
348.487
348.287
348.093
347.904
347.72
347.542
347.368
347.198
347.033
346.872
346.716
346.563
346.413
346.268
346.126
345.987
345.852
345.72
345.592
345.467
345.344
345.225
345.109
344.996
344.886
344.779
344.675
344.574
344.475
344.379
344.287
344.197
344.109
344.025
343.943
343.864
343.788
343.715
343.644
343.576
343.51
343.448
343.388
343.33
343.276
343.224
343.174
343.128
343.084
343.043
343.004
342.968
342.935
342.904
342.876
342.851
342.828
342.808
342.79
342.776
342.763
342.754
342.747
342.743
342.741
396.32
389.371
383.325
378.298
374.199
370.869
368.147
365.898
364.016
362.42
361.048
359.854
358.804
357.87
357.032
356.273
355.581
354.945
354.358
353.812
353.302
352.823
352.372
351.945
351.54
351.155
350.787
350.434
350.097
349.772
349.46
349.158
348.867
348.585
348.313
348.048
347.792
347.543
347.301
347.065
346.836
346.613
346.395
346.183
345.977
345.775
345.579
345.387
345.201
345.018
344.84
344.667
344.498
344.333
344.172
344.015
343.862
343.713
343.568
343.426
343.289
343.155
343.025
342.898
342.775
342.656
342.54
342.428
342.32
342.215
342.113
342.016
341.921
341.83
341.743
341.659
341.578
341.501
341.427
341.357
341.29
341.227
341.167
341.111
341.058
341.008
340.962
340.919
340.879
340.843
340.811
340.782
340.756
340.733
340.714
340.699
340.687
340.678
340.672
340.67
396.97
391.122
385.804
381.152
377.175
373.805
370.954
368.531
366.457
364.665
363.104
361.729
360.508
359.414
358.427
357.528
356.705
355.946
355.242
354.587
353.973
353.396
352.852
352.336
351.846
351.38
350.933
350.506
350.096
349.702
349.322
348.955
348.601
348.259
347.927
347.605
347.292
346.989
346.694
346.407
346.127
345.855
345.59
345.332
345.08
344.834
344.595
344.361
344.133
343.91
343.693
343.482
343.275
343.074
342.877
342.686
342.499
342.317
342.14
341.967
341.799
341.636
341.477
341.322
341.172
341.027
340.885
340.749
340.616
340.488
340.364
340.245
340.129
340.018
339.911
339.809
339.71
339.616
339.526
339.44
339.359
339.282
339.208
339.139
339.075
339.014
338.957
338.905
338.857
338.813
338.773
338.737
338.706
338.679
338.655
338.636
338.622
338.611
338.604
338.602
397.407
392.346
387.615
383.334
379.542
376.223
373.333
370.815
368.615
366.682
364.973
363.451
362.086
360.854
359.734
358.709
357.766
356.893
356.081
355.322
354.611
353.94
353.306
352.705
352.132
351.586
351.064
350.564
350.083
349.62
349.174
348.744
348.328
347.925
347.534
347.156
346.788
346.431
346.083
345.745
345.416
345.095
344.783
344.478
344.181
343.892
343.609
343.333
343.064
342.802
342.546
342.296
342.052
341.815
341.583
341.357
341.136
340.922
340.713
340.509
340.311
340.118
339.93
339.748
339.571
339.399
339.232
339.071
338.914
338.763
338.617
338.476
338.339
338.208
338.082
337.961
337.845
337.734
337.627
337.526
337.43
337.339
337.252
337.171
337.094
337.023
336.956
336.894
336.837
336.785
336.738
336.696
336.659
336.627
336.599
336.577
336.559
336.547
336.539
336.536
397.72
393.238
388.976
385.027
381.437
378.214
375.34
372.783
370.507
368.476
366.657
365.018
363.534
362.184
360.947
359.81
358.758
357.781
356.869
356.014
355.209
354.45
353.73
353.047
352.395
351.773
351.177
350.605
350.055
349.526
349.015
348.522
348.045
347.583
347.135
346.7
346.277
345.867
345.468
345.079
344.701
344.332
343.973
343.622
343.281
342.947
342.622
342.305
341.995
341.693
341.398
341.111
340.83
340.556
340.289
340.029
339.775
339.528
339.287
339.052
338.824
338.601
338.385
338.175
337.971
337.773
337.581
337.395
337.215
337.04
336.872
336.709
336.552
336.401
336.256
336.116
335.982
335.854
335.731
335.615
335.504
335.398
335.299
335.205
335.117
335.034
334.957
334.886
334.821
334.761
334.706
334.658
334.615
334.578
334.546
334.52
334.5
334.486
334.477
334.473
397.953
393.913
390.024
386.361
382.966
379.857
377.03
374.471
372.156
370.061
368.161
366.431
364.851
363.401
362.065
360.828
359.679
358.607
357.602
356.658
355.766
354.923
354.122
353.36
352.632
351.937
351.269
350.628
350.012
349.417
348.843
348.289
347.752
347.231
346.727
346.237
345.76
345.298
344.847
344.409
343.981
343.565
343.159
342.764
342.378
342.001
341.634
341.275
340.925
340.584
340.25
339.925
339.608
339.298
338.996
338.702
338.414
338.135
337.862
337.596
337.338
337.087
336.842
336.604
336.373
336.149
335.932
335.721
335.517
335.32
335.129
334.945
334.767
334.596
334.432
334.274
334.122
333.977
333.839
333.707
333.581
333.462
333.349
333.243
333.143
333.049
332.962
332.882
332.807
332.74
332.678
332.623
332.575
332.533
332.497
332.468
332.445
332.428
332.418
332.414
398.133
394.436
390.848
387.427
384.21
381.217
378.454
375.915
373.587
371.453
369.496
367.697
366.039
364.506
363.085
361.762
360.526
359.368
358.279
357.251
356.279
355.357
354.479
353.643
352.842
352.076
351.34
350.632
349.95
349.293
348.657
348.042
347.447
346.87
346.309
345.765
345.236
344.722
344.221
343.733
343.258
342.795
342.343
341.902
341.472
341.053
340.644
340.244
339.854
339.473
339.102
338.739
338.386
338.04
337.704
337.375
337.055
336.743
336.439
336.143
335.854
335.574
335.301
335.036
334.778
334.528
334.286
334.051
333.823
333.603
333.39
333.184
332.986
332.795
332.612
332.435
332.266
332.104
331.949
331.802
331.662
331.529
331.403
331.284
331.173
331.068
330.971
330.881
330.799
330.723
330.654
330.593
330.539
330.492
330.452
330.419
330.394
330.375
330.364
330.36
398.274
394.849
391.506
388.289
385.23
382.35
379.656
377.15
374.825
372.671
370.675
368.824
367.104
365.503
364.009
362.611
361.298
360.063
358.897
357.793
356.746
355.75
354.8
353.893
353.023
352.189
351.387
350.615
349.871
349.151
348.456
347.783
347.13
346.497
345.883
345.285
344.704
344.139
343.588
343.052
342.529
342.02
341.523
341.038
340.565
340.103
339.652
339.212
338.782
338.363
337.953
337.554
337.164
336.783
336.412
336.05
335.697
335.353
335.017
334.691
334.373
334.063
333.762
333.47
333.186
332.91
332.642
332.383
332.132
331.889
331.654
331.427
331.208
330.998
330.795
330.6
330.414
330.235
330.064
329.902
329.747
329.6
329.461
329.33
329.207
329.092
328.985
328.885
328.794
328.711
328.635
328.567
328.507
328.456
328.412
328.375
328.347
328.327
328.314
328.31
398.387
395.182
392.039
388.994
386.073
383.296
380.672
378.205
375.894
373.732
371.711
369.822
368.053
366.396
364.841
363.377
361.997
360.692
359.457
358.283
357.167
356.102
355.084
354.109
353.174
352.275
351.41
350.576
349.771
348.992
348.239
347.509
346.801
346.113
345.445
344.796
344.164
343.549
342.95
342.365
341.796
341.241
340.699
340.17
339.654
339.15
338.658
338.178
337.709
337.251
336.804
336.368
335.942
335.527
335.121
334.726
334.34
333.964
333.598
333.241
332.893
332.555
332.226
331.907
331.596
331.294
331.002
330.719
330.444
330.178
329.922
329.674
329.434
329.204
328.983
328.77
328.566
328.37
328.184
328.006
327.837
327.676
327.524
327.381
327.246
327.12
327.003
326.895
326.795
326.703
326.621
326.547
326.481
326.424
326.376
326.337
326.306
326.284
326.27
326.265
398.479
395.453
392.475
389.575
386.774
384.09
381.532
379.107
376.816
374.654
372.618
370.701
368.894
367.191
365.583
364.063
362.623
361.257
359.958
358.721
357.54
356.411
355.329
354.292
353.294
352.334
351.408
350.515
349.651
348.815
348.005
347.22
346.458
345.717
344.997
344.297
343.615
342.951
342.304
341.673
341.057
340.457
339.871
339.299
338.741
338.195
337.663
337.143
336.635
336.139
335.655
335.183
334.721
334.271
333.832
333.403
332.985
332.577
332.18
331.793
331.416
331.05
330.693
330.346
330.01
329.683
329.365
329.058
328.76
328.472
328.193
327.924
327.665
327.415
327.175
326.944
326.722
326.511
326.308
326.115
325.931
325.757
325.592
325.437
325.291
325.154
325.027
324.909
324.801
324.702
324.612
324.532
324.461
324.399
324.347
324.304
324.27
324.246
324.232
324.226
398.554
395.675
392.835
390.057
387.36
384.758
382.262
379.878
377.609
375.454
373.409
371.472
369.635
367.894
366.242
364.673
363.181
361.759
360.403
359.107
357.867
356.678
355.537
354.439
353.383
352.364
351.381
350.43
349.51
348.619
347.755
346.916
346.101
345.309
344.538
343.788
343.057
342.345
341.651
340.974
340.313
339.668
339.039
338.424
337.824
337.238
336.666
336.107
335.56
335.027
334.506
333.997
333.501
333.016
332.543
332.082
331.631
331.193
330.765
330.348
329.942
329.547
329.163
328.79
328.427
328.074
327.733
327.401
327.08
326.77
326.47
326.18
325.9
325.631
325.372
325.123
324.884
324.656
324.438
324.23
324.032
323.844
323.666
323.499
323.341
323.194
323.057
322.93
322.813
322.706
322.609
322.523
322.446
322.38
322.323
322.277
322.241
322.215
322.199
322.193
398.616
395.86
393.134
390.459
387.851
385.321
382.881
380.537
378.291
376.144
374.097
372.144
370.284
368.512
366.822
365.211
363.671
362.2
360.792
359.443
358.148
356.903
355.706
354.553
353.44
352.366
351.327
350.322
349.348
348.403
347.486
346.596
345.73
344.887
344.067
343.268
342.49
341.731
340.991
340.268
339.563
338.875
338.203
337.546
336.905
336.278
335.667
335.069
334.485
333.914
333.357
332.813
332.281
331.762
331.256
330.762
330.28
329.81
329.352
328.906
328.471
328.048
327.637
327.237
326.848
326.47
326.104
325.749
325.405
325.073
324.751
324.44
324.141
323.852
323.574
323.308
323.052
322.807
322.573
322.35
322.138
321.937
321.746
321.567
321.398
321.24
321.093
320.957
320.831
320.717
320.613
320.52
320.438
320.367
320.307
320.257
320.218
320.191
320.173
320.167
398.668
396.013
393.384
390.796
388.264
385.798
383.407
381.099
378.875
376.74
374.691
372.729
370.85
369.051
367.329
365.68
364.099
362.583
361.128
359.729
358.384
357.088
355.838
354.632
353.467
352.34
351.248
350.19
349.164
348.168
347.201
346.26
345.344
344.453
343.585
342.738
341.913
341.108
340.323
339.556
338.807
338.076
337.362
336.664
335.983
335.317
334.666
334.03
333.408
332.801
332.208
331.628
331.062
330.51
329.971
329.444
328.931
328.43
327.942
327.467
327.003
326.552
326.114
325.687
325.273
324.871
324.48
324.102
323.735
323.38
323.037
322.706
322.386
322.079
321.783
321.498
321.225
320.964
320.715
320.477
320.25
320.036
319.833
319.641
319.461
319.293
319.136
318.991
318.857
318.735
318.624
318.525
318.437
318.362
318.297
318.244
318.203
318.173
318.155
318.148
398.711
396.141
393.593
391.079
388.611
386.2
383.853
381.577
379.375
377.25
375.203
373.233
371.338
369.517
367.767
366.085
364.468
362.911
361.413
359.969
358.576
357.232
355.934
354.678
353.462
352.285
351.143
350.035
348.96
347.914
346.897
345.908
344.944
344.005
343.09
342.198
341.327
340.477
339.648
338.837
338.046
337.273
336.517
335.779
335.057
334.352
333.663
332.989
332.331
331.687
331.059
330.444
329.845
329.259
328.687
328.129
327.584
327.053
326.535
326.031
325.539
325.061
324.595
324.143
323.703
323.276
322.861
322.459
322.07
321.693
321.329
320.978
320.638
320.311
319.997
319.695
319.405
319.128
318.863
318.61
318.37
318.142
317.926
317.723
317.531
317.353
317.186
317.032
316.89
316.76
316.642
316.537
316.444
316.364
316.295
316.239
316.195
316.164
316.144
316.137
398.748
396.249
393.768
391.316
388.904
386.54
384.231
381.984
379.801
377.687
375.641
373.665
371.757
369.917
368.143
366.431
364.78
363.187
361.649
360.163
358.727
357.338
355.993
354.691
353.428
352.203
351.013
349.857
348.734
347.64
346.576
345.54
344.529
343.545
342.584
341.646
340.731
339.838
338.965
338.112
337.279
336.464
335.668
334.89
334.129
333.386
332.659
331.948
331.253
330.574
329.91
329.261
328.628
328.009
327.405
326.815
326.24
325.679
325.132
324.598
324.079
323.573
323.081
322.602
322.137
321.686
321.247
320.822
320.411
320.012
319.627
319.255
318.896
318.551
318.218
317.898
317.592
317.299
317.018
316.751
316.497
316.255
316.027
315.812
315.61
315.42
315.244
315.081
314.93
314.793
314.669
314.557
314.459
314.374
314.301
314.242
314.196
314.162
314.142
314.134
398.778
396.338
393.915
391.515
389.15
386.826
384.55
382.328
380.163
378.057
376.014
374.032
372.114
370.257
368.46
366.722
365.04
363.414
361.839
360.315
358.838
357.407
356.019
354.672
353.364
352.094
350.858
349.656
348.487
347.348
346.238
345.156
344.1
343.071
342.066
341.085
340.126
339.19
338.275
337.38
336.506
335.651
334.815
333.998
333.199
332.417
331.653
330.905
330.175
329.46
328.762
328.08
327.413
326.762
326.126
325.505
324.899
324.308
323.731
323.17
322.623
322.09
321.571
321.067
320.577
320.101
319.639
319.191
318.757
318.338
317.932
317.539
317.161
316.797
316.446
316.109
315.786
315.477
315.181
314.899
314.631
314.377
314.136
313.909
313.696
313.496
313.31
313.138
312.98
312.835
312.704
312.586
312.483
312.393
312.316
312.254
312.205
312.169
312.148
312.14
398.803
396.414
394.037
391.682
389.357
387.067
384.819
382.618
380.467
378.37
376.328
374.342
372.413
370.54
368.724
366.961
365.252
363.595
361.986
360.426
358.911
357.441
356.012
354.623
353.272
351.958
350.679
349.433
348.22
347.036
345.882
344.756
343.657
342.584
341.536
340.512
339.512
338.533
337.577
336.642
335.728
334.833
333.958
333.102
332.265
331.446
330.645
329.862
329.096
328.347
327.615
326.899
326.199
325.516
324.848
324.197
323.561
322.94
322.335
321.745
321.171
320.611
320.067
319.537
319.022
318.522
318.037
317.566
317.111
316.669
316.243
315.831
315.433
315.05
314.681
314.327
313.988
313.663
313.352
313.056
312.774
312.506
312.253
312.015
311.79
311.581
311.385
311.204
311.038
310.885
310.747
310.624
310.515
310.42
310.34
310.274
310.223
310.186
310.163
310.155
398.824
396.476
394.139
391.821
389.529
387.267
385.043
382.86
380.721
378.63
376.589
374.599
372.661
370.774
368.939
367.154
365.419
363.733
362.093
360.499
358.949
357.441
355.973
354.544
353.153
351.798
350.477
349.189
347.933
346.707
345.51
344.342
343.2
342.085
340.995
339.93
338.888
337.869
336.873
335.898
334.944
334.01
333.097
332.204
331.329
330.474
329.637
328.818
328.017
327.234
326.468
325.719
324.988
324.273
323.574
322.892
322.226
321.577
320.943
320.325
319.724
319.138
318.567
318.012
317.473
316.949
316.441
315.948
315.47
315.008
314.561
314.129
313.712
313.311
312.925
312.554
312.198
311.857
311.531
311.22
310.925
310.645
310.379
310.129
309.894
309.674
309.469
309.279
309.105
308.945
308.801
308.671
308.557
308.458
308.374
308.304
308.251
308.212
308.188
308.179
398.842
396.528
394.224
391.937
389.671
387.434
385.229
383.06
380.931
378.845
376.804
374.809
372.862
370.961
369.109
367.303
365.544
363.831
362.162
360.536
358.952
357.408
355.904
354.438
353.008
351.613
350.252
348.924
347.626
346.36
345.122
343.912
342.73
341.574
340.443
339.337
338.255
337.197
336.161
335.147
334.155
333.183
332.233
331.302
330.391
329.5
328.628
327.774
326.939
326.122
325.323
324.542
323.778
323.032
322.303
321.591
320.895
320.217
319.555
318.91
318.282
317.67
317.074
316.494
315.93
315.383
314.852
314.337
313.837
313.354
312.887
312.435
312
311.58
311.176
310.788
310.416
310.06
309.719
309.394
309.085
308.792
308.515
308.253
308.007
307.777
307.563
307.364
307.182
307.015
306.864
306.728
306.609
306.505
306.417
306.345
306.288
306.248
306.223
306.214
398.856
396.57
394.294
392.031
389.788
387.57
385.38
383.223
381.102
379.019
376.977
374.977
373.02
371.107
369.238
367.413
365.631
363.892
362.195
360.539
358.923
357.346
355.807
354.305
352.838
351.405
350.006
348.638
347.302
345.995
344.718
343.469
342.246
341.051
339.881
338.735
337.614
336.517
335.443
334.391
333.361
332.352
331.365
330.398
329.451
328.524
327.617
326.729
325.861
325.011
324.179
323.366
322.571
321.794
321.034
320.293
319.569
318.862
318.173
317.5
316.845
316.207
315.586
314.982
314.394
313.824
313.27
312.732
312.212
311.708
311.22
310.75
310.295
309.858
309.436
309.032
308.643
308.272
307.916
307.577
307.255
306.949
306.66
306.387
306.13
305.89
305.667
305.46
305.269
305.095
304.937
304.796
304.671
304.563
304.471
304.396
304.337
304.294
304.268
304.259
398.868
396.605
394.35
392.108
389.883
387.68
385.502
383.354
381.238
379.157
377.113
375.107
373.141
371.215
369.33
367.485
365.682
363.919
362.195
360.511
358.865
357.256
355.683
354.147
352.644
351.175
349.739
348.334
346.96
345.615
344.299
343.011
341.75
340.516
339.308
338.124
336.965
335.83
334.718
333.629
332.562
331.517
330.494
329.491
328.509
327.548
326.607
325.685
324.783
323.901
323.037
322.192
321.366
320.559
319.77
318.999
318.246
317.511
316.795
316.096
315.414
314.751
314.105
313.476
312.865
312.271
311.695
311.136
310.594
310.07
309.562
309.072
308.6
308.144
307.706
307.284
306.88
306.493
306.123
305.771
305.435
305.116
304.815
304.531
304.264
304.014
303.781
303.566
303.367
303.186
303.021
302.874
302.744
302.632
302.536
302.458
302.396
302.352
302.325
302.315
398.877
396.632
394.395
392.169
389.958
387.767
385.598
383.457
381.344
379.263
377.215
375.203
373.227
371.288
369.387
367.525
365.7
363.914
362.165
360.453
358.778
357.139
355.534
353.965
352.428
350.924
349.452
348.011
346.6
345.219
343.866
342.541
341.242
339.971
338.725
337.504
336.308
335.136
333.987
332.862
331.759
330.678
329.62
328.582
327.566
326.571
325.596
324.641
323.707
322.792
321.897
321.021
320.165
319.327
318.509
317.709
316.928
316.166
315.422
314.697
313.99
313.301
312.63
311.977
311.343
310.726
310.128
309.547
308.985
308.44
307.913
307.404
306.913
306.44
305.984
305.547
305.127
304.725
304.34
303.974
303.625
303.294
302.981
302.686
302.408
302.149
301.907
301.683
301.476
301.288
301.117
300.964
300.829
300.712
300.613
300.531
300.467
300.422
300.393
300.383
398.884
396.654
394.429
392.215
390.015
387.833
385.671
383.533
381.422
379.339
377.287
375.268
373.282
371.33
369.414
367.533
365.688
363.879
362.106
360.368
358.665
356.997
355.362
353.76
352.191
350.654
349.147
347.671
346.225
344.808
343.419
342.057
340.723
339.415
338.133
336.876
335.643
334.435
333.251
332.09
330.952
329.836
328.743
327.672
326.622
325.593
324.585
323.598
322.631
321.685
320.759
319.853
318.966
318.1
317.252
316.424
315.616
314.826
314.055
313.304
312.571
311.857
311.162
310.486
309.829
309.19
308.569
307.967
307.384
306.819
306.273
305.745
305.236
304.745
304.273
303.819
303.383
302.966
302.568
302.188
301.826
301.483
301.158
300.852
300.564
300.294
300.044
299.811
299.597
299.402
299.224
299.066
298.926
298.804
298.701
298.617
298.55
298.503
298.474
298.463
398.889
396.669
394.455
392.25
390.058
387.881
385.723
383.587
381.475
379.39
377.332
375.305
373.308
371.344
369.412
367.514
365.649
363.818
362.021
360.258
358.528
356.831
355.167
353.535
351.934
350.364
348.825
347.315
345.835
344.383
342.959
341.563
340.193
338.849
337.532
336.24
334.972
333.729
332.51
331.314
330.141
328.992
327.864
326.759
325.676
324.615
323.575
322.556
321.558
320.581
319.624
318.688
317.772
316.876
316
315.144
314.308
313.492
312.695
311.918
311.16
310.421
309.702
309.003
308.322
307.661
307.019
306.396
305.792
305.208
304.642
304.096
303.569
303.061
302.572
302.102
301.651
301.219
300.807
300.413
300.038
299.683
299.347
299.029
298.731
298.452
298.192
297.952
297.73
297.527
297.344
297.18
297.035
296.909
296.802
296.715
296.646
296.597
296.567
296.555
398.893
396.681
394.473
392.274
390.087
387.914
385.758
383.621
381.507
379.417
377.353
375.317
373.309
371.331
369.384
367.468
365.584
363.732
361.913
360.125
358.369
356.645
354.952
353.29
351.659
350.058
348.486
346.944
345.431
343.945
342.487
341.057
339.653
338.275
336.923
335.596
334.294
333.017
331.763
330.534
329.327
328.144
326.984
325.846
324.731
323.637
322.565
321.515
320.486
319.478
318.492
317.526
316.581
315.657
314.753
313.869
313.006
312.163
311.341
310.538
309.755
308.993
308.25
307.527
306.824
306.141
305.478
304.834
304.21
303.606
303.022
302.457
301.912
301.387
300.881
300.396
299.93
299.483
299.057
298.65
298.262
297.895
297.547
297.219
296.911
296.622
296.354
296.105
295.875
295.666
295.476
295.307
295.157
295.026
294.916
294.825
294.755
294.704
294.672
294.661
398.895
396.688
394.484
392.289
390.104
387.932
385.775
383.637
381.519
379.424
377.352
375.306
373.287
371.296
369.333
367.4
365.497
363.624
361.782
359.97
358.189
356.438
354.717
353.027
351.366
349.735
348.132
346.559
345.013
343.495
342.004
340.54
339.103
337.692
336.306
334.946
333.61
332.299
331.013
329.75
328.511
327.295
326.102
324.932
323.785
322.66
321.557
320.476
319.416
318.379
317.363
316.368
315.394
314.442
313.511
312.6
311.71
310.841
309.993
309.165
308.358
307.572
306.806
306.06
305.335
304.63
303.946
303.282
302.638
302.015
301.411
300.829
300.266
299.724
299.202
298.701
298.22
297.759
297.318
296.898
296.499
296.119
295.76
295.421
295.103
294.805
294.528
294.271
294.034
293.818
293.622
293.447
293.292
293.157
293.043
292.95
292.877
292.824
292.792
292.78
398.897
396.691
394.489
392.295
390.11
387.937
385.779
383.637
381.514
379.411
377.331
375.275
373.244
371.238
369.26
367.31
365.388
363.494
361.63
359.795
357.989
356.213
354.465
352.747
351.058
349.397
347.764
346.16
344.583
343.033
341.51
340.014
338.544
337.101
335.682
334.289
332.921
331.577
330.258
328.963
327.692
326.444
325.219
324.018
322.839
321.683
320.55
319.439
318.35
317.283
316.238
315.214
314.213
313.233
312.274
311.337
310.421
309.526
308.653
307.8
306.969
306.159
305.37
304.602
303.855
303.129
302.423
301.739
301.076
300.433
299.812
299.211
298.632
298.073
297.535
297.018
296.522
296.047
295.593
295.16
294.747
294.356
293.986
293.637
293.309
293.001
292.715
292.45
292.206
291.983
291.781
291.6
291.441
291.302
291.184
291.088
291.013
290.958
290.925
290.913
398.897
396.691
394.489
392.293
390.107
387.931
385.769
383.622
381.493
379.382
377.293
375.225
373.182
371.162
369.168
367.2
365.259
363.346
361.46
359.602
357.772
355.97
354.197
352.452
350.734
349.045
347.383
345.748
344.141
342.561
341.007
339.479
337.978
336.502
335.052
333.627
332.227
330.852
329.501
328.174
326.871
325.592
324.336
323.104
321.894
320.708
319.545
318.404
317.286
316.19
315.116
314.065
313.036
312.029
311.043
310.08
309.138
308.218
307.32
306.443
305.589
304.755
303.943
303.153
302.384
301.637
300.911
300.207
299.524
298.863
298.223
297.605
297.008
296.433
295.879
295.347
294.836
294.347
293.88
293.434
293.009
292.606
292.225
291.865
291.527
291.211
290.916
290.643
290.392
290.162
289.954
289.768
289.604
289.461
289.34
289.24
289.163
289.107
289.073
289.06
398.896
396.688
394.484
392.285
390.095
387.915
385.748
383.595
381.457
379.338
377.238
375.159
373.102
371.068
369.058
367.073
365.114
363.18
361.273
359.392
357.539
355.713
353.914
352.142
350.397
348.68
346.989
345.326
343.689
342.079
340.494
338.936
337.404
335.897
334.416
332.96
331.529
330.122
328.74
327.382
326.048
324.739
323.452
322.19
320.951
319.735
318.542
317.372
316.225
315.101
314
312.921
311.864
310.83
309.819
308.83
307.863
306.918
305.995
305.095
304.216
303.36
302.526
301.714
300.924
300.156
299.41
298.686
297.984
297.304
296.647
296.011
295.397
294.806
294.236
293.689
293.164
292.661
292.18
291.721
291.285
290.87
290.478
290.108
289.76
289.435
289.132
288.851
288.593
288.356
288.142
287.951
287.781
287.635
287.51
287.408
287.328
287.27
287.235
287.222
398.894
396.682
394.474
392.271
390.076
387.89
385.716
383.555
381.41
379.281
377.17
375.078
373.008
370.959
368.933
366.93
364.952
362.998
361.07
359.167
357.291
355.44
353.616
351.819
350.048
348.303
346.585
344.893
343.227
341.588
339.974
338.386
336.824
335.287
333.775
332.288
330.827
329.39
327.977
326.589
325.225
323.885
322.569
321.277
320.009
318.764
317.542
316.344
315.169
314.017
312.888
311.782
310.699
309.638
308.601
307.586
306.594
305.625
304.679
303.755
302.853
301.974
301.118
300.285
299.474
298.685
297.919
297.176
296.455
295.757
295.082
294.429
293.799
293.191
292.606
292.044
291.504
290.988
290.494
290.022
289.574
289.148
288.745
288.365
288.008
287.674
287.362
287.073
286.808
286.565
286.345
286.148
285.974
285.823
285.695
285.59
285.508
285.449
285.413
285.4
398.891
396.674
394.46
392.252
390.05
387.857
385.675
383.506
381.35
379.211
377.088
374.984
372.899
370.835
368.792
366.772
364.775
362.802
360.853
358.928
357.029
355.155
353.307
351.484
349.687
347.915
346.17
344.451
342.757
341.089
339.446
337.829
336.237
334.671
333.13
331.613
330.122
328.655
327.213
325.795
324.402
323.032
321.687
320.366
319.069
317.795
316.545
315.319
314.116
312.937
311.781
310.648
309.539
308.453
307.39
306.351
305.334
304.341
303.371
302.423
301.499
300.598
299.721
298.866
298.034
297.225
296.44
295.678
294.938
294.222
293.529
292.859
292.213
291.589
290.989
290.412
289.859
289.328
288.821
288.338
287.877
287.44
287.027
286.637
286.27
285.927
285.607
285.311
285.038
284.789
284.564
284.361
284.183
284.028
283.897
283.789
283.704
283.644
283.607
283.593
398.888
396.664
394.444
392.228
390.018
387.817
385.626
383.447
381.281
379.13
376.995
374.877
372.778
370.698
368.639
366.601
364.586
362.593
360.623
358.677
356.755
354.858
352.985
351.138
349.315
347.518
345.746
344
342.278
340.582
338.912
337.266
335.646
334.05
332.48
330.935
329.414
327.918
326.447
325
323.578
322.18
320.806
319.456
318.131
316.829
315.552
314.298
313.068
311.862
310.68
309.521
308.386
307.275
306.187
305.123
304.082
303.065
302.072
301.102
300.156
299.233
298.333
297.458
296.606
295.777
294.972
294.191
293.434
292.7
291.989
291.303
290.64
290.001
289.386
288.795
288.227
287.683
287.164
286.668
286.196
285.748
285.324
284.924
284.548
284.196
283.868
283.564
283.285
283.029
282.798
282.591
282.407
282.249
282.114
282.003
281.917
281.855
281.817
281.803
398.884
396.652
394.423
392.199
389.981
387.771
385.57
383.38
381.203
379.039
376.891
374.759
372.645
370.55
368.474
366.418
364.384
362.372
360.381
358.414
356.47
354.55
352.654
350.782
348.935
347.112
345.314
343.541
341.793
340.07
338.371
336.698
335.05
333.426
331.828
330.254
328.705
327.18
325.681
324.206
322.755
321.329
319.927
318.549
317.196
315.867
314.563
313.282
312.025
310.793
309.585
308.4
307.24
306.104
304.992
303.903
302.839
301.799
300.782
299.79
298.822
297.877
296.957
296.061
295.189
294.341
293.517
292.717
291.942
291.19
290.463
289.76
289.081
288.427
287.797
287.191
286.61
286.053
285.521
285.013
284.529
284.071
283.636
283.226
282.841
282.481
282.145
281.834
281.547
281.286
281.048
280.836
280.649
280.486
280.348
280.234
280.146
280.082
280.043
280.029
398.879
396.639
394.401
392.167
389.939
387.718
385.507
383.305
381.116
378.94
376.778
374.632
372.503
370.391
368.298
366.225
364.172
362.14
360.129
358.141
356.175
354.233
352.313
350.417
348.546
346.698
344.874
343.075
341.301
339.551
337.826
336.126
334.45
332.799
331.172
329.571
327.994
326.442
324.914
323.411
321.933
320.479
319.05
317.645
316.265
314.909
313.578
312.271
310.988
309.73
308.496
307.287
306.102
304.941
303.804
302.692
301.605
300.542
299.503
298.489
297.499
296.533
295.592
294.676
293.784
292.917
292.074
291.256
290.463
289.694
288.95
288.231
287.537
286.867
286.222
285.603
285.008
284.438
283.893
283.373
282.879
282.409
281.965
281.545
281.151
280.782
280.438
280.12
279.827
279.559
279.316
279.099
278.907
278.74
278.599
278.483
278.392
278.327
278.287
278.272
398.874
396.624
394.376
392.131
389.893
387.661
385.438
383.224
381.022
378.833
376.657
374.496
372.351
370.223
368.113
366.022
363.95
361.899