/*--------------------------------*- C++ -*----------------------------------*\
  =========                 |
  \\      /  F ield         | OpenFOAM: The Open Source CFD Toolbox
   \\    /   O peration     | Website:  https://openfoam.org
    \\  /    A nd           | Version:  10
     \\/     M anipulation  |
\*---------------------------------------------------------------------------*/
FoamFile
{
    format      ascii;
    class       volScalarField;
    location    "16";
    object      T_0;
}
// * * * * * * * * * * * * * * * * * * * * * * * * * * * * * * * * * * * * * //

dimensions      [0 0 -1 0 0 0 0];

internalField   nonuniform List<scalar> 
100
(
3.02952
9.0604
15.0109
20.8281
26.4605
31.858
36.9727
41.7592
46.1751
50.1812
53.7418
56.8255
59.4047
61.4567
62.9631
63.9108
64.2911
64.1008
63.3415
62.02
60.1481
57.7422
54.8238
51.4188
47.5575
43.274
38.6063
33.5961
28.2876
22.7281
16.9668
11.0549
5.04488
-1.0099
-7.05571
-13.0389
-18.9063
-24.606
-30.0872
-35.3014
-40.2022
-44.7462
-48.893
-52.6059
-55.8518
-58.6019
-60.8319
-62.522
-63.6571
-64.2272
-64.2272
-63.6571
-62.522
-60.8319
-58.6019
-55.8517
-52.6058
-48.893
-44.7461
-40.2022
-35.3013
-30.0871
-24.6059
-18.9063
-13.0388
-7.05563
-1.00982
5.04497
11.055
16.9669
22.7281
28.2877
33.5962
38.6064
43.274
47.5575
51.4189
54.8239
57.7423
60.1481
62.0201
63.3416
64.1009
64.2912
63.9108
62.9632
61.4567
59.4048
56.8255
53.7419
50.1812
46.1752
41.7593
36.9727
31.858
26.4605
20.8281
15.0109
9.06041
3.02952
)
;

boundaryField
{
    xmin
    {
        type            fixedValue;
        value           uniform 0;
    }
    xmax
    {
        type            fixedValue;
        value           uniform 0;
    }
    frontAndBack
    {
        type            empty;
    }
}


// ************************************************************************* //
